<event>
 7    1  0.2593256E-015  0.9000775E+02  0.7816164E-02  0.1186339E+00
        -11   -1    0    0    0    0  0.00000000000E+00  0.00000000000E+00  0.45593999997E+02  0.45594000000E+02  0.51100000000E-03 0.  1.
         11   -1    0    0    0    0 -0.00000000000E+00 -0.00000000000E+00 -0.45593999997E+02  0.45594000000E+02  0.51100000000E-03 0. -1.
    9900012    2    1    2    0    0 -0.99201975878E+00 -0.53350659130E+00 -0.35249301003E+00  0.90007752650E+02  0.90000014185E+02 0.  0.
        -12    1    1    2    0    0  0.99201975878E+00  0.53350659130E+00  0.35249301003E+00  0.11802473499E+01  0.00000000000E+00 0.  1.
         11    1    3    3    0    0 -0.30003657824E+01  0.38727871988E+02  0.86719052835E+01  0.39800153329E+02  0.51100000000E-03 0. -1.
        -11    1    3    3    0    0 -0.10097058936E+02 -0.21156094029E+01 -0.21783520466E+01  0.10543795341E+02  0.51100000000E-03 0.  1.
        -12    1    3    3    0    0  0.12105404959E+02 -0.37145769176E+02 -0.68460462469E+01  0.39663803980E+02  0.00000000000E+00 0.  1.
</event>
<event>
 7    1  0.2593256E-015  0.9000802E+02  0.7816164E-02  0.1186338E+00
        -11   -1    0    0    0    0  0.00000000000E+00  0.00000000000E+00  0.45593999997E+02  0.45594000000E+02  0.51100000000E-03 0. -1.
         11   -1    0    0    0    0 -0.00000000000E+00 -0.00000000000E+00 -0.45593999997E+02  0.45594000000E+02  0.51100000000E-03 0.  1.
    9900012    2    1    2    0    0  0.40382860686E+00  0.59015275452E+00  0.93861604577E+00  0.90008017840E+02  0.90000282875E+02 0.  0.
        -12    1    1    2    0    0 -0.40382860686E+00 -0.59015275452E+00 -0.93861604577E+00  0.11799821604E+01  0.00000000000E+00 0.  1.
         11    1    3    3    0    0  0.14990600944E+02 -0.11946413921E+02  0.32926268678E+02  0.38099528757E+02  0.51100000000E-03 0. -1.
        -11    1    3    3    0    0 -0.41034853418E+01  0.46615073137E+01  0.78263883468E+01  0.99910258333E+01  0.51100000000E-03 0.  1.
        -12    1    3    3    0    0 -0.10483286995E+02  0.78750593617E+01 -0.39814040979E+02  0.41917463249E+02  0.00000000000E+00 0.  1.
</event>
<event>
 7    1  0.2593256E-015  0.9000775E+02  0.7816164E-02  0.1186339E+00
        -11   -1    0    0    0    0  0.00000000000E+00  0.00000000000E+00  0.45593999997E+02  0.45594000000E+02  0.51100000000E-03 0.  1.
         11   -1    0    0    0    0 -0.00000000000E+00 -0.00000000000E+00 -0.45593999997E+02  0.45594000000E+02  0.51100000000E-03 0. -1.
    9900012    2    1    2    0    0  0.62728489165E+00  0.64674564029E+00  0.76238032074E+00  0.90007750021E+02  0.90000011522E+02 0.  0.
        -12    1    1    2    0    0 -0.62728489165E+00 -0.64674564029E+00 -0.76238032074E+00  0.11802499786E+01  0.00000000000E+00 0.  1.
         11    1    3    3    0    0  0.28408330579E+02 -0.15771818965E+02 -0.23875613050E+02  0.40321562699E+02  0.51100000000E-03 0. -1.
        -11    1    3    3    0    0 -0.38035910072E+01  0.20100266244E+01 -0.65211592176E+01  0.78123638794E+01  0.51100000000E-03 0.  1.
        -12    1    3    3    0    0 -0.23977454680E+02  0.14408537981E+02  0.31159152589E+02  0.41873823443E+02  0.00000000000E+00 0.  1.
</event>
<event>
 7    1  0.2593256E-015  0.9000775E+02  0.7816164E-02  0.1186339E+00
        -11   -1    0    0    0    0  0.00000000000E+00  0.00000000000E+00  0.45593999997E+02  0.45594000000E+02  0.51100000000E-03 0.  1.
         11   -1    0    0    0    0 -0.00000000000E+00 -0.00000000000E+00 -0.45593999997E+02  0.45594000000E+02  0.51100000000E-03 0. -1.
    9900012    2    1    2    0    0 -0.97139650987E+00 -0.32578679015E+00 -0.58587530814E+00  0.90007746600E+02  0.90000008055E+02 0.  0.
        -12    1    1    2    0    0  0.97139650987E+00  0.32578679015E+00  0.58587530814E+00  0.11802534002E+01  0.00000000000E+00 0.  1.
         11    1    3    3    0    0 -0.41536566560E+01  0.24490912762E+02 -0.37094092718E+02  0.44643357695E+02  0.51100000000E-03 0. -1.
        -11    1    3    3    0    0  0.35554026529E+01 -0.93419482251E+01  0.75426044041E+01  0.12522131054E+02  0.51100000000E-03 0.  1.
        -12    1    3    3    0    0 -0.37314250681E+00 -0.15474751327E+02  0.28965613005E+02  0.32842257851E+02  0.00000000000E+00 0.  1.
</event>
<event>
 7    1  0.2593256E-015  0.9000772E+02  0.7816164E-02  0.1186339E+00
        -11   -1    0    0    0    0  0.00000000000E+00  0.00000000000E+00  0.45593999997E+02  0.45594000000E+02  0.51100000000E-03 0.  1.
         11   -1    0    0    0    0 -0.00000000000E+00 -0.00000000000E+00 -0.45593999997E+02  0.45594000000E+02  0.51100000000E-03 0. -1.
    9900012    2    1    2    0    0  0.51896538027E+00 -0.74584527310E+00 -0.75329455673E+00  0.90007719132E+02  0.89999980225E+02 0.  0.
        -12    1    1    2    0    0 -0.51896538027E+00  0.74584527310E+00  0.75329455673E+00  0.11802808676E+01  0.00000000000E+00 0.  1.
         11    1    3    3    0    0 -0.11063196007E+02 -0.18832670143E+02  0.10975290242E+02  0.24444237905E+02  0.51100000000E-03 0. -1.
        -11    1    3    3    0    0 -0.79578296379E+01  0.34097417989E+02  0.48493599443E+01  0.35347945601E+02  0.51100000000E-03 0.  1.
         12    1    3    3    0    0  0.19539991025E+02 -0.16010593119E+02 -0.16577944743E+02  0.30215535626E+02  0.00000000000E+00 0. -1.
</event>
<event>
 7    1  0.2593256E-015  0.9000802E+02  0.7816164E-02  0.1186338E+00
        -11   -1    0    0    0    0  0.00000000000E+00  0.00000000000E+00  0.45593999997E+02  0.45594000000E+02  0.51100000000E-03 0. -1.
         11   -1    0    0    0    0 -0.00000000000E+00 -0.00000000000E+00 -0.45593999997E+02  0.45594000000E+02  0.51100000000E-03 0.  1.
    9900012    2    1    2    0    0  0.98603897919E+00  0.58243711834E+00 -0.28433453304E+00  0.90008020343E+02  0.90000285411E+02 0.  0.
        -12    1    1    2    0    0 -0.98603897919E+00 -0.58243711834E+00  0.28433453304E+00  0.11799796574E+01  0.00000000000E+00 0.  1.
         11    1    3    3    0    0  0.70809672789E+01  0.36107882667E+01 -0.28923295041E+01  0.84583367001E+01  0.51100000000E-03 0. -1.
        -11    1    3    3    0    0  0.17134573045E+02  0.31544361414E+02  0.13737584304E+02  0.38436461247E+02  0.51100000000E-03 0.  1.
         12    1    3    3    0    0 -0.23229501344E+02 -0.34572712562E+02 -0.11129589333E+02  0.43113222395E+02  0.00000000000E+00 0. -1.
</event>
<event>
 7    1  0.2593256E-015  0.9000775E+02  0.7816164E-02  0.1186339E+00
        -11   -1    0    0    0    0  0.00000000000E+00  0.00000000000E+00  0.45593999997E+02  0.45594000000E+02  0.51100000000E-03 0. -1.
         11   -1    0    0    0    0 -0.00000000000E+00 -0.00000000000E+00 -0.45593999997E+02  0.45594000000E+02  0.51100000000E-03 0.  1.
    9900012    2    1    2    0    0 -0.90946267021E+00 -0.75168799969E+00 -0.28844088644E-01  0.90007750374E+02  0.90000011879E+02 0.  0.
        -12    1    1    2    0    0  0.90946267021E+00  0.75168799969E+00  0.28844088644E-01  0.11802496256E+01  0.00000000000E+00 0.  1.
         11    1    3    3    0    0  0.60407986673E+01  0.71964161484E+01 -0.26750497073E+01  0.97691117875E+01  0.51100000000E-03 0. -1.
        -11    1    3    3    0    0 -0.97275434206E+01 -0.61557931802E+01 -0.37873492640E+02  0.39584344578E+02  0.51100000000E-03 0.  1.
         12    1    3    3    0    0  0.27772820831E+01 -0.17923109680E+01  0.40519698259E+02  0.40654294009E+02  0.00000000000E+00 0. -1.
</event>
<event>
 7    1  0.2593256E-015  0.9000783E+02  0.7816164E-02  0.1186339E+00
        -11   -1    0    0    0    0  0.00000000000E+00  0.00000000000E+00  0.45593999997E+02  0.45594000000E+02  0.51100000000E-03 0. -1.
         11   -1    0    0    0    0 -0.00000000000E+00 -0.00000000000E+00 -0.45593999997E+02  0.45594000000E+02  0.51100000000E-03 0.  1.
    9900012    2    1    2    0    0  0.20333666844E+00 -0.11365023232E+01  0.24455995182E+00  0.90007833528E+02  0.90000096131E+02 0.  0.
        -12    1    1    2    0    0 -0.20333666844E+00  0.11365023232E+01 -0.24455995182E+00  0.11801664719E+01  0.00000000000E+00 0.  1.
         11    1    3    3    0    0 -0.66438706536E+01 -0.49348752763E+01  0.53435349462E+01  0.98512627229E+01  0.51100000000E-03 0. -1.
        -11    1    3    3    0    0  0.37315064281E+01  0.36463044312E+02 -0.22506759326E+02  0.43011997818E+02  0.51100000000E-03 0.  1.
         12    1    3    3    0    0  0.31157008939E+01 -0.32664671359E+02  0.17407784332E+02  0.37144572987E+02  0.00000000000E+00 0. -1.
</event>
<event>
 7    1  0.2593256E-015  0.9000773E+02  0.7816164E-02  0.1186339E+00
        -11   -1    0    0    0    0  0.00000000000E+00  0.00000000000E+00  0.45593999997E+02  0.45594000000E+02  0.51100000000E-03 0.  1.
         11   -1    0    0    0    0 -0.00000000000E+00 -0.00000000000E+00 -0.45593999997E+02  0.45594000000E+02  0.51100000000E-03 0. -1.
    9900012    2    1    2    0    0  0.18298938090E-01 -0.11129963335E+01  0.39234433626E+00  0.90007733179E+02  0.89999994457E+02 0.  0.
        -12    1    1    2    0    0 -0.18298938090E-01  0.11129963335E+01 -0.39234433626E+00  0.11802668206E+01  0.00000000000E+00 0.  1.
         11    1    3    3    0    0  0.15242233553E+01 -0.34601092004E+01 -0.95286039323E+01  0.10251336775E+02  0.51100000000E-03 0. -1.
        -11    1    3    3    0    0  0.23388695479E+00  0.38344846166E+02  0.18700727159E+02  0.42662619788E+02  0.51100000000E-03 0.  1.
         12    1    3    3    0    0 -0.17398113720E+01 -0.35997733299E+02 -0.87797788904E+01  0.37093776617E+02  0.00000000000E+00 0. -1.
</event>
<event>
 7    1  0.2593256E-015  0.9000775E+02  0.7816164E-02  0.1186339E+00
        -11   -1    0    0    0    0  0.00000000000E+00  0.00000000000E+00  0.45593999997E+02  0.45594000000E+02  0.51100000000E-03 0.  1.
         11   -1    0    0    0    0 -0.00000000000E+00 -0.00000000000E+00 -0.45593999997E+02  0.45594000000E+02  0.51100000000E-03 0. -1.
    9900012    2    1    2    0    0 -0.40994605059E+00  0.56583602390E+00  0.95119264407E+00  0.90007748494E+02  0.90000009975E+02 0.  0.
        -12    1    1    2    0    0  0.40994605059E+00 -0.56583602390E+00 -0.95119264407E+00  0.11802515056E+01  0.00000000000E+00 0.  1.
         11    1    3    3    0    0 -0.76970442599E+01  0.41297810159E+02  0.76277034892E+01  0.42695848452E+02  0.51100000000E-03 0. -1.
        -11    1    3    3    0    0 -0.34096295152E+01 -0.46498193080E+01 -0.77531558096E+01  0.96621849649E+01  0.51100000000E-03 0.  1.
        -12    1    3    3    0    0  0.10696727724E+02 -0.36082154827E+02  0.10766449645E+01  0.37649715077E+02  0.00000000000E+00 0.  1.
</event>
<event>
 7    1  0.2593256E-015  0.9000776E+02  0.7816164E-02  0.1186339E+00
        -11   -1    0    0    0    0  0.00000000000E+00  0.00000000000E+00  0.45593999997E+02  0.45594000000E+02  0.51100000000E-03 0.  1.
         11   -1    0    0    0    0 -0.00000000000E+00 -0.00000000000E+00 -0.45593999997E+02  0.45594000000E+02  0.51100000000E-03 0. -1.
    9900012    2    1    2    0    0  0.55571335782E+00  0.10362607534E+01 -0.10149739847E+00  0.90007764682E+02  0.90000026375E+02 0.  0.
        -12    1    1    2    0    0 -0.55571335782E+00 -0.10362607534E+01  0.10149739847E+00  0.11802353184E+01  0.00000000000E+00 0.  1.
         11    1    3    3    0    0  0.50433494038E+01  0.91794009225E+01  0.23880806933E+00  0.10476344976E+02  0.51100000000E-03 0. -1.
        -11    1    3    3    0    0  0.16469392452E+02 -0.76326584594E+01  0.34434894056E+02  0.38926344444E+02  0.51100000000E-03 0.  1.
         12    1    3    3    0    0 -0.20957028498E+02 -0.51048170974E+00 -0.34775199524E+02  0.40605075261E+02  0.00000000000E+00 0. -1.
</event>
<event>
 7    1  0.2593256E-015  0.9000767E+02  0.7816164E-02  0.1186339E+00
        -11   -1    0    0    0    0  0.00000000000E+00  0.00000000000E+00  0.45593999997E+02  0.45594000000E+02  0.51100000000E-03 0. -1.
         11   -1    0    0    0    0 -0.00000000000E+00 -0.00000000000E+00 -0.45593999997E+02  0.45594000000E+02  0.51100000000E-03 0.  1.
    9900012    2    1    2    0    0 -0.46746281383E+00 -0.63071362372E+00  0.88140083566E+00  0.90007665899E+02  0.89999926289E+02 0.  0.
        -12    1    1    2    0    0  0.46746281383E+00  0.63071362372E+00 -0.88140083566E+00  0.11803341012E+01  0.00000000000E+00 0.  1.
         11    1    3    3    0    0  0.53728935301E+01 -0.45045273025E+01 -0.42239079252E+01  0.81853619057E+01  0.51100000000E-03 0. -1.
        -11    1    3    3    0    0  0.16890827750E+02  0.13428138108E+02 -0.31200268546E+02  0.37935098691E+02  0.51100000000E-03 0.  1.
         12    1    3    3    0    0 -0.22731184094E+02 -0.95543244291E+01  0.36305577307E+02  0.43887205302E+02  0.00000000000E+00 0. -1.
</event>
<event>
 7    1  0.2593256E-015  0.9000774E+02  0.7816164E-02  0.1186339E+00
        -11   -1    0    0    0    0  0.00000000000E+00  0.00000000000E+00  0.45593999997E+02  0.45594000000E+02  0.51100000000E-03 0. -1.
         11   -1    0    0    0    0 -0.00000000000E+00 -0.00000000000E+00 -0.45593999997E+02  0.45594000000E+02  0.51100000000E-03 0.  1.
    9900012    2    1    2    0    0  0.40841318239E+00 -0.41937646426E+00  0.10248553485E+01  0.90007743065E+02  0.90000004474E+02 0.  0.
        -12    1    1    2    0    0 -0.40841318239E+00  0.41937646426E+00 -0.10248553485E+01  0.11802569346E+01  0.00000000000E+00 0.  1.
         11    1    3    3    0    0  0.29659275904E+02  0.17079909949E+02  0.12062731123E+02  0.36289191965E+02  0.51100000000E-03 0. -1.
        -11    1    3    3    0    0 -0.36904707353E+01  0.76442194055E+01  0.92238037799E+01  0.12535239168E+02  0.51100000000E-03 0.  1.
        -12    1    3    3    0    0 -0.25560391986E+02 -0.25143505819E+02 -0.20261679555E+02  0.41183311933E+02  0.00000000000E+00 0.  1.
</event>
<event>
 7    1  0.2593256E-015  0.9000778E+02  0.7816164E-02  0.1186339E+00
        -11   -1    0    0    0    0  0.00000000000E+00  0.00000000000E+00  0.45593999997E+02  0.45594000000E+02  0.51100000000E-03 0. -1.
         11   -1    0    0    0    0 -0.00000000000E+00 -0.00000000000E+00 -0.45593999997E+02  0.45594000000E+02  0.51100000000E-03 0.  1.
    9900012    2    1    2    0    0 -0.75395723817E-01  0.53076368141E+00  0.10514372155E+01  0.90007781877E+02  0.90000043797E+02 0.  0.
        -12    1    1    2    0    0  0.75395723817E-01 -0.53076368141E+00 -0.10514372155E+01  0.11802181234E+01  0.00000000000E+00 0.  1.
         11    1    3    3    0    0 -0.15396077224E+02 -0.32162064434E+02  0.14696437316E+02  0.38567121394E+02  0.51100000000E-03 0. -1.
        -11    1    3    3    0    0  0.82707117917E+01 -0.59323588009E+01 -0.44872016984E+01  0.11123512657E+02  0.51100000000E-03 0.  1.
        -12    1    3    3    0    0  0.70499697085E+01  0.38625186917E+02 -0.91577984022E+01  0.40317147826E+02  0.00000000000E+00 0.  1.
</event>
<event>
 7    1  0.2593256E-015  0.9000771E+02  0.7816164E-02  0.1186339E+00
        -11   -1    0    0    0    0  0.00000000000E+00  0.00000000000E+00  0.45593999997E+02  0.45594000000E+02  0.51100000000E-03 0.  1.
         11   -1    0    0    0    0 -0.00000000000E+00 -0.00000000000E+00 -0.45593999997E+02  0.45594000000E+02  0.51100000000E-03 0. -1.
    9900012    2    1    2    0    0  0.10517033782E+01  0.52265026505E-01 -0.53317159567E+00  0.90007710383E+02  0.89999971360E+02 0.  0.
        -12    1    1    2    0    0 -0.10517033782E+01 -0.52265026505E-01  0.53317159567E+00  0.11802896166E+01  0.00000000000E+00 0.  1.
         11    1    3    3    0    0  0.34311429005E+01 -0.79209629521E+01  0.85495569676E+00  0.86744074839E+01  0.51100000000E-03 0. -1.
        -11    1    3    3    0    0  0.30026288148E+02  0.15627257817E+02  0.22242136979E+02  0.40503108825E+02  0.51100000000E-03 0.  1.
         12    1    3    3    0    0 -0.32405727671E+02 -0.76540298387E+01 -0.23630264271E+02  0.40830194074E+02  0.00000000000E+00 0. -1.
</event>
<event>
 7    1  0.2593256E-015  0.9000776E+02  0.7816164E-02  0.1186339E+00
        -11   -1    0    0    0    0  0.00000000000E+00  0.00000000000E+00  0.45593999997E+02  0.45594000000E+02  0.51100000000E-03 0.  1.
         11   -1    0    0    0    0 -0.00000000000E+00 -0.00000000000E+00 -0.45593999997E+02  0.45594000000E+02  0.51100000000E-03 0. -1.
    9900012    2    1    2    0    0 -0.17399495993E+00  0.60065532152E+00 -0.10009561642E+01  0.90007756676E+02  0.90000018264E+02 0.  0.
        -12    1    1    2    0    0  0.17399495993E+00 -0.60065532152E+00  0.10009561642E+01  0.11802433241E+01  0.00000000000E+00 0.  1.
         11    1    3    3    0    0 -0.18952155870E+01 -0.35125550480E+01 -0.62167872320E+01  0.73877147235E+01  0.51100000000E-03 0. -1.
        -11    1    3    3    0    0 -0.16790872284E+02  0.72882663458E+01  0.39496073744E+02  0.43531506519E+02  0.51100000000E-03 0.  1.
         12    1    3    3    0    0  0.18512092911E+02 -0.31750559763E+01 -0.34280242676E+02  0.39088535433E+02  0.00000000000E+00 0. -1.
</event>
<event>
 7    1  0.2593256E-015  0.9000782E+02  0.7816164E-02  0.1186339E+00
        -11   -1    0    0    0    0  0.00000000000E+00  0.00000000000E+00  0.45593999997E+02  0.45594000000E+02  0.51100000000E-03 0. -1.
         11   -1    0    0    0    0 -0.00000000000E+00 -0.00000000000E+00 -0.45593999997E+02  0.45594000000E+02  0.51100000000E-03 0.  1.
    9900012    2    1    2    0    0 -0.29799305709E+00  0.18558203994E+00  0.11267623040E+01  0.90007816182E+02  0.90000078555E+02 0.  0.
        -12    1    1    2    0    0  0.29799305709E+00 -0.18558203994E+00 -0.11267623040E+01  0.11801838185E+01  0.00000000000E+00 0.  1.
         11    1    3    3    0    0  0.17046776592E+01 -0.30554727125E+01 -0.79257678407E+01  0.86636964134E+01  0.51100000000E-03 0. -1.
        -11    1    3    3    0    0  0.24095105305E+02  0.27888939716E+02 -0.13154455776E+02  0.39133192627E+02  0.51100000000E-03 0.  1.
         12    1    3    3    0    0 -0.26097776021E+02 -0.24647884964E+02  0.22206985921E+02  0.42210927141E+02  0.00000000000E+00 0. -1.
</event>
<event>
 7    1  0.2593256E-015  0.9000774E+02  0.7816164E-02  0.1186339E+00
        -11   -1    0    0    0    0  0.00000000000E+00  0.00000000000E+00  0.45593999997E+02  0.45594000000E+02  0.51100000000E-03 0. -1.
         11   -1    0    0    0    0 -0.00000000000E+00 -0.00000000000E+00 -0.45593999997E+02  0.45594000000E+02  0.51100000000E-03 0.  1.
    9900012    2    1    2    0    0 -0.32581427066E+00  0.70598542808E+00  0.88794368035E+00  0.90007739714E+02  0.90000001078E+02 0.  0.
        -12    1    1    2    0    0  0.32581427066E+00 -0.70598542808E+00 -0.88794368035E+00  0.11802602862E+01  0.00000000000E+00 0.  1.
         11    1    3    3    0    0 -0.24811851906E+01 -0.65425639418E+00  0.10140150553E+02  0.10459779389E+02  0.51100000000E-03 0. -1.
        -11    1    3    3    0    0 -0.37523131030E+02  0.49119518077E+01  0.27472471739E+01  0.37942851766E+02  0.51100000000E-03 0.  1.
         12    1    3    3    0    0  0.39678501950E+02 -0.35517099854E+01 -0.11999454046E+02  0.41605108559E+02  0.00000000000E+00 0. -1.
</event>
<event>
 7    1  0.2593256E-015  0.9000776E+02  0.7816164E-02  0.1186339E+00
        -11   -1    0    0    0    0  0.00000000000E+00  0.00000000000E+00  0.45593999997E+02  0.45594000000E+02  0.51100000000E-03 0.  1.
         11   -1    0    0    0    0 -0.00000000000E+00 -0.00000000000E+00 -0.45593999997E+02  0.45594000000E+02  0.51100000000E-03 0. -1.
    9900012    2    1    2    0    0  0.88241569332E+00 -0.17038333982E-01 -0.78358842982E+00  0.90007763334E+02  0.90000025010E+02 0.  0.
        -12    1    1    2    0    0 -0.88241569332E+00  0.17038333982E-01  0.78358842982E+00  0.11802366661E+01  0.00000000000E+00 0.  1.
         11    1    3    3    0    0 -0.37147370745E+02  0.33534314295E+01 -0.42834867871E+01  0.37543586868E+02  0.51100000000E-03 0. -1.
        -11    1    3    3    0    0 -0.24458674107E+01  0.69168820754E+01 -0.61821941124E+01  0.95940111184E+01  0.51100000000E-03 0.  1.
        -12    1    3    3    0    0  0.40475653849E+02 -0.10287351839E+02  0.96820924697E+01  0.42870165348E+02  0.00000000000E+00 0.  1.
</event>
<event>
 7    1  0.2593256E-015  0.9000776E+02  0.7816164E-02  0.1186339E+00
        -11   -1    0    0    0    0  0.00000000000E+00  0.00000000000E+00  0.45593999997E+02  0.45594000000E+02  0.51100000000E-03 0.  1.
         11   -1    0    0    0    0 -0.00000000000E+00 -0.00000000000E+00 -0.45593999997E+02  0.45594000000E+02  0.51100000000E-03 0. -1.
    9900012    2    1    2    0    0 -0.72399386433E+00  0.45344078026E+00 -0.81437126726E+00  0.90007755865E+02  0.90000017443E+02 0.  0.
        -12    1    1    2    0    0  0.72399386433E+00 -0.45344078026E+00  0.81437126726E+00  0.11802441348E+01  0.00000000000E+00 0.  1.
         11    1    3    3    0    0  0.44007636272E+01  0.35812494465E+01  0.68043989449E+01  0.88595662062E+01  0.51100000000E-03 0. -1.
        -11    1    3    3    0    0  0.50591008530E+01  0.32860096322E+02 -0.23293631292E+02  0.40595242218E+02  0.51100000000E-03 0.  1.
         12    1    3    3    0    0 -0.10183858345E+02 -0.35987904989E+02  0.15674861080E+02  0.40552947441E+02  0.00000000000E+00 0. -1.
</event>
<event>
 7    1  0.2593256E-015  0.9000828E+02  0.7816164E-02  0.1186338E+00
        -11   -1    0    0    0    0  0.00000000000E+00  0.00000000000E+00  0.45593999997E+02  0.45594000000E+02  0.51100000000E-03 0.  1.
         11   -1    0    0    0    0 -0.00000000000E+00 -0.00000000000E+00 -0.45593999997E+02  0.45594000000E+02  0.51100000000E-03 0. -1.
    9900012    2    1    2    0    0 -0.10938819564E+00 -0.11117098839E+01 -0.37929837066E+00  0.90008283128E+02  0.90000551664E+02 0.  0.
        -12    1    1    2    0    0  0.10938819564E+00  0.11117098839E+01  0.37929837066E+00  0.11797168716E+01  0.00000000000E+00 0.  1.
         11    1    3    3    0    0  0.31603902912E+01  0.94051240125E-01  0.82456281709E+01  0.88310416499E+01  0.51100000000E-03 0. -1.
        -11    1    3    3    0    0  0.10501125727E+02  0.37805562622E+02 -0.63192053477E+01  0.39742503233E+02  0.51100000000E-03 0.  1.
         12    1    3    3    0    0 -0.13770904214E+02 -0.39011323746E+02 -0.23057211939E+01  0.41434738246E+02  0.00000000000E+00 0. -1.
</event>
<event>
 7    1  0.2593256E-015  0.9000768E+02  0.7816164E-02  0.1186339E+00
        -11   -1    0    0    0    0  0.00000000000E+00  0.00000000000E+00  0.45593999997E+02  0.45594000000E+02  0.51100000000E-03 0.  1.
         11   -1    0    0    0    0 -0.00000000000E+00 -0.00000000000E+00 -0.45593999997E+02  0.45594000000E+02  0.51100000000E-03 0. -1.
    9900012    2    1    2    0    0  0.19900978897E-01 -0.11216473634E+01 -0.36695613897E+00  0.90007684083E+02  0.89999944713E+02 0.  0.
        -12    1    1    2    0    0 -0.19900978897E-01  0.11216473634E+01  0.36695613897E+00  0.11803159173E+01  0.00000000000E+00 0.  1.
         11    1    3    3    0    0 -0.19024436037E+02  0.27699659743E+02 -0.13369267582E+02  0.36165420395E+02  0.51100000000E-03 0. -1.
        -11    1    3    3    0    0  0.17476570959E+01  0.95972124125E+01  0.20645532086E-01  0.97550611436E+01  0.51100000000E-03 0.  1.
        -12    1    3    3    0    0  0.17296679920E+02 -0.38418519519E+02  0.12981665910E+02  0.44087202544E+02  0.00000000000E+00 0.  1.
</event>
<event>
 7    1  0.2593256E-015  0.9000769E+02  0.7816164E-02  0.1186339E+00
        -11   -1    0    0    0    0  0.00000000000E+00  0.00000000000E+00  0.45593999997E+02  0.45594000000E+02  0.51100000000E-03 0.  1.
         11   -1    0    0    0    0 -0.00000000000E+00 -0.00000000000E+00 -0.45593999997E+02  0.45594000000E+02  0.51100000000E-03 0. -1.
    9900012    2    1    2    0    0 -0.62829435677E+00  0.96707554729E+00 -0.25128870986E+00  0.90007688631E+02  0.89999949321E+02 0.  0.
        -12    1    1    2    0    0  0.62829435677E+00 -0.96707554729E+00  0.25128870986E+00  0.11803113694E+01  0.00000000000E+00 0.  1.
         11    1    3    3    0    0 -0.42285837088E+01  0.26473683525E+02  0.12146089598E+02  0.29432368786E+02  0.51100000000E-03 0. -1.
        -11    1    3    3    0    0  0.19892301126E+02 -0.27866111058E+00 -0.21404722239E+02  0.29222310492E+02  0.51100000000E-03 0.  1.
         12    1    3    3    0    0 -0.16292011774E+02 -0.25227946867E+02  0.90073439315E+01  0.31353009353E+02  0.00000000000E+00 0. -1.
</event>
<event>
 7    1  0.2593256E-015  0.9000774E+02  0.7816164E-02  0.1186339E+00
        -11   -1    0    0    0    0  0.00000000000E+00  0.00000000000E+00  0.45593999997E+02  0.45594000000E+02  0.51100000000E-03 0.  1.
         11   -1    0    0    0    0 -0.00000000000E+00 -0.00000000000E+00 -0.45593999997E+02  0.45594000000E+02  0.51100000000E-03 0. -1.
    9900012    2    1    2    0    0 -0.31236024737E+00  0.11068413099E+01 -0.26523512920E+00  0.90007738892E+02  0.90000000245E+02 0.  0.
        -12    1    1    2    0    0  0.31236024737E+00 -0.11068413099E+01  0.26523512920E+00  0.11802611081E+01  0.00000000000E+00 0.  1.
         11    1    3    3    0    0 -0.13382944828E+00 -0.84497810528E+01 -0.28897704160E+01  0.89312643830E+01  0.51100000000E-03 0. -1.
        -11    1    3    3    0    0 -0.18287097503E+02 -0.23404012175E+02 -0.21259442636E+02  0.36525739177E+02  0.51100000000E-03 0.  1.
         12    1    3    3    0    0  0.18108566703E+02  0.32960634538E+02  0.23883977923E+02  0.44550735332E+02  0.00000000000E+00 0. -1.
</event>
<event>
 7    1  0.2593256E-015  0.9000771E+02  0.7816164E-02  0.1186339E+00
        -11   -1    0    0    0    0  0.00000000000E+00  0.00000000000E+00  0.45593999997E+02  0.45594000000E+02  0.51100000000E-03 0. -1.
         11   -1    0    0    0    0 -0.00000000000E+00 -0.00000000000E+00 -0.45593999997E+02  0.45594000000E+02  0.51100000000E-03 0.  1.
    9900012    2    1    2    0    0  0.46704440737E+00 -0.47346128682E+00  0.97508204760E+00  0.90007711447E+02  0.89999972438E+02 0.  0.
        -12    1    1    2    0    0 -0.46704440737E+00  0.47346128682E+00 -0.97508204760E+00  0.11802885529E+01  0.00000000000E+00 0.  1.
         11    1    3    3    0    0 -0.10925145134E+01 -0.85086672945E+01 -0.18436674446E+00  0.85805010604E+01  0.51100000000E-03 0. -1.
        -11    1    3    3    0    0 -0.18161170294E+01 -0.27714446496E+02 -0.24706437023E+02  0.37172528247E+02  0.51100000000E-03 0.  1.
         12    1    3    3    0    0  0.33756759502E+01  0.35749652504E+02  0.25865885815E+02  0.44254682139E+02  0.00000000000E+00 0. -1.
</event>
<event>
 7    1  0.2593256E-015  0.9000779E+02  0.7816164E-02  0.1186339E+00
        -11   -1    0    0    0    0  0.00000000000E+00  0.00000000000E+00  0.45593999997E+02  0.45594000000E+02  0.51100000000E-03 0.  1.
         11   -1    0    0    0    0 -0.00000000000E+00 -0.00000000000E+00 -0.45593999997E+02  0.45594000000E+02  0.51100000000E-03 0. -1.
    9900012    2    1    2    0    0  0.80348223402E-01 -0.81257569052E+00 -0.85215107557E+00  0.90007789618E+02  0.90000051641E+02 0.  0.
        -12    1    1    2    0    0 -0.80348223402E-01  0.81257569052E+00  0.85215107557E+00  0.11802103819E+01  0.00000000000E+00 0.  1.
         11    1    3    3    0    0 -0.38025590450E+02  0.59670524327E+01 -0.50726927688E+00  0.38494266667E+02  0.51100000000E-03 0. -1.
        -11    1    3    3    0    0 -0.12511069643E+01  0.67425643956E+01 -0.64962848600E+01  0.94461188066E+01  0.51100000000E-03 0.  1.
        -12    1    3    3    0    0  0.39357045638E+02 -0.13522192519E+02  0.61514030613E+01  0.42067404145E+02  0.00000000000E+00 0.  1.
</event>
<event>
 7    1  0.2593256E-015  0.9000779E+02  0.7816164E-02  0.1186339E+00
        -11   -1    0    0    0    0  0.00000000000E+00  0.00000000000E+00  0.45593999997E+02  0.45594000000E+02  0.51100000000E-03 0.  1.
         11   -1    0    0    0    0 -0.00000000000E+00 -0.00000000000E+00 -0.45593999997E+02  0.45594000000E+02  0.51100000000E-03 0. -1.
    9900012    2    1    2    0    0 -0.29220128195E+00 -0.11429498753E+01 -0.34422140911E-01  0.90007787777E+02  0.90000049776E+02 0.  0.
        -12    1    1    2    0    0  0.29220128195E+00  0.11429498753E+01  0.34422140911E-01  0.11802122226E+01  0.00000000000E+00 0.  1.
         11    1    3    3    0    0  0.11992152231E+02  0.82412559652E+01 -0.33044865301E+02  0.36106691042E+02  0.51100000000E-03 0. -1.
        -11    1    3    3    0    0  0.72708118891E+00 -0.62812701123E+01 -0.83256273605E+01  0.10454619672E+02  0.51100000000E-03 0.  1.
        -12    1    3    3    0    0 -0.13011434702E+02 -0.31029357282E+01  0.41336070520E+02  0.43446477063E+02  0.00000000000E+00 0.  1.
</event>
<event>
 7    1  0.2593256E-015  0.9000743E+02  0.7816164E-02  0.1186340E+00
        -11   -1    0    0    0    0  0.00000000000E+00  0.00000000000E+00  0.45593999997E+02  0.45594000000E+02  0.51100000000E-03 0. -1.
         11   -1    0    0    0    0 -0.00000000000E+00 -0.00000000000E+00 -0.45593999997E+02  0.45594000000E+02  0.51100000000E-03 0.  1.
    9900012    2    1    2    0    0 -0.92558113649E+00 -0.47182553929E+00 -0.56072704867E+00  0.90007434626E+02  0.89999691962E+02 0.  0.
        -12    1    1    2    0    0  0.92558113649E+00  0.47182553929E+00  0.56072704867E+00  0.11805653742E+01  0.00000000000E+00 0.  1.
         11    1    3    3    0    0 -0.91805986077E+01 -0.14553856569E+01 -0.50740432352E+00  0.93090814592E+01  0.51100000000E-03 0. -1.
        -11    1    3    3    0    0 -0.28117903842E+02 -0.22561670627E+01 -0.23994482370E+02  0.37032985171E+02  0.51100000000E-03 0.  1.
         12    1    3    3    0    0  0.36372921313E+02  0.32397271804E+01  0.23941159644E+02  0.43665367995E+02  0.00000000000E+00 0. -1.
</event>
<event>
 7    1  0.2613499E-015  0.9000770E+02  0.7816164E-02  0.1186339E+00
        -11   -1    0    0    0    0  0.00000000000E+00  0.00000000000E+00  0.45593999997E+02  0.45594000000E+02  0.51100000000E-03 0. -1.
         11   -1    0    0    0    0 -0.00000000000E+00 -0.00000000000E+00 -0.45593999997E+02  0.45594000000E+02  0.51100000000E-03 0.  1.
    9900012    2    1    2    0    0  0.10253231178E+01  0.58310433790E+00  0.42599310925E-01  0.90007697977E+02  0.89999958790E+02 0.  0.
        -12    1    1    2    0    0 -0.10253231178E+01 -0.58310433790E+00 -0.42599310925E-01  0.11803020232E+01  0.00000000000E+00 0.  1.
         11    1    3    3    0    0  0.11348346275E+02  0.20609527902E+02  0.28357152876E+02  0.36846515751E+02  0.51100000000E-03 0. -1.
        -11    1    3    3    0    0  0.67325471636E+01  0.77557752285E+01 -0.45759671042E+00  0.10280497834E+02  0.51100000000E-03 0.  1.
        -12    1    3    3    0    0 -0.17055570321E+02 -0.27782198792E+02 -0.27856956855E+02  0.42880684392E+02  0.00000000000E+00 0.  1.
</event>
<event>
 7    1  0.2593256E-015  0.9000764E+02  0.7816164E-02  0.1186339E+00
        -11   -1    0    0    0    0  0.00000000000E+00  0.00000000000E+00  0.45593999997E+02  0.45594000000E+02  0.51100000000E-03 0.  1.
         11   -1    0    0    0    0 -0.00000000000E+00 -0.00000000000E+00 -0.45593999997E+02  0.45594000000E+02  0.51100000000E-03 0. -1.
    9900012    2    1    2    0    0 -0.32176320372E+00  0.84934606390E-01 -0.11324729628E+01  0.90007643927E+02  0.89999904027E+02 0.  0.
        -12    1    1    2    0    0  0.32176320372E+00 -0.84934606390E-01  0.11324729628E+01  0.11803560726E+01  0.00000000000E+00 0.  1.
         11    1    3    3    0    0 -0.48812000027E+01 -0.32700751487E+02 -0.14474458348E+02  0.36092592121E+02  0.51100000000E-03 0. -1.
        -11    1    3    3    0    0  0.45802124831E+01 -0.68524869723E+01 -0.56188985182E+01  0.99753167827E+01  0.51100000000E-03 0.  1.
        -12    1    3    3    0    0 -0.20775684129E-01  0.39638173065E+02  0.18960883903E+02  0.43939735024E+02  0.00000000000E+00 0.  1.
</event>
<event>
 7    1  0.2593256E-015  0.9000773E+02  0.7816164E-02  0.1186339E+00
        -11   -1    0    0    0    0  0.00000000000E+00  0.00000000000E+00  0.45593999997E+02  0.45594000000E+02  0.51100000000E-03 0.  1.
         11   -1    0    0    0    0 -0.00000000000E+00 -0.00000000000E+00 -0.45593999997E+02  0.45594000000E+02  0.51100000000E-03 0. -1.
    9900012    2    1    2    0    0  0.39913516778E+00 -0.84381970826E+00 -0.72228542602E+00  0.90007730192E+02  0.89999991431E+02 0.  0.
        -12    1    1    2    0    0 -0.39913516778E+00  0.84381970826E+00  0.72228542602E+00  0.11802698077E+01  0.00000000000E+00 0.  1.
         11    1    3    3    0    0 -0.31409794496E+01 -0.35408733321E+02 -0.42267118460E+01  0.35798173704E+02  0.51100000000E-03 0. -1.
        -11    1    3    3    0    0 -0.42897752657E+01  0.89532613882E+01 -0.17536022579E+02  0.20151306396E+02  0.51100000000E-03 0.  1.
        -12    1    3    3    0    0  0.78298898831E+01  0.25611652224E+02  0.21040448999E+02  0.34058250092E+02  0.00000000000E+00 0.  1.
</event>
<event>
 7    1  0.2593256E-015  0.9000827E+02  0.7816164E-02  0.1186338E+00
        -11   -1    0    0    0    0  0.00000000000E+00  0.00000000000E+00  0.45593999997E+02  0.45594000000E+02  0.51100000000E-03 0. -1.
         11   -1    0    0    0    0 -0.00000000000E+00 -0.00000000000E+00 -0.45593999997E+02  0.45594000000E+02  0.51100000000E-03 0.  1.
    9900012    2    1    2    0    0 -0.51997109235E+00  0.10292496939E+01  0.24907301119E+00  0.90008270271E+02  0.90000538637E+02 0.  0.
        -12    1    1    2    0    0  0.51997109235E+00 -0.10292496939E+01 -0.24907301119E+00  0.11797297293E+01  0.00000000000E+00 0.  1.
         11    1    3    3    0    0  0.63549588564E+01 -0.79856905715E+00 -0.50833020652E+01  0.81769905682E+01  0.51100000000E-03 0. -1.
        -11    1    3    3    0    0  0.32123866747E+01  0.36011151684E+02 -0.16811557158E+02  0.39871680778E+02  0.51100000000E-03 0.  1.
         12    1    3    3    0    0 -0.10087316623E+02 -0.34183332933E+02  0.22143932234E+02  0.41959598924E+02  0.00000000000E+00 0. -1.
</event>
<event>
 7    1  0.2649529E-015  0.9000772E+02  0.7816164E-02  0.1186339E+00
        -11   -1    0    0    0    0  0.00000000000E+00  0.00000000000E+00  0.45593999997E+02  0.45594000000E+02  0.51100000000E-03 0.  1.
         11   -1    0    0    0    0 -0.00000000000E+00 -0.00000000000E+00 -0.45593999997E+02  0.45594000000E+02  0.51100000000E-03 0. -1.
    9900012    2    1    2    0    0  0.47324492753E+00 -0.97447154507E+00 -0.46850405011E+00  0.90007723931E+02  0.89999985087E+02 0.  0.
        -12    1    1    2    0    0 -0.47324492753E+00  0.97447154507E+00  0.46850405011E+00  0.11802760688E+01  0.00000000000E+00 0.  1.
         11    1    3    3    0    0  0.13841842336E+02 -0.24623497639E+02 -0.25090262240E+02  0.37781404087E+02  0.51100000000E-03 0. -1.
        -11    1    3    3    0    0  0.23532769402E+01  0.29597871721E+01 -0.89832809315E+01  0.97466706632E+01  0.51100000000E-03 0.  1.
        -12    1    3    3    0    0 -0.15721874349E+02  0.20689238922E+02  0.33605039122E+02  0.42479649181E+02  0.00000000000E+00 0.  1.
</event>
<event>
 7    1  0.2593256E-015  0.9000774E+02  0.7816164E-02  0.1186339E+00
        -11   -1    0    0    0    0  0.00000000000E+00  0.00000000000E+00  0.45593999997E+02  0.45594000000E+02  0.51100000000E-03 0.  1.
         11   -1    0    0    0    0 -0.00000000000E+00 -0.00000000000E+00 -0.45593999997E+02  0.45594000000E+02  0.51100000000E-03 0. -1.
    9900012    2    1    2    0    0 -0.18475251789E+00  0.24885269062E+00 -0.11388333776E+01  0.90007744682E+02  0.90000006111E+02 0.  0.
        -12    1    1    2    0    0  0.18475251789E+00 -0.24885269062E+00  0.11388333776E+01  0.11802553183E+01  0.00000000000E+00 0.  1.
         11    1    3    3    0    0 -0.24726523493E+02 -0.49805544577E+01 -0.24396597265E+02  0.35091321507E+02  0.51100000000E-03 0. -1.
        -11    1    3    3    0    0 -0.52282046717E+01 -0.79372766205E-01 -0.91830466160E+01  0.10567344488E+02  0.51100000000E-03 0.  1.
        -12    1    3    3    0    0  0.29769975646E+02  0.53087799145E+01  0.32440810504E+02  0.44349078686E+02  0.00000000000E+00 0.  1.
</event>
<event>
 7    1  0.2593256E-015  0.9000776E+02  0.7816164E-02  0.1186339E+00
        -11   -1    0    0    0    0  0.00000000000E+00  0.00000000000E+00  0.45593999997E+02  0.45594000000E+02  0.51100000000E-03 0.  1.
         11   -1    0    0    0    0 -0.00000000000E+00 -0.00000000000E+00 -0.45593999997E+02  0.45594000000E+02  0.51100000000E-03 0. -1.
    9900012    2    1    2    0    0 -0.41460783659E+00  0.25454893209E+00 -0.10752998163E+01  0.90007760824E+02  0.90000022467E+02 0.  0.
        -12    1    1    2    0    0  0.41460783659E+00 -0.25454893209E+00  0.10752998163E+01  0.11802391758E+01  0.00000000000E+00 0.  1.
         11    1    3    3    0    0  0.32414548848E+02 -0.56399076685E+01 -0.23505121024E+02  0.40435161062E+02  0.51100000000E-03 0. -1.
        -11    1    3    3    0    0 -0.63278614464E+01 -0.77466531784E+01 -0.29461806786E+01  0.10427485162E+02  0.51100000000E-03 0.  1.
        -12    1    3    3    0    0 -0.26501295238E+02  0.13641109779E+02  0.25376001887E+02  0.39145114600E+02  0.00000000000E+00 0.  1.
</event>
<event>
 7    1  0.2593256E-015  0.9000772E+02  0.7816164E-02  0.1186339E+00
        -11   -1    0    0    0    0  0.00000000000E+00  0.00000000000E+00  0.45593999997E+02  0.45594000000E+02  0.51100000000E-03 0.  1.
         11   -1    0    0    0    0 -0.00000000000E+00 -0.00000000000E+00 -0.45593999997E+02  0.45594000000E+02  0.51100000000E-03 0. -1.
    9900012    2    1    2    0    0  0.30393037405E+00 -0.64930136695E+00  0.93759437520E+00  0.90007724969E+02  0.89999986138E+02 0.  0.
        -12    1    1    2    0    0 -0.30393037405E+00  0.64930136695E+00 -0.93759437520E+00  0.11802750314E+01  0.00000000000E+00 0.  1.
         11    1    3    3    0    0 -0.18174594512E+02  0.48331284203E+01 -0.31061154188E+02  0.36310746560E+02  0.51100000000E-03 0. -1.
        -11    1    3    3    0    0 -0.97535617229E+01  0.42228607718E+01  0.10243609365E+01  0.10677726114E+02  0.51100000000E-03 0.  1.
        -12    1    3    3    0    0  0.28232086609E+02 -0.97052905591E+01  0.30974387626E+02  0.43019252294E+02  0.00000000000E+00 0.  1.
</event>
<event>
 7    1  0.2593256E-015  0.9000771E+02  0.7816164E-02  0.1186339E+00
        -11   -1    0    0    0    0  0.00000000000E+00  0.00000000000E+00  0.45593999997E+02  0.45594000000E+02  0.51100000000E-03 0.  1.
         11   -1    0    0    0    0 -0.00000000000E+00 -0.00000000000E+00 -0.45593999997E+02  0.45594000000E+02  0.51100000000E-03 0. -1.
    9900012    2    1    2    0    0 -0.20342710229E+00 -0.55736682179E+00 -0.10203154055E+01  0.90007710253E+02  0.89999971228E+02 0.  0.
        -12    1    1    2    0    0  0.20342710229E+00  0.55736682179E+00  0.10203154055E+01  0.11802897469E+01  0.00000000000E+00 0.  1.
         11    1    3    3    0    0  0.76802630444E+01 -0.38287252974E+01 -0.50071827752E+01  0.99356659284E+01  0.51100000000E-03 0. -1.
        -11    1    3    3    0    0  0.25823648485E+01  0.20223473504E+02  0.36576755867E+02  0.41875011150E+02  0.51100000000E-03 0.  1.
         12    1    3    3    0    0 -0.10466054995E+02 -0.16952115028E+02 -0.32589888498E+02  0.38197033175E+02  0.00000000000E+00 0. -1.
</event>
<event>
 7    1  0.2593256E-015  0.9000781E+02  0.7816164E-02  0.1186339E+00
        -11   -1    0    0    0    0  0.00000000000E+00  0.00000000000E+00  0.45593999997E+02  0.45594000000E+02  0.51100000000E-03 0.  1.
         11   -1    0    0    0    0 -0.00000000000E+00 -0.00000000000E+00 -0.45593999997E+02  0.45594000000E+02  0.51100000000E-03 0. -1.
    9900012    2    1    2    0    0  0.74599290606E+00  0.90969605863E+00  0.93743925709E-01  0.90007813464E+02  0.90000075802E+02 0.  0.
        -12    1    1    2    0    0 -0.74599290606E+00 -0.90969605863E+00 -0.93743925709E-01  0.11801865355E+01  0.00000000000E+00 0.  1.
         11    1    3    3    0    0 -0.12406760912E+02  0.38490093662E+02 -0.15250201258E+02  0.43220176597E+02  0.51100000000E-03 0. -1.
        -11    1    3    3    0    0 -0.48990854267E+01 -0.57332555837E+01  0.34812655177E+01  0.83060500523E+01  0.51100000000E-03 0.  1.
        -12    1    3    3    0    0  0.18051839244E+02 -0.31847142020E+02  0.11862679666E+02  0.38481586815E+02  0.00000000000E+00 0.  1.
</event>
<event>
 7    1  0.2593256E-015  0.9000731E+02  0.7816164E-02  0.1186340E+00
        -11   -1    0    0    0    0  0.00000000000E+00  0.00000000000E+00  0.45593999997E+02  0.45594000000E+02  0.51100000000E-03 0.  1.
         11   -1    0    0    0    0 -0.00000000000E+00 -0.00000000000E+00 -0.45593999997E+02  0.45594000000E+02  0.51100000000E-03 0. -1.
    9900012    2    1    2    0    0  0.35962666023E+00  0.10776876973E+01 -0.32139960474E+00  0.90007305368E+02  0.89999560998E+02 0.  0.
        -12    1    1    2    0    0 -0.35962666023E+00 -0.10776876973E+01  0.32139960474E+00  0.11806946318E+01  0.00000000000E+00 0.  1.
         11    1    3    3    0    0  0.57048372781E+01  0.19386126008E+02 -0.28595904779E+02  0.35015608240E+02  0.51100000000E-03 0. -1.
        -11    1    3    3    0    0  0.85952842291E+01  0.34720464677E+01 -0.67412550598E+01  0.11462047709E+02  0.51100000000E-03 0.  1.
        -12    1    3    3    0    0 -0.13940494847E+02 -0.21780484779E+02  0.35015760234E+02  0.43529649419E+02  0.00000000000E+00 0.  1.
</event>
<event>
 7    1  0.2593256E-015  0.9000773E+02  0.7816164E-02  0.1186339E+00
        -11   -1    0    0    0    0  0.00000000000E+00  0.00000000000E+00  0.45593999997E+02  0.45594000000E+02  0.51100000000E-03 0. -1.
         11   -1    0    0    0    0 -0.00000000000E+00 -0.00000000000E+00 -0.45593999997E+02  0.45594000000E+02  0.51100000000E-03 0.  1.
    9900012    2    1    2    0    0  0.11261447036E+01  0.23154899166E+00 -0.26687618570E+00  0.90007728960E+02  0.89999990182E+02 0.  0.
        -12    1    1    2    0    0 -0.11261447036E+01 -0.23154899166E+00  0.26687618570E+00  0.11802710399E+01  0.00000000000E+00 0.  1.
         11    1    3    3    0    0 -0.25426391650E+02 -0.25005771263E+02  0.11323650940E+02  0.37416775110E+02  0.51100000000E-03 0. -1.
        -11    1    3    3    0    0 -0.84987166146E+01  0.10470742223E+01 -0.34490939855E+01  0.92315111496E+01  0.51100000000E-03 0.  1.
        -12    1    3    3    0    0  0.35051252968E+02  0.24190246032E+02 -0.81414331398E+01  0.43359442700E+02  0.00000000000E+00 0.  1.
</event>
<event>
 7    1  0.2593256E-015  0.9000775E+02  0.7816164E-02  0.1186339E+00
        -11   -1    0    0    0    0  0.00000000000E+00  0.00000000000E+00  0.45593999997E+02  0.45594000000E+02  0.51100000000E-03 0. -1.
         11   -1    0    0    0    0 -0.00000000000E+00 -0.00000000000E+00 -0.45593999997E+02  0.45594000000E+02  0.51100000000E-03 0.  1.
    9900012    2    1    2    0    0 -0.31210329454E+00  0.73976713051E+00  0.86506152837E+00  0.90007747772E+02  0.90000009243E+02 0.  0.
        -12    1    1    2    0    0  0.31210329454E+00 -0.73976713051E+00 -0.86506152837E+00  0.11802522280E+01  0.00000000000E+00 0.  1.
         11    1    3    3    0    0  0.77303523463E+01  0.46298636816E+01 -0.21139840087E+01  0.92554261791E+01  0.51100000000E-03 0. -1.
        -11    1    3    3    0    0  0.34145755793E+02 -0.14566571448E+02  0.28729356219E+01  0.37234008672E+02  0.51100000000E-03 0.  1.
         12    1    3    3    0    0 -0.42188211434E+02  0.10676474897E+02  0.10610991512E+00  0.43518312921E+02  0.00000000000E+00 0. -1.
</event>
<event>
 7    1  0.2593256E-015  0.9000781E+02  0.7816164E-02  0.1186339E+00
        -11   -1    0    0    0    0  0.00000000000E+00  0.00000000000E+00  0.45593999997E+02  0.45594000000E+02  0.51100000000E-03 0. -1.
         11   -1    0    0    0    0 -0.00000000000E+00 -0.00000000000E+00 -0.45593999997E+02  0.45594000000E+02  0.51100000000E-03 0.  1.
    9900012    2    1    2    0    0 -0.29603147188E-01 -0.28491386969E+00  0.11449031595E+01  0.90007807006E+02  0.90000069258E+02 0.  0.
        -12    1    1    2    0    0  0.29603147188E-01  0.28491386969E+00 -0.11449031595E+01  0.11801929945E+01  0.00000000000E+00 0.  1.
         11    1    3    3    0    0  0.19067876027E+01 -0.58245298874E+01 -0.65933766577E+01  0.90018666610E+01  0.51100000000E-03 0. -1.
        -11    1    3    3    0    0  0.16985800817E+02 -0.31975515263E+02  0.13404147481E+02  0.38608576452E+02  0.51100000000E-03 0.  1.
         12    1    3    3    0    0 -0.18922191567E+02  0.37515131280E+02 -0.56658676637E+01  0.42397363893E+02  0.00000000000E+00 0. -1.
</event>
<event>
 7    1  0.2593256E-015  0.9000794E+02  0.7816164E-02  0.1186339E+00
        -11   -1    0    0    0    0  0.00000000000E+00  0.00000000000E+00  0.45593999997E+02  0.45594000000E+02  0.51100000000E-03 0. -1.
         11   -1    0    0    0    0 -0.00000000000E+00 -0.00000000000E+00 -0.45593999997E+02  0.45594000000E+02  0.51100000000E-03 0.  1.
    9900012    2    1    2    0    0  0.13898259589E+00 -0.11521574205E+01 -0.21393329986E+00  0.90007936298E+02  0.90000200257E+02 0.  0.
        -12    1    1    2    0    0 -0.13898259589E+00  0.11521574205E+01  0.21393329986E+00  0.11800637018E+01  0.00000000000E+00 0.  1.
         11    1    3    3    0    0  0.29723668643E+01  0.13283602597E+01 -0.91970191137E+01  0.97562629420E+01  0.51100000000E-03 0. -1.
        -11    1    3    3    0    0 -0.30404185616E+02 -0.16263097413E+02 -0.18345814466E+02  0.39057288041E+02  0.51100000000E-03 0.  1.
         12    1    3    3    0    0  0.27570801347E+02  0.13782579733E+02  0.27328900280E+02  0.41194385315E+02  0.00000000000E+00 0. -1.
</event>
<event>
 7    1  0.2593256E-015  0.9000773E+02  0.7816164E-02  0.1186339E+00
        -11   -1    0    0    0    0  0.00000000000E+00  0.00000000000E+00  0.45593999997E+02  0.45594000000E+02  0.51100000000E-03 0.  1.
         11   -1    0    0    0    0 -0.00000000000E+00 -0.00000000000E+00 -0.45593999997E+02  0.45594000000E+02  0.51100000000E-03 0. -1.
    9900012    2    1    2    0    0  0.50320440015E+00  0.25533641008E+00 -0.10366401188E+01  0.90007731350E+02  0.89999992604E+02 0.  0.
        -12    1    1    2    0    0 -0.50320440015E+00 -0.25533641008E+00  0.10366401188E+01  0.11802686502E+01  0.00000000000E+00 0.  1.
         11    1    3    3    0    0  0.52055157896E+01 -0.62591403436E+01  0.67022706533E+01  0.10544888081E+02  0.51100000000E-03 0. -1.
        -11    1    3    3    0    0  0.31440409749E+02  0.22127765810E+02 -0.10909571861E+02  0.39964435982E+02  0.51100000000E-03 0.  1.
         12    1    3    3    0    0 -0.36142721139E+02 -0.15613289056E+02  0.31706610884E+01  0.39498407287E+02  0.00000000000E+00 0. -1.
</event>
<event>
 7    1  0.2593256E-015  0.9000772E+02  0.7816164E-02  0.1186339E+00
        -11   -1    0    0    0    0  0.00000000000E+00  0.00000000000E+00  0.45593999997E+02  0.45594000000E+02  0.51100000000E-03 0. -1.
         11   -1    0    0    0    0 -0.00000000000E+00 -0.00000000000E+00 -0.45593999997E+02  0.45594000000E+02  0.51100000000E-03 0.  1.
    9900012    2    1    2    0    0 -0.29860815772E+00  0.63575847736E+00  0.94852272938E+00  0.90007724167E+02  0.89999985326E+02 0.  0.
        -12    1    1    2    0    0  0.29860815772E+00 -0.63575847736E+00 -0.94852272938E+00  0.11802758328E+01  0.00000000000E+00 0.  1.
         11    1    3    3    0    0 -0.36181645055E+02 -0.78389858557E+01  0.12452347051E+02  0.39059212555E+02  0.51100000000E-03 0. -1.
        -11    1    3    3    0    0  0.74799303769E+01 -0.44279435062E+01  0.98551820651E+01  0.13140801191E+02  0.51100000000E-03 0.  1.
        -12    1    3    3    0    0  0.28403106520E+02  0.12902687839E+02 -0.21359006386E+02  0.37807710421E+02  0.00000000000E+00 0.  1.
</event>
<event>
 7    1  0.2593256E-015  0.9000770E+02  0.7816164E-02  0.1186339E+00
        -11   -1    0    0    0    0  0.00000000000E+00  0.00000000000E+00  0.45593999997E+02  0.45594000000E+02  0.51100000000E-03 0. -1.
         11   -1    0    0    0    0 -0.00000000000E+00 -0.00000000000E+00 -0.45593999997E+02  0.45594000000E+02  0.51100000000E-03 0.  1.
    9900012    2    1    2    0    0 -0.73681127861E+00 -0.47662514273E+00  0.78933357288E+00  0.90007699243E+02  0.89999960073E+02 0.  0.
        -12    1    1    2    0    0  0.73681127861E+00  0.47662514273E+00 -0.78933357288E+00  0.11803007567E+01  0.00000000000E+00 0.  1.
         11    1    3    3    0    0 -0.40507625440E+01  0.17880100262E+01 -0.77146718717E+01  0.88950446536E+01  0.51100000000E-03 0. -1.
        -11    1    3    3    0    0  0.34097735265E+02  0.22667595223E+02  0.22341721114E+01  0.41005694101E+02  0.51100000000E-03 0.  1.
         12    1    3    3    0    0 -0.30783784000E+02 -0.24932230392E+02  0.62698333331E+01  0.40106960489E+02  0.00000000000E+00 0. -1.
</event>
<event>
 7    1  0.2593256E-015  0.9000740E+02  0.7816164E-02  0.1186340E+00
        -11   -1    0    0    0    0  0.00000000000E+00  0.00000000000E+00  0.45593999997E+02  0.45594000000E+02  0.51100000000E-03 0. -1.
         11   -1    0    0    0    0 -0.00000000000E+00 -0.00000000000E+00 -0.45593999997E+02  0.45594000000E+02  0.51100000000E-03 0.  1.
    9900012    2    1    2    0    0 -0.11041326896E+01  0.33309221589E+00  0.25248991825E+00  0.90007402448E+02  0.89999659360E+02 0.  0.
        -12    1    1    2    0    0  0.11041326896E+01 -0.33309221589E+00 -0.25248991825E+00  0.11805975519E+01  0.00000000000E+00 0.  1.
         11    1    3    3    0    0  0.10928149381E+02  0.19842454632E+02 -0.12813397190E+02  0.26025575931E+02  0.51100000000E-03 0. -1.
        -11    1    3    3    0    0  0.71311155081E+01  0.14879304701E+02  0.17869519872E+02  0.24322135134E+02  0.51100000000E-03 0.  1.
        -12    1    3    3    0    0 -0.19163397579E+02 -0.34388667117E+02 -0.48036327629E+01  0.39659691383E+02  0.00000000000E+00 0.  1.
</event>
<event>
 7    1  0.2593256E-015  0.9000778E+02  0.7816164E-02  0.1186339E+00
        -11   -1    0    0    0    0  0.00000000000E+00  0.00000000000E+00  0.45593999997E+02  0.45594000000E+02  0.51100000000E-03 0.  1.
         11   -1    0    0    0    0 -0.00000000000E+00 -0.00000000000E+00 -0.45593999997E+02  0.45594000000E+02  0.51100000000E-03 0. -1.
    9900012    2    1    2    0    0 -0.78274462963E+00 -0.33219634365E+00 -0.81845742680E+00  0.90007781323E+02  0.90000043237E+02 0.  0.
        -12    1    1    2    0    0  0.78274462963E+00  0.33219634365E+00  0.81845742680E+00  0.11802186769E+01  0.00000000000E+00 0.  1.
         11    1    3    3    0    0  0.65742337195E+01  0.68514589062E+01 -0.94282997839E+00  0.95421154243E+01  0.51100000000E-03 0. -1.
        -11    1    3    3    0    0  0.20312330219E+02 -0.17712799661E+02  0.28664158753E+02  0.39344224836E+02  0.51100000000E-03 0.  1.
         12    1    3    3    0    0 -0.27669308568E+02  0.10529144411E+02 -0.28539786201E+02  0.41121441062E+02  0.00000000000E+00 0. -1.
</event>
<event>
 7    1  0.2593256E-015  0.9000797E+02  0.7816164E-02  0.1186339E+00
        -11   -1    0    0    0    0  0.00000000000E+00  0.00000000000E+00  0.45593999997E+02  0.45594000000E+02  0.51100000000E-03 0.  1.
         11   -1    0    0    0    0 -0.00000000000E+00 -0.00000000000E+00 -0.45593999997E+02  0.45594000000E+02  0.51100000000E-03 0. -1.
    9900012    2    1    2    0    0  0.52877640061E+00 -0.12757082282E+00 -0.10471883902E+01  0.90007965119E+02  0.90000229458E+02 0.  0.
        -12    1    1    2    0    0 -0.52877640061E+00  0.12757082282E+00  0.10471883902E+01  0.11800348814E+01  0.00000000000E+00 0.  1.
         11    1    3    3    0    0 -0.12243471786E+02 -0.20782647482E+02  0.68058971214E+01  0.25062746729E+02  0.51100000000E-03 0. -1.
        -11    1    3    3    0    0 -0.92102492009E+01  0.11173024568E+02  0.22210740122E+02  0.26513810465E+02  0.51100000000E-03 0.  1.
         12    1    3    3    0    0  0.21982497388E+02  0.94820520915E+01 -0.30063825634E+02  0.38431407924E+02  0.00000000000E+00 0. -1.
</event>
<event>
 7    1  0.2593256E-015  0.9000776E+02  0.7816164E-02  0.1186339E+00
        -11   -1    0    0    0    0  0.00000000000E+00  0.00000000000E+00  0.45593999997E+02  0.45594000000E+02  0.51100000000E-03 0.  1.
         11   -1    0    0    0    0 -0.00000000000E+00 -0.00000000000E+00 -0.45593999997E+02  0.45594000000E+02  0.51100000000E-03 0. -1.
    9900012    2    1    2    0    0  0.33391665279E+00 -0.73556654719E+00 -0.86047192452E+00  0.90007758326E+02  0.90000019936E+02 0.  0.
        -12    1    1    2    0    0 -0.33391665279E+00  0.73556654719E+00  0.86047192452E+00  0.11802416741E+01  0.00000000000E+00 0.  1.
         11    1    3    3    0    0 -0.20396782847E+02 -0.57673790989E+01 -0.40320111401E+01  0.21576573552E+02  0.51100000000E-03 0. -1.
        -11    1    3    3    0    0 -0.10823627820E+02 -0.22059410072E+02 -0.71309412745E+01  0.25585519648E+02  0.51100000000E-03 0.  1.
        -12    1    3    3    0    0  0.31554327319E+02  0.27091222624E+02  0.10302480490E+02  0.42845665126E+02  0.00000000000E+00 0.  1.
</event>
<event>
 7    1  0.2593256E-015  0.9000773E+02  0.7816164E-02  0.1186339E+00
        -11   -1    0    0    0    0  0.00000000000E+00  0.00000000000E+00  0.45593999997E+02  0.45594000000E+02  0.51100000000E-03 0.  1.
         11   -1    0    0    0    0 -0.00000000000E+00 -0.00000000000E+00 -0.45593999997E+02  0.45594000000E+02  0.51100000000E-03 0. -1.
    9900012    2    1    2    0    0 -0.69704209100E+00  0.38666380495E+00 -0.87043842327E+00  0.90007729004E+02  0.89999990227E+02 0.  0.
        -12    1    1    2    0    0  0.69704209100E+00 -0.38666380495E+00  0.87043842327E+00  0.11802709957E+01  0.00000000000E+00 0.  1.
         11    1    3    3    0    0  0.75368313455E+01  0.60864106327E+01  0.14164994122E+01  0.97905409435E+01  0.51100000000E-03 0. -1.
        -11    1    3    3    0    0  0.16754264573E+02  0.64366178119E+01  0.31635144406E+02  0.36371936876E+02  0.51100000000E-03 0.  1.
         12    1    3    3    0    0 -0.24988138010E+02 -0.12136364640E+02 -0.33922082242E+02  0.43845251185E+02  0.00000000000E+00 0. -1.
</event>
<event>
 7    1  0.2593256E-015  0.9000762E+02  0.7816164E-02  0.1186339E+00
        -11   -1    0    0    0    0  0.00000000000E+00  0.00000000000E+00  0.45593999997E+02  0.45594000000E+02  0.51100000000E-03 0.  1.
         11   -1    0    0    0    0 -0.00000000000E+00 -0.00000000000E+00 -0.45593999997E+02  0.45594000000E+02  0.51100000000E-03 0. -1.
    9900012    2    1    2    0    0 -0.11273984618E+01 -0.18876959714E+00 -0.29433493740E+00  0.90007621117E+02  0.89999880915E+02 0.  0.
        -12    1    1    2    0    0  0.11273984618E+01  0.18876959714E+00  0.29433493740E+00  0.11803788832E+01  0.00000000000E+00 0.  1.
         11    1    3    3    0    0 -0.21786747775E+02 -0.19799445633E-01 -0.27878029131E+02  0.35381453886E+02  0.51100000000E-03 0. -1.
        -11    1    3    3    0    0 -0.95881353761E+01 -0.67823062430E+01 -0.18701264513E+01  0.11892408972E+02  0.51100000000E-03 0.  1.
        -12    1    3    3    0    0  0.30247484689E+02  0.66133360915E+01  0.29453820645E+02  0.42733758258E+02  0.00000000000E+00 0.  1.
</event>
<event>
 7    1  0.2593256E-015  0.9000769E+02  0.7816164E-02  0.1186339E+00
        -11   -1    0    0    0    0  0.00000000000E+00  0.00000000000E+00  0.45593999997E+02  0.45594000000E+02  0.51100000000E-03 0. -1.
         11   -1    0    0    0    0 -0.00000000000E+00 -0.00000000000E+00 -0.45593999997E+02  0.45594000000E+02  0.51100000000E-03 0.  1.
    9900012    2    1    2    0    0 -0.11585526646E+01  0.84648435460E-01  0.20908151013E+00  0.90007692959E+02  0.89999953706E+02 0.  0.
        -12    1    1    2    0    0  0.11585526646E+01 -0.84648435460E-01 -0.20908151013E+00  0.11803070415E+01  0.00000000000E+00 0.  1.
         11    1    3    3    0    0 -0.67181998866E+00  0.80768397967E+01 -0.88777919825E+01  0.12020893226E+02  0.51100000000E-03 0. -1.
        -11    1    3    3    0    0  0.54573871453E+00 -0.12983337487E+02 -0.33065532148E+02  0.35527373946E+02  0.51100000000E-03 0.  1.
         12    1    3    3    0    0 -0.10324713905E+01  0.49911461255E+01  0.42152405641E+02  0.42459425786E+02  0.00000000000E+00 0. -1.
</event>
<event>
 7    1  0.2593256E-015  0.9000772E+02  0.7816164E-02  0.1186339E+00
        -11   -1    0    0    0    0  0.00000000000E+00  0.00000000000E+00  0.45593999997E+02  0.45594000000E+02  0.51100000000E-03 0.  1.
         11   -1    0    0    0    0 -0.00000000000E+00 -0.00000000000E+00 -0.45593999997E+02  0.45594000000E+02  0.51100000000E-03 0. -1.
    9900012    2    1    2    0    0  0.98118368872E+00  0.64053119917E+00  0.14163670038E+00  0.90007719269E+02  0.89999980364E+02 0.  0.
        -12    1    1    2    0    0 -0.98118368872E+00 -0.64053119917E+00 -0.14163670038E+00  0.11802807306E+01  0.00000000000E+00 0.  1.
         11    1    3    3    0    0 -0.10376539816E+02 -0.14493142706E+01 -0.56130298196E+01  0.11886092479E+02  0.51100000000E-03 0. -1.
        -11    1    3    3    0    0  0.13450829576E+02 -0.32985257097E+02  0.19238881237E+02  0.40485633916E+02  0.51100000000E-03 0.  1.
         12    1    3    3    0    0 -0.20931060714E+01  0.35075102567E+02 -0.13484214717E+02  0.37635992875E+02  0.00000000000E+00 0. -1.
</event>
<event>
 7    1  0.2593256E-015  0.9000781E+02  0.7816164E-02  0.1186339E+00
        -11   -1    0    0    0    0  0.00000000000E+00  0.00000000000E+00  0.45593999997E+02  0.45594000000E+02  0.51100000000E-03 0. -1.
         11   -1    0    0    0    0 -0.00000000000E+00 -0.00000000000E+00 -0.45593999997E+02  0.45594000000E+02  0.51100000000E-03 0.  1.
    9900012    2    1    2    0    0  0.13168353277E+00 -0.30155857491E+00  0.11333921044E+01  0.90007806885E+02  0.90000069136E+02 0.  0.
        -12    1    1    2    0    0 -0.13168353277E+00  0.30155857491E+00 -0.11333921044E+01  0.11801931152E+01  0.00000000000E+00 0.  1.
         11    1    3    3    0    0  0.15600178830E+02 -0.12418241186E+02  0.33378234221E+02  0.38880391120E+02  0.51100000000E-03 0. -1.
        -11    1    3    3    0    0  0.48359014434E+01  0.24208667399E+01  0.51611413388E+01  0.74755547435E+01  0.51100000000E-03 0.  1.
        -12    1    3    3    0    0 -0.20304396741E+02  0.96958158708E+01 -0.37405983455E+02  0.43651861022E+02  0.00000000000E+00 0.  1.
</event>
<event>
 7    1  0.2593256E-015  0.9000754E+02  0.7816164E-02  0.1186339E+00
        -11   -1    0    0    0    0  0.00000000000E+00  0.00000000000E+00  0.45593999997E+02  0.45594000000E+02  0.51100000000E-03 0.  1.
         11   -1    0    0    0    0 -0.00000000000E+00 -0.00000000000E+00 -0.45593999997E+02  0.45594000000E+02  0.51100000000E-03 0. -1.
    9900012    2    1    2    0    0 -0.73801445197E+00 -0.88789326690E+00 -0.24587696407E+00  0.90007544467E+02  0.89999803253E+02 0.  0.
        -12    1    1    2    0    0  0.73801445197E+00  0.88789326690E+00  0.24587696407E+00  0.11804555333E+01  0.00000000000E+00 0.  1.
         11    1    3    3    0    0 -0.15942520845E+00  0.54111097843E+01 -0.10694307480E+01  0.55180800901E+01  0.51100000000E-03 0. -1.
        -11    1    3    3    0    0  0.25506975323E+02  0.25667348556E+02 -0.16463775143E+02  0.39755181603E+02  0.51100000000E-03 0.  1.
        -12    1    3    3    0    0 -0.26085564567E+02 -0.31966351607E+02  0.17287328927E+02  0.44734282774E+02  0.00000000000E+00 0.  1.
</event>
<event>
 7    1  0.2593256E-015  0.9000807E+02  0.7816164E-02  0.1186338E+00
        -11   -1    0    0    0    0  0.00000000000E+00  0.00000000000E+00  0.45593999997E+02  0.45594000000E+02  0.51100000000E-03 0. -1.
         11   -1    0    0    0    0 -0.00000000000E+00 -0.00000000000E+00 -0.45593999997E+02  0.45594000000E+02  0.51100000000E-03 0.  1.
    9900012    2    1    2    0    0  0.74878491174E-01 -0.10774650374E+01  0.47506671863E+00  0.90008073696E+02  0.90000339468E+02 0.  0.
        -12    1    1    2    0    0 -0.74878491174E-01  0.10774650374E+01 -0.47506671863E+00  0.11799263038E+01  0.00000000000E+00 0.  1.
         11    1    3    3    0    0  0.31314655270E+01  0.93844584707E+01  0.19625938580E+01  0.10085926435E+02  0.51100000000E-03 0. -1.
        -11    1    3    3    0    0 -0.35916501666E+02  0.15561128073E+01 -0.19145231762E+02  0.40730289447E+02  0.51100000000E-03 0.  1.
         12    1    3    3    0    0  0.32859914630E+02 -0.12018036315E+02  0.17657704623E+02  0.39191857814E+02  0.00000000000E+00 0. -1.
</event>
<event>
 7    1  0.2593256E-015  0.9000780E+02  0.7816164E-02  0.1186339E+00
        -11   -1    0    0    0    0  0.00000000000E+00  0.00000000000E+00  0.45593999997E+02  0.45594000000E+02  0.51100000000E-03 0.  1.
         11   -1    0    0    0    0 -0.00000000000E+00 -0.00000000000E+00 -0.45593999997E+02  0.45594000000E+02  0.51100000000E-03 0. -1.
    9900012    2    1    2    0    0  0.49697309728E+00 -0.10698209783E+01 -0.36959836020E-01  0.90007802892E+02  0.90000065090E+02 0.  0.
        -12    1    1    2    0    0 -0.49697309728E+00  0.10698209783E+01  0.36959836020E-01  0.11801971083E+01  0.00000000000E+00 0.  1.
         11    1    3    3    0    0 -0.10317889198E+02  0.29347096138E+01 -0.20775313176E+01  0.10926458468E+02  0.51100000000E-03 0. -1.
        -11    1    3    3    0    0  0.29776113420E+01  0.17323914495E+02  0.34931333613E+02  0.39104759953E+02  0.51100000000E-03 0.  1.
         12    1    3    3    0    0  0.78372509529E+01 -0.21328445087E+02 -0.32890762132E+02  0.39976584471E+02  0.00000000000E+00 0. -1.
</event>
<event>
 7    1  0.2593256E-015  0.9000829E+02  0.7816164E-02  0.1186338E+00
        -11   -1    0    0    0    0  0.00000000000E+00  0.00000000000E+00  0.45593999997E+02  0.45594000000E+02  0.51100000000E-03 0.  1.
         11   -1    0    0    0    0 -0.00000000000E+00 -0.00000000000E+00 -0.45593999997E+02  0.45594000000E+02  0.51100000000E-03 0. -1.
    9900012    2    1    2    0    0 -0.86558681803E+00 -0.74333639166E+00 -0.29987236958E+00  0.90008291151E+02  0.90000559792E+02 0.  0.
        -12    1    1    2    0    0  0.86558681803E+00  0.74333639166E+00  0.29987236958E+00  0.11797088491E+01  0.00000000000E+00 0.  1.
         11    1    3    3    0    0 -0.94180915332E+01  0.20645526361E+01  0.90055083412E+00  0.96836882324E+01  0.51100000000E-03 0. -1.
        -11    1    3    3    0    0 -0.23732621304E+01 -0.31689249604E+02  0.24519057376E+02  0.40137577013E+02  0.51100000000E-03 0.  1.
         12    1    3    3    0    0  0.10925766846E+02  0.28881360576E+02 -0.25719480580E+02  0.40187025906E+02  0.00000000000E+00 0. -1.
</event>
<event>
 7    1  0.2593256E-015  0.9000778E+02  0.7816164E-02  0.1186339E+00
        -11   -1    0    0    0    0  0.00000000000E+00  0.00000000000E+00  0.45593999997E+02  0.45594000000E+02  0.51100000000E-03 0.  1.
         11   -1    0    0    0    0 -0.00000000000E+00 -0.00000000000E+00 -0.45593999997E+02  0.45594000000E+02  0.51100000000E-03 0. -1.
    9900012    2    1    2    0    0 -0.72027901528E+00 -0.87334869078E+00 -0.33372638035E+00  0.90007782608E+02  0.90000044538E+02 0.  0.
        -12    1    1    2    0    0  0.72027901528E+00  0.87334869078E+00  0.33372638035E+00  0.11802173920E+01  0.00000000000E+00 0.  1.
         11    1    3    3    0    0  0.19747026625E+02  0.12302114153E+02 -0.34120521597E+02  0.41297664189E+02  0.51100000000E-03 0. -1.
        -11    1    3    3    0    0 -0.84614024560E+01 -0.72955901816E+00 -0.22094770905E+01  0.87754986843E+01  0.51100000000E-03 0.  1.
        -12    1    3    3    0    0 -0.12005903184E+02 -0.12445903826E+02  0.35996272307E+02  0.39934619734E+02  0.00000000000E+00 0.  1.
</event>
<event>
 7    1  0.2593256E-015  0.9000724E+02  0.7816164E-02  0.1186340E+00
        -11   -1    0    0    0    0  0.00000000000E+00  0.00000000000E+00  0.45593999997E+02  0.45594000000E+02  0.51100000000E-03 0. -1.
         11   -1    0    0    0    0 -0.00000000000E+00 -0.00000000000E+00 -0.45593999997E+02  0.45594000000E+02  0.51100000000E-03 0.  1.
    9900012    2    1    2    0    0  0.47446138758E+00  0.69342718708E+00 -0.82959715474E+00  0.90007243331E+02  0.89999498142E+02 0.  0.
        -12    1    1    2    0    0 -0.47446138758E+00 -0.69342718708E+00  0.82959715474E+00  0.11807566689E+01  0.00000000000E+00 0.  1.
         11    1    3    3    0    0  0.31704901224E+02  0.93910483124E+01 -0.22676106957E+02  0.40094867215E+02  0.51100000000E-03 0. -1.
        -11    1    3    3    0    0 -0.25529864718E+01 -0.53037663062E+01 -0.69655802428E+01  0.91195934853E+01  0.51100000000E-03 0.  1.
        -12    1    3    3    0    0 -0.28677453365E+02 -0.33938548191E+01  0.28812090045E+02  0.40792782631E+02  0.00000000000E+00 0.  1.
</event>
<event>
 7    1  0.2593256E-015  0.9000828E+02  0.7816164E-02  0.1186338E+00
        -11   -1    0    0    0    0  0.00000000000E+00  0.00000000000E+00  0.45593999997E+02  0.45594000000E+02  0.51100000000E-03 0.  1.
         11   -1    0    0    0    0 -0.00000000000E+00 -0.00000000000E+00 -0.45593999997E+02  0.45594000000E+02  0.51100000000E-03 0. -1.
    9900012    2    1    2    0    0 -0.33231704430E+00  0.89102322097E+00  0.69813393187E+00  0.90008276310E+02  0.90000544756E+02 0.  0.
        -12    1    1    2    0    0  0.33231704430E+00 -0.89102322097E+00 -0.69813393187E+00  0.11797236901E+01  0.00000000000E+00 0.  1.
         11    1    3    3    0    0 -0.74170921761E+01  0.97133481689E+01 -0.23012447799E+02  0.26056383920E+02  0.51100000000E-03 0. -1.
        -11    1    3    3    0    0 -0.18154186912E+02 -0.23693583675E+02  0.14900400482E+02  0.33361390028E+02  0.51100000000E-03 0.  1.
         12    1    3    3    0    0  0.25238962043E+02  0.14871258727E+02  0.88101812484E+01  0.30590502362E+02  0.00000000000E+00 0. -1.
</event>
<event>
 7    1  0.3977436E-015  0.9000773E+02  0.7816164E-02  0.1186339E+00
        -11   -1    0    0    0    0  0.00000000000E+00  0.00000000000E+00  0.45593999997E+02  0.45594000000E+02  0.51100000000E-03 0. -1.
         11   -1    0    0    0    0 -0.00000000000E+00 -0.00000000000E+00 -0.45593999997E+02  0.45594000000E+02  0.51100000000E-03 0.  1.
    9900012    2    1    2    0    0  0.16789582902E+00  0.10445955584E+01  0.52313029813E+00  0.90007731302E+02  0.89999992555E+02 0.  0.
        -12    1    1    2    0    0 -0.16789582902E+00 -0.10445955584E+01 -0.52313029813E+00  0.11802686977E+01  0.00000000000E+00 0.  1.
         11    1    3    3    0    0  0.27324919368E+01  0.29077593728E+02  0.22224126274E+02  0.36699928585E+02  0.51100000000E-03 0. -1.
        -11    1    3    3    0    0 -0.32635484617E+01  0.35113708366E+01  0.84184499478E+01  0.96876608889E+01  0.51100000000E-03 0.  1.
        -12    1    3    3    0    0  0.69895235389E+00 -0.31544369007E+02 -0.30119445923E+02  0.43620141829E+02  0.00000000000E+00 0.  1.
</event>
<event>
 7    1  0.2593256E-015  0.9000777E+02  0.7816164E-02  0.1186339E+00
        -11   -1    0    0    0    0  0.00000000000E+00  0.00000000000E+00  0.45593999997E+02  0.45594000000E+02  0.51100000000E-03 0. -1.
         11   -1    0    0    0    0 -0.00000000000E+00 -0.00000000000E+00 -0.45593999997E+02  0.45594000000E+02  0.51100000000E-03 0.  1.
    9900012    2    1    2    0    0  0.11514790523E+01  0.15504968780E+00  0.20737510346E+00  0.90007767461E+02  0.90000029191E+02 0.  0.
        -12    1    1    2    0    0 -0.11514790523E+01 -0.15504968780E+00 -0.20737510346E+00  0.11802325395E+01  0.00000000000E+00 0.  1.
         11    1    3    3    0    0  0.35092032796E+02 -0.24917476919E+02 -0.37670059102E+01  0.43203260937E+02  0.51100000000E-03 0. -1.
        -11    1    3    3    0    0 -0.30823750933E+01  0.66851405383E+01 -0.60303967183E+01  0.95161875283E+01  0.51100000000E-03 0.  1.
        -12    1    3    3    0    0 -0.30858178651E+02  0.18387386068E+02  0.10004777732E+02  0.37288318996E+02  0.00000000000E+00 0.  1.
</event>
<event>
 7    1  0.2593256E-015  0.9000777E+02  0.7816164E-02  0.1186339E+00
        -11   -1    0    0    0    0  0.00000000000E+00  0.00000000000E+00  0.45593999997E+02  0.45594000000E+02  0.51100000000E-03 0. -1.
         11   -1    0    0    0    0 -0.00000000000E+00 -0.00000000000E+00 -0.45593999997E+02  0.45594000000E+02  0.51100000000E-03 0.  1.
    9900012    2    1    2    0    0  0.63413520509E+00 -0.19255694805E-01  0.99521567057E+00  0.90007765925E+02  0.90000027636E+02 0.  0.
        -12    1    1    2    0    0 -0.63413520509E+00  0.19255694805E-01 -0.99521567057E+00  0.11802340747E+01  0.00000000000E+00 0.  1.
         11    1    3    3    0    0 -0.76957476259E+01 -0.24556040407E+01 -0.46988120004E+01  0.93452317897E+01  0.51100000000E-03 0. -1.
        -11    1    3    3    0    0  0.27007435264E+01  0.28764460644E+02 -0.26146065670E+02  0.38965432912E+02  0.51100000000E-03 0.  1.
         12    1    3    3    0    0  0.56291393045E+01 -0.26328112298E+02  0.31840093341E+02  0.41697101224E+02  0.00000000000E+00 0. -1.
</event>
<event>
 7    1  0.2593256E-015  0.9000764E+02  0.7816164E-02  0.1186339E+00
        -11   -1    0    0    0    0  0.00000000000E+00  0.00000000000E+00  0.45593999997E+02  0.45594000000E+02  0.51100000000E-03 0. -1.
         11   -1    0    0    0    0 -0.00000000000E+00 -0.00000000000E+00 -0.45593999997E+02  0.45594000000E+02  0.51100000000E-03 0.  1.
    9900012    2    1    2    0    0 -0.46873942995E-01 -0.35488955142E+00  0.11247712213E+01  0.90007638165E+02  0.89999898189E+02 0.  0.
        -12    1    1    2    0    0  0.46873942995E-01  0.35488955142E+00 -0.11247712213E+01  0.11803618345E+01  0.00000000000E+00 0.  1.
         11    1    3    3    0    0  0.99849532703E+00  0.14303528697E+02  0.82868393556E+01  0.16560785998E+02  0.51100000000E-03 0. -1.
        -11    1    3    3    0    0  0.26303982966E+02  0.16335406921E+02  0.22781423359E+01  0.31047302168E+02  0.51100000000E-03 0.  1.
         12    1    3    3    0    0 -0.27349352236E+02 -0.30993825169E+02 -0.94402104703E+01  0.42399549999E+02  0.00000000000E+00 0. -1.
</event>
<event>
 7    1  0.2593256E-015  0.9000777E+02  0.7816164E-02  0.1186339E+00
        -11   -1    0    0    0    0  0.00000000000E+00  0.00000000000E+00  0.45593999997E+02  0.45594000000E+02  0.51100000000E-03 0. -1.
         11   -1    0    0    0    0 -0.00000000000E+00 -0.00000000000E+00 -0.45593999997E+02  0.45594000000E+02  0.51100000000E-03 0.  1.
    9900012    2    1    2    0    0  0.62567150552E+00 -0.43858795291E+00  0.89950975196E+00  0.90007770353E+02  0.90000032122E+02 0.  0.
        -12    1    1    2    0    0 -0.62567150552E+00  0.43858795291E+00 -0.89950975196E+00  0.11802296468E+01  0.00000000000E+00 0.  1.
         11    1    3    3    0    0 -0.33247940245E+02 -0.12541220408E+02 -0.19295221343E+02  0.40435297783E+02  0.51100000000E-03 0. -1.
        -11    1    3    3    0    0 -0.25192988874E-01  0.93940800949E+01 -0.10848832095E+01  0.94565504998E+01  0.51100000000E-03 0.  1.
        -12    1    3    3    0    0  0.33898804739E+02  0.27085523605E+01  0.21279614304E+02  0.40115922071E+02  0.00000000000E+00 0.  1.
</event>
<event>
 7    1  0.2593256E-015  0.9000774E+02  0.7816164E-02  0.1186339E+00
        -11   -1    0    0    0    0  0.00000000000E+00  0.00000000000E+00  0.45593999997E+02  0.45594000000E+02  0.51100000000E-03 0.  1.
         11   -1    0    0    0    0 -0.00000000000E+00 -0.00000000000E+00 -0.45593999997E+02  0.45594000000E+02  0.51100000000E-03 0. -1.
    9900012    2    1    2    0    0  0.84832129998E-01 -0.47402914504E+00 -0.10775543401E+01  0.90007735845E+02  0.89999997158E+02 0.  0.
        -12    1    1    2    0    0 -0.84832129998E-01  0.47402914504E+00  0.10775543401E+01  0.11802641554E+01  0.00000000000E+00 0.  1.
         11    1    3    3    0    0 -0.45569928874E+01 -0.20388873241E+02 -0.12152452848E+02  0.24169287261E+02  0.51100000000E-03 0. -1.
        -11    1    3    3    0    0  0.19867125904E+02 -0.13462220711E+02  0.15971455947E+02  0.28827443235E+02  0.51100000000E-03 0.  1.
         12    1    3    3    0    0 -0.15225300887E+02  0.33377064806E+02 -0.48965574387E+01  0.37011005349E+02  0.00000000000E+00 0. -1.
</event>
<event>
 7    1  0.2593256E-015  0.9000783E+02  0.7816164E-02  0.1186339E+00
        -11   -1    0    0    0    0  0.00000000000E+00  0.00000000000E+00  0.45593999997E+02  0.45594000000E+02  0.51100000000E-03 0.  1.
         11   -1    0    0    0    0 -0.00000000000E+00 -0.00000000000E+00 -0.45593999997E+02  0.45594000000E+02  0.51100000000E-03 0. -1.
    9900012    2    1    2    0    0 -0.77854231625E+00 -0.69153649636E+00 -0.55537334485E+00  0.90007834581E+02  0.90000097197E+02 0.  0.
        -12    1    1    2    0    0  0.77854231625E+00  0.69153649636E+00  0.55537334485E+00  0.11801654190E+01  0.00000000000E+00 0.  1.
         11    1    3    3    0    0 -0.32585150158E+01 -0.64190448761E+01  0.67659733990E+01  0.98792941816E+01  0.51100000000E-03 0. -1.
        -11    1    3    3    0    0  0.37974953648E+00  0.33477432917E+02  0.21718332989E+02  0.39907000795E+02  0.51100000000E-03 0.  1.
         12    1    3    3    0    0  0.21002231630E+01 -0.27749924537E+02 -0.29039679733E+02  0.40221539604E+02  0.00000000000E+00 0. -1.
</event>
<event>
 7    1  0.2593256E-015  0.9000772E+02  0.7816164E-02  0.1186339E+00
        -11   -1    0    0    0    0  0.00000000000E+00  0.00000000000E+00  0.45593999997E+02  0.45594000000E+02  0.51100000000E-03 0. -1.
         11   -1    0    0    0    0 -0.00000000000E+00 -0.00000000000E+00 -0.45593999997E+02  0.45594000000E+02  0.51100000000E-03 0.  1.
    9900012    2    1    2    0    0 -0.41670797841E+00  0.11003715123E+01 -0.92700220959E-01  0.90007721925E+02  0.89999983054E+02 0.  0.
        -12    1    1    2    0    0  0.41670797841E+00 -0.11003715123E+01  0.92700220959E-01  0.11802780755E+01  0.00000000000E+00 0.  1.
         11    1    3    3    0    0  0.73878963891E+01  0.43156136012E+00 -0.32149958222E+01  0.80686713071E+01  0.51100000000E-03 0. -1.
        -11    1    3    3    0    0  0.13981667321E+01  0.53056985917E+00 -0.38895905059E+02  0.38924642647E+02  0.51100000000E-03 0.  1.
         12    1    3    3    0    0 -0.92027710996E+01  0.13824029305E+00  0.42018200660E+02  0.43014407970E+02  0.00000000000E+00 0. -1.
</event>
<event>
 7    1  0.2593256E-015  0.9000766E+02  0.7816164E-02  0.1186339E+00
        -11   -1    0    0    0    0  0.00000000000E+00  0.00000000000E+00  0.45593999997E+02  0.45594000000E+02  0.51100000000E-03 0. -1.
         11   -1    0    0    0    0 -0.00000000000E+00 -0.00000000000E+00 -0.45593999997E+02  0.45594000000E+02  0.51100000000E-03 0.  1.
    9900012    2    1    2    0    0 -0.12244241157E+00 -0.30758956434E+00  0.11329576713E+01  0.90007662519E+02  0.89999922864E+02 0.  0.
        -12    1    1    2    0    0  0.12244241157E+00  0.30758956434E+00 -0.11329576713E+01  0.11803374811E+01  0.00000000000E+00 0.  1.
         11    1    3    3    0    0 -0.25560207368E+00 -0.39974801386E+02 -0.23377174551E+01  0.40043913413E+02  0.51100000000E-03 0. -1.
        -11    1    3    3    0    0 -0.69158288888E+01 -0.16702098033E+01 -0.26360759191E+01  0.75873042985E+01  0.51100000000E-03 0.  1.
        -12    1    3    3    0    0  0.70489885509E+01  0.41337421625E+02  0.61067510456E+01  0.42376444807E+02  0.00000000000E+00 0.  1.
</event>
<event>
 7    1  0.2593256E-015  0.9000762E+02  0.7816164E-02  0.1186339E+00
        -11   -1    0    0    0    0  0.00000000000E+00  0.00000000000E+00  0.45593999997E+02  0.45594000000E+02  0.51100000000E-03 0. -1.
         11   -1    0    0    0    0 -0.00000000000E+00 -0.00000000000E+00 -0.45593999997E+02  0.45594000000E+02  0.51100000000E-03 0.  1.
    9900012    2    1    2    0    0 -0.85819995677E+00 -0.81008175420E+00  0.23357540516E-01  0.90007624980E+02  0.89999884829E+02 0.  0.
        -12    1    1    2    0    0  0.85819995677E+00  0.81008175420E+00 -0.23357540516E-01  0.11803750205E+01  0.00000000000E+00 0.  1.
         11    1    3    3    0    0  0.11075532653E+02  0.12228432270E+02 -0.26055920138E+02  0.30840119225E+02  0.51100000000E-03 0. -1.
        -11    1    3    3    0    0  0.12044911870E+02 -0.14417897794E+01 -0.90121941332E+01  0.15112190545E+02  0.51100000000E-03 0.  1.
        -12    1    3    3    0    0 -0.23978644480E+02 -0.11596724245E+02  0.35091471811E+02  0.44055315209E+02  0.00000000000E+00 0.  1.
</event>
<event>
 7    1  0.2593256E-015  0.9000789E+02  0.7816164E-02  0.1186339E+00
        -11   -1    0    0    0    0  0.00000000000E+00  0.00000000000E+00  0.45593999997E+02  0.45594000000E+02  0.51100000000E-03 0. -1.
         11   -1    0    0    0    0 -0.00000000000E+00 -0.00000000000E+00 -0.45593999997E+02  0.45594000000E+02  0.51100000000E-03 0.  1.
    9900012    2    1    2    0    0 -0.94323736953E+00  0.58225758611E+00  0.40488834750E+00  0.90007891867E+02  0.90000155239E+02 0.  0.
        -12    1    1    2    0    0  0.94323736953E+00 -0.58225758611E+00 -0.40488834750E+00  0.11801081331E+01  0.00000000000E+00 0.  1.
         11    1    3    3    0    0  0.81578709687E-01  0.37194243684E+00 -0.12461080743E+02  0.12466897360E+02  0.51100000000E-03 0. -1.
        -11    1    3    3    0    0 -0.59536815888E+01  0.33894208172E+02 -0.10814257042E+02  0.36072313866E+02  0.51100000000E-03 0.  1.
         12    1    3    3    0    0  0.49288655096E+01 -0.33683893022E+02  0.23680226132E+02  0.41468680640E+02  0.00000000000E+00 0. -1.
</event>
<event>
 7    1  0.2593256E-015  0.9000775E+02  0.7816164E-02  0.1186339E+00
        -11   -1    0    0    0    0  0.00000000000E+00  0.00000000000E+00  0.45593999997E+02  0.45594000000E+02  0.51100000000E-03 0. -1.
         11   -1    0    0    0    0 -0.00000000000E+00 -0.00000000000E+00 -0.45593999997E+02  0.45594000000E+02  0.51100000000E-03 0.  1.
    9900012    2    1    2    0    0 -0.49491735043E+00 -0.71412176979E+00  0.79879811237E+00  0.90007749387E+02  0.90000010879E+02 0.  0.
        -12    1    1    2    0    0  0.49491735043E+00  0.71412176979E+00 -0.79879811237E+00  0.11802506133E+01  0.00000000000E+00 0.  1.
         11    1    3    3    0    0 -0.10613030616E+02 -0.50202671811E+01 -0.23658558220E+01  0.11976509318E+02  0.51100000000E-03 0. -1.
        -11    1    3    3    0    0 -0.25127218532E+02 -0.10135143405E+02  0.22588610417E+02  0.35275254270E+02  0.51100000000E-03 0.  1.
         12    1    3    3    0    0  0.35245331797E+02  0.14441288816E+02 -0.19423956482E+02  0.42755985798E+02  0.00000000000E+00 0. -1.
</event>
<event>
 7    1  0.2593256E-015  0.9000772E+02  0.7816164E-02  0.1186339E+00
        -11   -1    0    0    0    0  0.00000000000E+00  0.00000000000E+00  0.45593999997E+02  0.45594000000E+02  0.51100000000E-03 0.  1.
         11   -1    0    0    0    0 -0.00000000000E+00 -0.00000000000E+00 -0.45593999997E+02  0.45594000000E+02  0.51100000000E-03 0. -1.
    9900012    2    1    2    0    0  0.74853069891E+00  0.52269119985E+00  0.74803169949E+00  0.90007722185E+02  0.89999983318E+02 0.  0.
        -12    1    1    2    0    0 -0.74853069891E+00 -0.52269119985E+00 -0.74803169949E+00  0.11802778152E+01  0.00000000000E+00 0.  1.
         11    1    3    3    0    0  0.55381522046E+01  0.86498051322E+01 -0.14011831081E+01  0.10365981528E+02  0.51100000000E-03 0. -1.
        -11    1    3    3    0    0  0.16707346132E+02 -0.11909227558E+02  0.34781692604E+02  0.40382313659E+02  0.51100000000E-03 0.  1.
         12    1    3    3    0    0 -0.21496967637E+02  0.37821136252E+01 -0.32632477797E+02  0.39259426998E+02  0.00000000000E+00 0. -1.
</event>
<event>
 7    1  0.2593256E-015  0.9000780E+02  0.7816164E-02  0.1186339E+00
        -11   -1    0    0    0    0  0.00000000000E+00  0.00000000000E+00  0.45593999997E+02  0.45594000000E+02  0.51100000000E-03 0.  1.
         11   -1    0    0    0    0 -0.00000000000E+00 -0.00000000000E+00 -0.45593999997E+02  0.45594000000E+02  0.51100000000E-03 0. -1.
    9900012    2    1    2    0    0 -0.79416748716E+00  0.50213832116E-01 -0.87158364065E+00  0.90007796005E+02  0.90000058112E+02 0.  0.
        -12    1    1    2    0    0  0.79416748716E+00 -0.50213832116E-01  0.87158364065E+00  0.11802039948E+01  0.00000000000E+00 0.  1.
         11    1    3    3    0    0 -0.25593921202E-01 -0.32823250986E+01  0.90359510667E+01  0.96136738577E+01  0.51100000000E-03 0. -1.
        -11    1    3    3    0    0 -0.28942604091E+02  0.36913972571E+01 -0.32938489237E+02  0.44002781943E+02  0.51100000000E-03 0.  1.
         12    1    3    3    0    0  0.28174030525E+02 -0.35885832638E+00  0.23030954529E+02  0.36391340204E+02  0.00000000000E+00 0. -1.
</event>
<event>
 7    1  0.2593256E-015  0.9000775E+02  0.7816164E-02  0.1186339E+00
        -11   -1    0    0    0    0  0.00000000000E+00  0.00000000000E+00  0.45593999997E+02  0.45594000000E+02  0.51100000000E-03 0.  1.
         11   -1    0    0    0    0 -0.00000000000E+00 -0.00000000000E+00 -0.45593999997E+02  0.45594000000E+02  0.51100000000E-03 0. -1.
    9900012    2    1    2    0    0 -0.89949946216E-01  0.37082139127E-01 -0.11762288157E+01  0.90007754134E+02  0.90000015688E+02 0.  0.
        -12    1    1    2    0    0  0.89949946216E-01 -0.37082139127E-01  0.11762288157E+01  0.11802458663E+01  0.00000000000E+00 0.  1.
         11    1    3    3    0    0  0.30041022326E+02 -0.44725891191E+01 -0.10135768590E+02  0.32018758268E+02  0.51100000000E-03 0. -1.
        -11    1    3    3    0    0  0.20664265503E+01 -0.11294474874E+02 -0.11868142069E+02  0.16513269749E+02  0.51100000000E-03 0.  1.
        -12    1    3    3    0    0 -0.32197398823E+02  0.15804146132E+02  0.20827681844E+02  0.41475726117E+02  0.00000000000E+00 0.  1.
</event>
<event>
 7    1  0.2593256E-015  0.9000776E+02  0.7816164E-02  0.1186339E+00
        -11   -1    0    0    0    0  0.00000000000E+00  0.00000000000E+00  0.45593999997E+02  0.45594000000E+02  0.51100000000E-03 0.  1.
         11   -1    0    0    0    0 -0.00000000000E+00 -0.00000000000E+00 -0.45593999997E+02  0.45594000000E+02  0.51100000000E-03 0. -1.
    9900012    2    1    2    0    0  0.47364228764E+00  0.52329135000E+00 -0.94593944867E+00  0.90007757527E+02  0.90000019127E+02 0.  0.
        -12    1    1    2    0    0 -0.47364228764E+00 -0.52329135000E+00  0.94593944867E+00  0.11802424726E+01  0.00000000000E+00 0.  1.
         11    1    3    3    0    0 -0.10863978737E+02  0.19385875358E+02 -0.32352559475E+02  0.39249538879E+02  0.51100000000E-03 0. -1.
        -11    1    3    3    0    0  0.12856783465E+02 -0.26234583970E+01 -0.22917169600E+01  0.13320337154E+02  0.51100000000E-03 0.  1.
        -12    1    3    3    0    0 -0.15191624400E+01 -0.16239125611E+02  0.33698336986E+02  0.37437881494E+02  0.00000000000E+00 0.  1.
</event>
<event>
 7    1  0.2593256E-015  0.9000772E+02  0.7816164E-02  0.1186339E+00
        -11   -1    0    0    0    0  0.00000000000E+00  0.00000000000E+00  0.45593999997E+02  0.45594000000E+02  0.51100000000E-03 0. -1.
         11   -1    0    0    0    0 -0.00000000000E+00 -0.00000000000E+00 -0.45593999997E+02  0.45594000000E+02  0.51100000000E-03 0.  1.
    9900012    2    1    2    0    0 -0.68554576613E+00 -0.65172714481E+00  0.70593446499E+00  0.90007718365E+02  0.89999979448E+02 0.  0.
        -12    1    1    2    0    0  0.68554576613E+00  0.65172714481E+00 -0.70593446499E+00  0.11802816349E+01  0.00000000000E+00 0.  1.
         11    1    3    3    0    0 -0.41899782038E+02 -0.46750909066E+01  0.10017874860E+02  0.43333659283E+02  0.51100000000E-03 0. -1.
        -11    1    3    3    0    0  0.20752833018E+01  0.56540663786E+01 -0.37842301001E+01  0.71130629906E+01  0.51100000000E-03 0.  1.
        -12    1    3    3    0    0  0.39138952971E+02 -0.16307026168E+01 -0.55277102953E+01  0.39560996092E+02  0.00000000000E+00 0.  1.
</event>
<event>
 7    1  0.2593256E-015  0.9000773E+02  0.7816164E-02  0.1186339E+00
        -11   -1    0    0    0    0  0.00000000000E+00  0.00000000000E+00  0.45593999997E+02  0.45594000000E+02  0.51100000000E-03 0.  1.
         11   -1    0    0    0    0 -0.00000000000E+00 -0.00000000000E+00 -0.45593999997E+02  0.45594000000E+02  0.51100000000E-03 0. -1.
    9900012    2    1    2    0    0  0.89493987689E+00  0.72110802139E+00 -0.26853981468E+00  0.90007734016E+02  0.89999995305E+02 0.  0.
        -12    1    1    2    0    0 -0.89493987689E+00 -0.72110802139E+00  0.26853981468E+00  0.11802659844E+01  0.00000000000E+00 0.  1.
         11    1    3    3    0    0  0.13423316830E+01  0.20674768434E+00  0.90791724860E+01  0.91801945646E+01  0.51100000000E-03 0. -1.
        -11    1    3    3    0    0  0.24611562025E+02  0.21958259831E+02  0.18362619557E+02  0.37750231222E+02  0.51100000000E-03 0.  1.
         12    1    3    3    0    0 -0.25058953831E+02 -0.21443899494E+02 -0.27710331857E+02  0.43077308229E+02  0.00000000000E+00 0. -1.
</event>
<event>
 7    1  0.2593256E-015  0.9000771E+02  0.7816164E-02  0.1186339E+00
        -11   -1    0    0    0    0  0.00000000000E+00  0.00000000000E+00  0.45593999997E+02  0.45594000000E+02  0.51100000000E-03 0.  1.
         11   -1    0    0    0    0 -0.00000000000E+00 -0.00000000000E+00 -0.45593999997E+02  0.45594000000E+02  0.51100000000E-03 0. -1.
    9900012    2    1    2    0    0 -0.39043098775E-01  0.96718866176E-01 -0.11756687730E+01  0.90007713608E+02  0.89999974628E+02 0.  0.
        -12    1    1    2    0    0  0.39043098775E-01 -0.96718866176E-01  0.11756687730E+01  0.11802863917E+01  0.00000000000E+00 0.  1.
         11    1    3    3    0    0  0.33968974399E+02  0.12677974074E+02 -0.12068433060E+01  0.36277799263E+02  0.51100000000E-03 0. -1.
        -11    1    3    3    0    0  0.72088356797E+01 -0.48078816644E+00  0.71764640927E+01  0.10183324911E+02  0.51100000000E-03 0.  1.
        -12    1    3    3    0    0 -0.41216853177E+02 -0.12100467041E+02 -0.71452895597E+01  0.43546589434E+02  0.00000000000E+00 0.  1.
</event>
<event>
 7    1  0.2593256E-015  0.9000772E+02  0.7816164E-02  0.1186339E+00
        -11   -1    0    0    0    0  0.00000000000E+00  0.00000000000E+00  0.45593999997E+02  0.45594000000E+02  0.51100000000E-03 0. -1.
         11   -1    0    0    0    0 -0.00000000000E+00 -0.00000000000E+00 -0.45593999997E+02  0.45594000000E+02  0.51100000000E-03 0.  1.
    9900012    2    1    2    0    0  0.10585836936E+01 -0.47704863611E+00 -0.21187970336E+00  0.90007717048E+02  0.89999978113E+02 0.  0.
        -12    1    1    2    0    0 -0.10585836936E+01  0.47704863611E+00  0.21187970336E+00  0.11802829518E+01  0.00000000000E+00 0.  1.
         11    1    3    3    0    0 -0.52817775219E+01 -0.38859771236E+02  0.29632615100E-01  0.39217086489E+02  0.51100000000E-03 0. -1.
        -11    1    3    3    0    0 -0.15262439605E+01 -0.99550138312E+00 -0.94234072768E+01  0.95979710666E+01  0.51100000000E-03 0.  1.
        -12    1    3    3    0    0  0.78666051760E+01  0.39378223983E+02  0.91818949583E+01  0.41192659493E+02  0.00000000000E+00 0.  1.
</event>
<event>
 7    1  0.2593256E-015  0.9000770E+02  0.7816164E-02  0.1186339E+00
        -11   -1    0    0    0    0  0.00000000000E+00  0.00000000000E+00  0.45593999997E+02  0.45594000000E+02  0.51100000000E-03 0.  1.
         11   -1    0    0    0    0 -0.00000000000E+00 -0.00000000000E+00 -0.45593999997E+02  0.45594000000E+02  0.51100000000E-03 0. -1.
    9900012    2    1    2    0    0  0.34441260398E+00 -0.70837438484E+00 -0.87903092654E+00  0.90007699326E+02  0.89999960157E+02 0.  0.
        -12    1    1    2    0    0 -0.34441260398E+00  0.70837438484E+00  0.87903092654E+00  0.11803006739E+01  0.00000000000E+00 0.  1.
         11    1    3    3    0    0 -0.28934721548E+01  0.77205817530E+01  0.77543475492E+00  0.82813563524E+01  0.51100000000E-03 0. -1.
        -11    1    3    3    0    0  0.11329723567E+02  0.35343325817E+02  0.10568550971E+01  0.37129910569E+02  0.51100000000E-03 0.  1.
         12    1    3    3    0    0 -0.80918388079E+01 -0.43772281955E+02 -0.27113207785E+01  0.44596432405E+02  0.00000000000E+00 0. -1.
</event>
<event>
 7    1  0.2593256E-015  0.9000770E+02  0.7816164E-02  0.1186339E+00
        -11   -1    0    0    0    0  0.00000000000E+00  0.00000000000E+00  0.45593999997E+02  0.45594000000E+02  0.51100000000E-03 0.  1.
         11   -1    0    0    0    0 -0.00000000000E+00 -0.00000000000E+00 -0.45593999997E+02  0.45594000000E+02  0.51100000000E-03 0. -1.
    9900012    2    1    2    0    0  0.18687839213E+00 -0.52025787389E-01 -0.11642545083E+01  0.90007695473E+02  0.89999956253E+02 0.  0.
        -12    1    1    2    0    0 -0.18687839213E+00  0.52025787389E-01  0.11642545083E+01  0.11803045269E+01  0.00000000000E+00 0.  1.
         11    1    3    3    0    0  0.15088626492E+02  0.69793356956E+01  0.24484420248E+02  0.29595009905E+02  0.51100000000E-03 0. -1.
        -11    1    3    3    0    0  0.14721712210E+01 -0.20406380836E+02  0.69073750523E+01  0.21593969003E+02  0.51100000000E-03 0.  1.
         12    1    3    3    0    0 -0.16373919320E+02  0.13375019353E+02 -0.32556049808E+02  0.38818716565E+02  0.00000000000E+00 0. -1.
</event>
<event>
 7    1  0.2593256E-015  0.9000772E+02  0.7816164E-02  0.1186339E+00
        -11   -1    0    0    0    0  0.00000000000E+00  0.00000000000E+00  0.45593999997E+02  0.45594000000E+02  0.51100000000E-03 0.  1.
         11   -1    0    0    0    0 -0.00000000000E+00 -0.00000000000E+00 -0.45593999997E+02  0.45594000000E+02  0.51100000000E-03 0. -1.
    9900012    2    1    2    0    0 -0.66752760169E-02  0.80880622316E+00 -0.85955762818E+00  0.90007724023E+02  0.89999985180E+02 0.  0.
        -12    1    1    2    0    0  0.66752760169E-02 -0.80880622316E+00  0.85955762818E+00  0.11802759771E+01  0.00000000000E+00 0.  1.
         11    1    3    3    0    0  0.11646660983E+02 -0.41709979553E+02 -0.10100199028E+02  0.44467753789E+02  0.51100000000E-03 0. -1.
        -11    1    3    3    0    0 -0.21556463281E+00  0.81272447472E+01  0.34707076986E+01  0.88399314184E+01  0.51100000000E-03 0.  1.
        -12    1    3    3    0    0 -0.11437771626E+02  0.34391541029E+02  0.57699337014E+01  0.36700038815E+02  0.00000000000E+00 0.  1.
</event>
<event>
 7    1  0.2593256E-015  0.9000777E+02  0.7816164E-02  0.1186339E+00
        -11   -1    0    0    0    0  0.00000000000E+00  0.00000000000E+00  0.45593999997E+02  0.45594000000E+02  0.51100000000E-03 0. -1.
         11   -1    0    0    0    0 -0.00000000000E+00 -0.00000000000E+00 -0.45593999997E+02  0.45594000000E+02  0.51100000000E-03 0.  1.
    9900012    2    1    2    0    0  0.93411764807E+00  0.32951222755E+00 -0.64170612419E+00  0.90007770853E+02  0.90000032629E+02 0.  0.
        -12    1    1    2    0    0 -0.93411764807E+00 -0.32951222755E+00  0.64170612419E+00  0.11802291465E+01  0.00000000000E+00 0.  1.
         11    1    3    3    0    0  0.56234112163E+01  0.14927096377E+01  0.36739843146E+02  0.37197674798E+02  0.51100000000E-03 0. -1.
        -11    1    3    3    0    0  0.10274544528E+02 -0.13501125219E+02 -0.11618446652E+02  0.20562950915E+02  0.51100000000E-03 0.  1.
        -12    1    3    3    0    0 -0.14963838097E+02  0.12337927809E+02 -0.25763102618E+02  0.32247145140E+02  0.00000000000E+00 0.  1.
</event>
<event>
 7    1  0.2593256E-015  0.9000778E+02  0.7816164E-02  0.1186339E+00
        -11   -1    0    0    0    0  0.00000000000E+00  0.00000000000E+00  0.45593999997E+02  0.45594000000E+02  0.51100000000E-03 0.  1.
         11   -1    0    0    0    0 -0.00000000000E+00 -0.00000000000E+00 -0.45593999997E+02  0.45594000000E+02  0.51100000000E-03 0. -1.
    9900012    2    1    2    0    0  0.20533122830E+00 -0.82285161036E-01 -0.11593015294E+01  0.90007783157E+02  0.90000045094E+02 0.  0.
        -12    1    1    2    0    0 -0.20533122830E+00  0.82285161036E-01  0.11593015294E+01  0.11802168433E+01  0.00000000000E+00 0.  1.
         11    1    3    3    0    0  0.10187625065E+02 -0.35190786040E+02  0.10770346216E+02  0.38186116383E+02  0.51100000000E-03 0. -1.
        -11    1    3    3    0    0 -0.32382413215E+01 -0.67805322433E+01 -0.44678936406E+01  0.87420763096E+01  0.51100000000E-03 0.  1.
        -12    1    3    3    0    0 -0.67440525151E+01  0.41889033122E+02 -0.74617541053E+01  0.43079590464E+02  0.00000000000E+00 0.  1.
</event>
<event>
 7    1  0.2593256E-015  0.9000774E+02  0.7816164E-02  0.1186339E+00
        -11   -1    0    0    0    0  0.00000000000E+00  0.00000000000E+00  0.45593999997E+02  0.45594000000E+02  0.51100000000E-03 0.  1.
         11   -1    0    0    0    0 -0.00000000000E+00 -0.00000000000E+00 -0.45593999997E+02  0.45594000000E+02  0.51100000000E-03 0. -1.
    9900012    2    1    2    0    0 -0.41780546397E+00 -0.88717971809E+00  0.65678238432E+00  0.90007740555E+02  0.90000001930E+02 0.  0.
        -12    1    1    2    0    0  0.41780546397E+00  0.88717971809E+00 -0.65678238432E+00  0.11802594453E+01  0.00000000000E+00 0.  1.
         11    1    3    3    0    0 -0.21107136006E+02  0.32248046949E+02 -0.57190352012E+01  0.38963509676E+02  0.51100000000E-03 0. -1.
        -11    1    3    3    0    0  0.38795128001E+01  0.14474549385E+01 -0.87847642393E+01  0.97117366297E+01  0.51100000000E-03 0.  1.
        -12    1    3    3    0    0  0.16809817742E+02 -0.34582681605E+02  0.15160581825E+02  0.41332494249E+02  0.00000000000E+00 0.  1.
</event>
<event>
 7    1  0.2593256E-015  0.9000775E+02  0.7816164E-02  0.1186339E+00
        -11   -1    0    0    0    0  0.00000000000E+00  0.00000000000E+00  0.45593999997E+02  0.45594000000E+02  0.51100000000E-03 0.  1.
         11   -1    0    0    0    0 -0.00000000000E+00 -0.00000000000E+00 -0.45593999997E+02  0.45594000000E+02  0.51100000000E-03 0. -1.
    9900012    2    1    2    0    0  0.59330068075E+00  0.23373054993E+00 -0.99315238975E+00  0.90007751155E+02  0.90000012670E+02 0.  0.
        -12    1    1    2    0    0 -0.59330068075E+00 -0.23373054993E+00  0.99315238975E+00  0.11802488454E+01  0.00000000000E+00 0.  1.
         11    1    3    3    0    0  0.32345003554E+01 -0.15714689765E+02 -0.34885753659E+02  0.38398297822E+02  0.51100000000E-03 0. -1.
        -11    1    3    3    0    0 -0.15002094765E+02  0.98436438012E+01  0.35629465133E+01  0.18293571514E+02  0.51100000000E-03 0.  1.
        -12    1    3    3    0    0  0.12360895090E+02  0.61047765140E+01  0.30329654756E+02  0.33315881819E+02  0.00000000000E+00 0.  1.
</event>
<event>
 7    1  0.2593256E-015  0.9000768E+02  0.7816164E-02  0.1186339E+00
        -11   -1    0    0    0    0  0.00000000000E+00  0.00000000000E+00  0.45593999997E+02  0.45594000000E+02  0.51100000000E-03 0. -1.
         11   -1    0    0    0    0 -0.00000000000E+00 -0.00000000000E+00 -0.45593999997E+02  0.45594000000E+02  0.51100000000E-03 0.  1.
    9900012    2    1    2    0    0  0.24169388482E+00 -0.11039406543E+01  0.34066746496E+00  0.90007680033E+02  0.89999940610E+02 0.  0.
        -12    1    1    2    0    0 -0.24169388482E+00  0.11039406543E+01 -0.34066746496E+00  0.11803199667E+01  0.00000000000E+00 0.  1.
         11    1    3    3    0    0  0.34207284464E+02  0.96698858949E+01 -0.10053674480E+02  0.36942135488E+02  0.51100000000E-03 0. -1.
        -11    1    3    3    0    0  0.83206045968E+01 -0.38498604209E+01  0.12714610737E+01  0.92558359774E+01  0.51100000000E-03 0.  1.
        -12    1    3    3    0    0 -0.42286195176E+02 -0.69239661283E+01  0.91228808717E+01  0.43809708568E+02  0.00000000000E+00 0.  1.
</event>
<event>
 7    1  0.3055124E-015  0.9000765E+02  0.7816164E-02  0.1186339E+00
        -11   -1    0    0    0    0  0.00000000000E+00  0.00000000000E+00  0.45593999997E+02  0.45594000000E+02  0.51100000000E-03 0.  1.
         11   -1    0    0    0    0 -0.00000000000E+00 -0.00000000000E+00 -0.45593999997E+02  0.45594000000E+02  0.51100000000E-03 0. -1.
    9900012    2    1    2    0    0  0.40146724609E+00 -0.46482777194E+00 -0.10079634960E+01  0.90007647842E+02  0.89999907994E+02 0.  0.
        -12    1    1    2    0    0 -0.40146724609E+00  0.46482777194E+00  0.10079634960E+01  0.11803521579E+01  0.00000000000E+00 0.  1.
         11    1    3    3    0    0  0.29629891585E+02 -0.22900836170E+01 -0.23665056983E+02  0.37989602269E+02  0.51100000000E-03 0. -1.
        -11    1    3    3    0    0  0.78808520917E+01  0.50354092911E+01  0.25689958510E+01  0.96986038358E+01  0.51100000000E-03 0.  1.
        -12    1    3    3    0    0 -0.37109276430E+02 -0.32101534461E+01  0.20088097636E+02  0.42319441737E+02  0.00000000000E+00 0.  1.
</event>
<event>
 7    1  0.2593256E-015  0.9000806E+02  0.7816164E-02  0.1186338E+00
        -11   -1    0    0    0    0  0.00000000000E+00  0.00000000000E+00  0.45593999997E+02  0.45594000000E+02  0.51100000000E-03 0. -1.
         11   -1    0    0    0    0 -0.00000000000E+00 -0.00000000000E+00 -0.45593999997E+02  0.45594000000E+02  0.51100000000E-03 0.  1.
    9900012    2    1    2    0    0  0.10143645723E+01 -0.59912326092E+00 -0.66066203148E-01  0.90008064023E+02  0.90000329667E+02 0.  0.
        -12    1    1    2    0    0 -0.10143645723E+01  0.59912326092E+00  0.66066203148E-01  0.11799359773E+01  0.00000000000E+00 0.  1.
         11    1    3    3    0    0 -0.85552758670E+01  0.32196114422E+02  0.24050222409E+01  0.33400099720E+02  0.51100000000E-03 0. -1.
        -11    1    3    3    0    0 -0.58720784961E+01  0.82312004991E+01 -0.73511455512E+01  0.12500932313E+02  0.51100000000E-03 0.  1.
        -12    1    3    3    0    0  0.15441718935E+02 -0.41026438182E+02  0.48800571072E+01  0.44107031990E+02  0.00000000000E+00 0.  1.
</event>
<event>
 7    1  0.2593256E-015  0.9000767E+02  0.7816164E-02  0.1186339E+00
        -11   -1    0    0    0    0  0.00000000000E+00  0.00000000000E+00  0.45593999997E+02  0.45594000000E+02  0.51100000000E-03 0. -1.
         11   -1    0    0    0    0 -0.00000000000E+00 -0.00000000000E+00 -0.45593999997E+02  0.45594000000E+02  0.51100000000E-03 0.  1.
    9900012    2    1    2    0    0 -0.10168096830E+01 -0.49547437687E+00 -0.33730621135E+00  0.90007672812E+02  0.89999933293E+02 0.  0.
        -12    1    1    2    0    0  0.10168096830E+01  0.49547437687E+00  0.33730621135E+00  0.11803271876E+01  0.00000000000E+00 0.  1.
         11    1    3    3    0    0  0.21384547471E+02  0.18555574701E+02  0.27033236798E+02  0.39145933570E+02  0.51100000000E-03 0. -1.
        -11    1    3    3    0    0  0.77773225589E+01 -0.33568564972E+01 -0.28802535320E+01  0.89471276060E+01  0.51100000000E-03 0.  1.
        -12    1    3    3    0    0 -0.30178679713E+02 -0.15694192580E+02 -0.24490289477E+02  0.41914611637E+02  0.00000000000E+00 0.  1.
</event>
<event>
 7    1  0.2593256E-015  0.9000768E+02  0.7816164E-02  0.1186339E+00
        -11   -1    0    0    0    0  0.00000000000E+00  0.00000000000E+00  0.45593999997E+02  0.45594000000E+02  0.51100000000E-03 0.  1.
         11   -1    0    0    0    0 -0.00000000000E+00 -0.00000000000E+00 -0.45593999997E+02  0.45594000000E+02  0.51100000000E-03 0. -1.
    9900012    2    1    2    0    0  0.94970555366E+00  0.33782470346E+00 -0.61408298407E+00  0.90007676282E+02  0.89999936808E+02 0.  0.
        -12    1    1    2    0    0 -0.94970555366E+00 -0.33782470346E+00  0.61408298407E+00  0.11803237184E+01  0.00000000000E+00 0.  1.
         11    1    3    3    0    0  0.52802182794E+01  0.93280756481E+01  0.60137600694E+01  0.12290606609E+02  0.51100000000E-03 0. -1.
        -11    1    3    3    0    0 -0.36391562252E+02 -0.20753310517E+02  0.36531694952E+01  0.42052245459E+02  0.51100000000E-03 0.  1.
         12    1    3    3    0    0  0.32061049526E+02  0.11763059572E+02 -0.10281012549E+02  0.35664824214E+02  0.00000000000E+00 0. -1.
</event>
<event>
 7    1  0.2593256E-015  0.9000774E+02  0.7816164E-02  0.1186339E+00
        -11   -1    0    0    0    0  0.00000000000E+00  0.00000000000E+00  0.45593999997E+02  0.45594000000E+02  0.51100000000E-03 0. -1.
         11   -1    0    0    0    0 -0.00000000000E+00 -0.00000000000E+00 -0.45593999997E+02  0.45594000000E+02  0.51100000000E-03 0.  1.
    9900012    2    1    2    0    0 -0.67570249800E+00  0.39971393641E+00 -0.88128406168E+00  0.90007742954E+02  0.90000004361E+02 0.  0.
        -12    1    1    2    0    0  0.67570249800E+00 -0.39971393641E+00  0.88128406168E+00  0.11802570458E+01  0.00000000000E+00 0.  1.
         11    1    3    3    0    0  0.10106457248E+02  0.38461061225E+01 -0.43666892721E+01  0.11661946059E+02  0.51100000000E-03 0. -1.
        -11    1    3    3    0    0 -0.93314228912E+01  0.36696765476E+02 -0.13357114134E+01  0.37888153489E+02  0.51100000000E-03 0.  1.
         12    1    3    3    0    0 -0.14507368551E+01 -0.40143157662E+02  0.48211166238E+01  0.40457643406E+02  0.00000000000E+00 0. -1.
</event>
<event>
 7    1  0.2593256E-015  0.9000781E+02  0.7816164E-02  0.1186339E+00
        -11   -1    0    0    0    0  0.00000000000E+00  0.00000000000E+00  0.45593999997E+02  0.45594000000E+02  0.51100000000E-03 0.  1.
         11   -1    0    0    0    0 -0.00000000000E+00 -0.00000000000E+00 -0.45593999997E+02  0.45594000000E+02  0.51100000000E-03 0. -1.
    9900012    2    1    2    0    0 -0.13564048074E+00 -0.11517036580E+01 -0.21913058043E+00  0.90007814478E+02  0.90000076829E+02 0.  0.
        -12    1    1    2    0    0  0.13564048074E+00  0.11517036580E+01  0.21913058043E+00  0.11801855223E+01  0.00000000000E+00 0.  1.
         11    1    3    3    0    0  0.17714339056E+02 -0.13721505716E+02 -0.22419458304E+02  0.31697155049E+02  0.51100000000E-03 0. -1.
        -11    1    3    3    0    0 -0.24844788689E+02  0.16417125468E+02 -0.47924709334E+01  0.30162117160E+02  0.51100000000E-03 0.  1.
        -12    1    3    3    0    0  0.69948091524E+01 -0.38473234096E+01  0.26992798657E+02  0.28148542269E+02  0.00000000000E+00 0.  1.
</event>
<event>
 7    1  0.2593256E-015  0.9000891E+02  0.7816164E-02  0.1186337E+00
        -11   -1    0    0    0    0  0.00000000000E+00  0.00000000000E+00  0.45593999997E+02  0.45594000000E+02  0.51100000000E-03 0.  1.
         11   -1    0    0    0    0 -0.00000000000E+00 -0.00000000000E+00 -0.45593999997E+02  0.45594000000E+02  0.51100000000E-03 0. -1.
    9900012    2    1    2    0    0 -0.99569285148E+00  0.25773321827E+00 -0.57655117096E+00  0.90008914796E+02  0.90001191663E+02 0.  0.
        -12    1    1    2    0    0  0.99569285148E+00 -0.25773321827E+00  0.57655117096E+00  0.11790852043E+01  0.00000000000E+00 0.  1.
         11    1    3    3    0    0 -0.16712640543E+01 -0.82237763060E+01  0.25687007010E+01  0.87762089665E+01  0.51100000000E-03 0. -1.
        -11    1    3    3    0    0 -0.38513487200E+02 -0.47527475712E+01  0.48377926022E+01  0.39106029501E+02  0.51100000000E-03 0.  1.
         12    1    3    3    0    0  0.39189058403E+02  0.13234257096E+02 -0.79830444742E+01  0.42126676328E+02  0.00000000000E+00 0. -1.
</event>
<event>
 7    1  0.2593256E-015  0.9000764E+02  0.7816164E-02  0.1186339E+00
        -11   -1    0    0    0    0  0.00000000000E+00  0.00000000000E+00  0.45593999997E+02  0.45594000000E+02  0.51100000000E-03 0.  1.
         11   -1    0    0    0    0 -0.00000000000E+00 -0.00000000000E+00 -0.45593999997E+02  0.45594000000E+02  0.51100000000E-03 0. -1.
    9900012    2    1    2    0    0 -0.79006385184E+00 -0.29001273879E+00 -0.82761900397E+00  0.90007635016E+02  0.89999894999E+02 0.  0.
        -12    1    1    2    0    0  0.79006385184E+00  0.29001273879E+00  0.82761900397E+00  0.11803649835E+01  0.00000000000E+00 0.  1.
         11    1    3    3    0    0  0.13462200018E+02 -0.21580224776E+02 -0.29924913830E+02  0.39273876797E+02  0.51100000000E-03 0. -1.
        -11    1    3    3    0    0  0.99750889458E+01  0.18412514934E+01  0.44523014611E+01  0.11077707123E+02  0.51100000000E-03 0.  1.
        -12    1    3    3    0    0 -0.24227352815E+02  0.19448960544E+02  0.24644993364E+02  0.39656051097E+02  0.00000000000E+00 0.  1.
</event>
<event>
 7    1  0.2593256E-015  0.9000769E+02  0.7816164E-02  0.1186339E+00
        -11   -1    0    0    0    0  0.00000000000E+00  0.00000000000E+00  0.45593999997E+02  0.45594000000E+02  0.51100000000E-03 0. -1.
         11   -1    0    0    0    0 -0.00000000000E+00 -0.00000000000E+00 -0.45593999997E+02  0.45594000000E+02  0.51100000000E-03 0.  1.
    9900012    2    1    2    0    0  0.59107988792E+00  0.84272709145E+00  0.57755769971E+00  0.90007687634E+02  0.89999948311E+02 0.  0.
        -12    1    1    2    0    0 -0.59107988792E+00 -0.84272709145E+00 -0.57755769971E+00  0.11803123659E+01  0.00000000000E+00 0.  1.
         11    1    3    3    0    0 -0.32817175693E+02 -0.56186635088E+01 -0.19660560046E+02  0.38666187059E+02  0.51100000000E-03 0. -1.
        -11    1    3    3    0    0  0.33522475599E+01  0.40000961162E+01 -0.83115852326E+01  0.98143151560E+01  0.51100000000E-03 0.  1.
        -12    1    3    3    0    0  0.30056008021E+02  0.24612944841E+01  0.28549702978E+02  0.41527185419E+02  0.00000000000E+00 0.  1.
</event>
<event>
 7    1  0.2593256E-015  0.9000742E+02  0.7816164E-02  0.1186340E+00
        -11   -1    0    0    0    0  0.00000000000E+00  0.00000000000E+00  0.45593999997E+02  0.45594000000E+02  0.51100000000E-03 0. -1.
         11   -1    0    0    0    0 -0.00000000000E+00 -0.00000000000E+00 -0.45593999997E+02  0.45594000000E+02  0.51100000000E-03 0.  1.
    9900012    2    1    2    0    0  0.78943352536E+00 -0.18628999959E+00  0.85782030396E+00  0.90007421782E+02  0.89999678949E+02 0.  0.
        -12    1    1    2    0    0 -0.78943352536E+00  0.18628999959E+00 -0.85782030396E+00  0.11805782180E+01  0.00000000000E+00 0.  1.
         11    1    3    3    0    0  0.33508360549E+02  0.25885500410E+02 -0.47070842948E+01  0.42603121963E+02  0.51100000000E-03 0. -1.
        -11    1    3    3    0    0 -0.12577357722E+01 -0.37994332616E+01  0.78272031036E+01  0.87910580176E+01  0.51100000000E-03 0.  1.
        -12    1    3    3    0    0 -0.31461191251E+02 -0.22272357149E+02 -0.22622985049E+01  0.38613241802E+02  0.00000000000E+00 0.  1.
</event>
<event>
 7    1  0.2593256E-015  0.9000763E+02  0.7816164E-02  0.1186339E+00
        -11   -1    0    0    0    0  0.00000000000E+00  0.00000000000E+00  0.45593999997E+02  0.45594000000E+02  0.51100000000E-03 0.  1.
         11   -1    0    0    0    0 -0.00000000000E+00 -0.00000000000E+00 -0.45593999997E+02  0.45594000000E+02  0.51100000000E-03 0. -1.
    9900012    2    1    2    0    0 -0.10590600188E+01  0.37832154809E+00 -0.35851135048E+00  0.90007633233E+02  0.89999893191E+02 0.  0.
        -12    1    1    2    0    0  0.10590600188E+01 -0.37832154809E+00  0.35851135048E+00  0.11803667674E+01  0.00000000000E+00 0.  1.
         11    1    3    3    0    0 -0.11142187495E+02 -0.35204156207E+02 -0.23652663205E+02  0.43851219291E+02  0.51100000000E-03 0. -1.
        -11    1    3    3    0    0  0.61984824873E+01  0.52680878428E+01  0.98309384509E+01  0.12760144425E+02  0.51100000000E-03 0.  1.
        -12    1    3    3    0    0  0.38846449885E+01  0.30314389912E+02  0.13463213403E+02  0.33396269516E+02  0.00000000000E+00 0.  1.
</event>
<event>
 7    1  0.2593256E-015  0.9000824E+02  0.7816164E-02  0.1186338E+00
        -11   -1    0    0    0    0  0.00000000000E+00  0.00000000000E+00  0.45593999997E+02  0.45594000000E+02  0.51100000000E-03 0.  1.
         11   -1    0    0    0    0 -0.00000000000E+00 -0.00000000000E+00 -0.45593999997E+02  0.45594000000E+02  0.51100000000E-03 0. -1.
    9900012    2    1    2    0    0 -0.16806642866E+00  0.52969695763E+00 -0.10406761095E+01  0.90008240721E+02  0.90000508697E+02 0.  0.
        -12    1    1    2    0    0  0.16806642866E+00 -0.52969695763E+00  0.10406761095E+01  0.11797592789E+01  0.00000000000E+00 0.  1.
         11    1    3    3    0    0  0.68162695077E+01 -0.26365435180E+01  0.22639779905E+01  0.76510449174E+01  0.51100000000E-03 0. -1.
        -11    1    3    3    0    0 -0.73997458662E+01 -0.20861722484E+02  0.32447737080E+02  0.39278790024E+02  0.51100000000E-03 0.  1.
         12    1    3    3    0    0  0.41540992979E+00  0.24027962960E+02 -0.35752391180E+02  0.43078405779E+02  0.00000000000E+00 0. -1.
</event>
<event>
 7    1  0.2593256E-015  0.9000766E+02  0.7816164E-02  0.1186339E+00
        -11   -1    0    0    0    0  0.00000000000E+00  0.00000000000E+00  0.45593999997E+02  0.45594000000E+02  0.51100000000E-03 0.  1.
         11   -1    0    0    0    0 -0.00000000000E+00 -0.00000000000E+00 -0.45593999997E+02  0.45594000000E+02  0.51100000000E-03 0. -1.
    9900012    2    1    2    0    0 -0.21586160148E+00  0.46442082215E+00 -0.10634424565E+01  0.90007664120E+02  0.89999924486E+02 0.  0.
        -12    1    1    2    0    0  0.21586160148E+00 -0.46442082215E+00  0.10634424565E+01  0.11803358799E+01  0.00000000000E+00 0.  1.
         11    1    3    3    0    0 -0.27057005385E+02  0.15228977165E+02  0.19214796551E+02  0.36513171495E+02  0.51100000000E-03 0. -1.
        -11    1    3    3    0    0 -0.57999445318E+01 -0.83907571804E+01  0.53405207558E+01  0.11513701613E+02  0.51100000000E-03 0.  1.
        -12    1    3    3    0    0  0.32641088315E+02 -0.63737991622E+01 -0.25618759763E+02  0.41980791012E+02  0.00000000000E+00 0.  1.
</event>
<event>
 7    1  0.2593256E-015  0.9000775E+02  0.7816164E-02  0.1186339E+00
        -11   -1    0    0    0    0  0.00000000000E+00  0.00000000000E+00  0.45593999997E+02  0.45594000000E+02  0.51100000000E-03 0.  1.
         11   -1    0    0    0    0 -0.00000000000E+00 -0.00000000000E+00 -0.45593999997E+02  0.45594000000E+02  0.51100000000E-03 0. -1.
    9900012    2    1    2    0    0  0.59027357655E+00 -0.10168177352E+01 -0.10324864985E+00  0.90007745161E+02  0.90000006597E+02 0.  0.
        -12    1    1    2    0    0 -0.59027357655E+00  0.10168177352E+01  0.10324864985E+00  0.11802548392E+01  0.00000000000E+00 0.  1.
         11    1    3    3    0    0 -0.27823464407E+02  0.24867766998E+02 -0.62200158862E+00  0.37322083186E+02  0.51100000000E-03 0. -1.
        -11    1    3    3    0    0 -0.45680274901E+01 -0.14446577151E+01  0.95224616990E+01  0.10659793062E+02  0.51100000000E-03 0.  1.
        -12    1    3    3    0    0  0.32981765474E+02 -0.24439927018E+02 -0.90037087602E+01  0.42025868913E+02  0.00000000000E+00 0.  1.
</event>
<event>
 7    1  0.2593256E-015  0.9000779E+02  0.7816164E-02  0.1186339E+00
        -11   -1    0    0    0    0  0.00000000000E+00  0.00000000000E+00  0.45593999997E+02  0.45594000000E+02  0.51100000000E-03 0. -1.
         11   -1    0    0    0    0 -0.00000000000E+00 -0.00000000000E+00 -0.45593999997E+02  0.45594000000E+02  0.51100000000E-03 0.  1.
    9900012    2    1    2    0    0 -0.12806286307E+00  0.61011551812E+00  0.10021213228E+01  0.90007793159E+02  0.90000055228E+02 0.  0.
        -12    1    1    2    0    0  0.12806286307E+00 -0.61011551812E+00 -0.10021213228E+01  0.11802068412E+01  0.00000000000E+00 0.  1.
         11    1    3    3    0    0  0.33799646898E+02 -0.25298444390E+02 -0.22058001202E+01  0.42276387895E+02  0.51100000000E-03 0. -1.
        -11    1    3    3    0    0 -0.93294857491E+01 -0.13450212441E+01  0.55595570156E+01  0.10943356933E+02  0.51100000000E-03 0.  1.
        -12    1    3    3    0    0 -0.24598224012E+02  0.27253581152E+02 -0.23516355726E+01  0.36788048331E+02  0.00000000000E+00 0.  1.
</event>
<event>
 7    1  0.2593256E-015  0.9000774E+02  0.7816164E-02  0.1186339E+00
        -11   -1    0    0    0    0  0.00000000000E+00  0.00000000000E+00  0.45593999997E+02  0.45594000000E+02  0.51100000000E-03 0. -1.
         11   -1    0    0    0    0 -0.00000000000E+00 -0.00000000000E+00 -0.45593999997E+02  0.45594000000E+02  0.51100000000E-03 0.  1.
    9900012    2    1    2    0    0  0.55707023972E+00  0.85096521925E+00  0.59877642858E+00  0.90007744829E+02  0.90000006261E+02 0.  0.
        -12    1    1    2    0    0 -0.55707023972E+00 -0.85096521925E+00 -0.59877642858E+00  0.11802551706E+01  0.00000000000E+00 0.  1.
         11    1    3    3    0    0  0.30748764765E+00  0.86544355962E+01  0.48656876928E+01  0.99332130314E+01  0.51100000000E-03 0. -1.
        -11    1    3    3    0    0 -0.19941545770E+02  0.30119788377E+02 -0.78361205692E+01  0.36963112497E+02  0.51100000000E-03 0.  1.
         12    1    3    3    0    0  0.20191128362E+02 -0.37923258754E+02  0.35692093050E+01  0.43111419301E+02  0.00000000000E+00 0. -1.
</event>
<event>
 7    1  0.2593256E-015  0.9000783E+02  0.7816164E-02  0.1186339E+00
        -11   -1    0    0    0    0  0.00000000000E+00  0.00000000000E+00  0.45593999997E+02  0.45594000000E+02  0.51100000000E-03 0. -1.
         11   -1    0    0    0    0 -0.00000000000E+00 -0.00000000000E+00 -0.45593999997E+02  0.45594000000E+02  0.51100000000E-03 0.  1.
    9900012    2    1    2    0    0  0.11129087588E+01  0.25104796403E-01  0.39191051049E+00  0.90007834755E+02  0.90000097374E+02 0.  0.
        -12    1    1    2    0    0 -0.11129087588E+01 -0.25104796403E-01 -0.39191051049E+00  0.11801652446E+01  0.00000000000E+00 0.  1.
         11    1    3    3    0    0 -0.61219405010E+01 -0.71389809671E+01 -0.15552946772E+02  0.18175185234E+02  0.51100000000E-03 0. -1.
        -11    1    3    3    0    0 -0.25630488228E+02  0.34867162933E+01 -0.12020455448E+02  0.28523156676E+02  0.51100000000E-03 0.  1.
         12    1    3    3    0    0  0.32865337488E+02  0.36773694701E+01  0.27965312730E+02  0.43309492845E+02  0.00000000000E+00 0. -1.
</event>
<event>
 7    1  0.2593256E-015  0.9000790E+02  0.7816164E-02  0.1186339E+00
        -11   -1    0    0    0    0  0.00000000000E+00  0.00000000000E+00  0.45593999997E+02  0.45594000000E+02  0.51100000000E-03 0. -1.
         11   -1    0    0    0    0 -0.00000000000E+00 -0.00000000000E+00 -0.45593999997E+02  0.45594000000E+02  0.51100000000E-03 0.  1.
    9900012    2    1    2    0    0 -0.56741536576E+00  0.39562369171E+00  0.95611848358E+00  0.90007897946E+02  0.90000161399E+02 0.  0.
        -12    1    1    2    0    0  0.56741536576E+00 -0.39562369171E+00 -0.95611848358E+00  0.11801020538E+01  0.00000000000E+00 0.  1.
         11    1    3    3    0    0 -0.24179447983E+02  0.79456959266E+01  0.31208081112E+02  0.40270635896E+02  0.51100000000E-03 0. -1.
        -11    1    3    3    0    0 -0.62750177471E+01 -0.71216552334E+01 -0.88245161387E+01  0.12960166138E+02  0.51100000000E-03 0.  1.
        -12    1    3    3    0    0  0.29887050364E+02 -0.42841700148E+00 -0.21427446490E+02  0.36777095912E+02  0.00000000000E+00 0.  1.
</event>
<event>
 7    1  0.2593256E-015  0.9000770E+02  0.7816164E-02  0.1186339E+00
        -11   -1    0    0    0    0  0.00000000000E+00  0.00000000000E+00  0.45593999997E+02  0.45594000000E+02  0.51100000000E-03 0.  1.
         11   -1    0    0    0    0 -0.00000000000E+00 -0.00000000000E+00 -0.45593999997E+02  0.45594000000E+02  0.51100000000E-03 0. -1.
    9900012    2    1    2    0    0  0.71999647374E+00 -0.71785439093E+00  0.59950248182E+00  0.90007697888E+02  0.89999958701E+02 0.  0.
        -12    1    1    2    0    0 -0.71999647374E+00  0.71785439093E+00 -0.59950248182E+00  0.11803021115E+01  0.00000000000E+00 0.  1.
         11    1    3    3    0    0 -0.33722137106E+01 -0.87274834880E+01  0.78078324835E+00  0.93888453009E+01  0.51100000000E-03 0. -1.
        -11    1    3    3    0    0 -0.23959399821E+02  0.40421699799E+01  0.30409307826E+02  0.38924516447E+02  0.51100000000E-03 0.  1.
         12    1    3    3    0    0  0.28051610005E+02  0.39674591172E+01 -0.30590588593E+02  0.41694336140E+02  0.00000000000E+00 0. -1.
</event>
<event>
 7    1  0.2593256E-015  0.9000782E+02  0.7816164E-02  0.1186339E+00
        -11   -1    0    0    0    0  0.00000000000E+00  0.00000000000E+00  0.45593999997E+02  0.45594000000E+02  0.51100000000E-03 0.  1.
         11   -1    0    0    0    0 -0.00000000000E+00 -0.00000000000E+00 -0.45593999997E+02  0.45594000000E+02  0.51100000000E-03 0. -1.
    9900012    2    1    2    0    0  0.84025791695E+00  0.79810219239E+00 -0.22323687225E+00  0.90007815617E+02  0.90000077983E+02 0.  0.
        -12    1    1    2    0    0 -0.84025791695E+00 -0.79810219239E+00  0.22323687225E+00  0.11801843829E+01  0.00000000000E+00 0.  1.
         11    1    3    3    0    0 -0.29648241656E+02 -0.28446685300E+02 -0.84895823706E+01  0.41955990597E+02  0.51100000000E-03 0. -1.
        -11    1    3    3    0    0  0.65980414808E+01 -0.32979175599E+00 -0.44473977381E+01  0.79638094456E+01  0.51100000000E-03 0.  1.
        -12    1    3    3    0    0  0.23890458092E+02  0.29574579249E+02  0.12713743236E+02  0.40088015574E+02  0.00000000000E+00 0.  1.
</event>
<event>
 7    1  0.2593256E-015  0.9000773E+02  0.7816164E-02  0.1186339E+00
        -11   -1    0    0    0    0  0.00000000000E+00  0.00000000000E+00  0.45593999997E+02  0.45594000000E+02  0.51100000000E-03 0.  1.
         11   -1    0    0    0    0 -0.00000000000E+00 -0.00000000000E+00 -0.45593999997E+02  0.45594000000E+02  0.51100000000E-03 0. -1.
    9900012    2    1    2    0    0 -0.38393367654E+00  0.86893786727E+00 -0.70041334812E+00  0.90007730140E+02  0.89999991377E+02 0.  0.
        -12    1    1    2    0    0  0.38393367654E+00 -0.86893786727E+00  0.70041334812E+00  0.11802698604E+01  0.00000000000E+00 0.  1.
         11    1    3    3    0    0  0.41342724055E+01 -0.23667350527E+01  0.73021702883E+01  0.87186773259E+01  0.51100000000E-03 0. -1.
        -11    1    3    3    0    0  0.30440240855E+02  0.23308732746E+02 -0.13408999149E+02  0.40616579669E+02  0.51100000000E-03 0.  1.
         12    1    3    3    0    0 -0.34958446937E+02 -0.20073059826E+02  0.54064155131E+01  0.40672473145E+02  0.00000000000E+00 0. -1.
</event>
<event>
 7    1  0.2593256E-015  0.9000776E+02  0.7816164E-02  0.1186339E+00
        -11   -1    0    0    0    0  0.00000000000E+00  0.00000000000E+00  0.45593999997E+02  0.45594000000E+02  0.51100000000E-03 0.  1.
         11   -1    0    0    0    0 -0.00000000000E+00 -0.00000000000E+00 -0.45593999997E+02  0.45594000000E+02  0.51100000000E-03 0. -1.
    9900012    2    1    2    0    0 -0.18032482785E+00  0.11377718136E+01 -0.25674127198E+00  0.90007763657E+02  0.90000025338E+02 0.  0.
        -12    1    1    2    0    0  0.18032482785E+00 -0.11377718136E+01  0.25674127198E+00  0.11802363425E+01  0.00000000000E+00 0.  1.
         11    1    3    3    0    0  0.31581791175E+02  0.52568987172E+01 -0.19505598889E+02  0.37490170795E+02  0.51100000000E-03 0. -1.
        -11    1    3    3    0    0  0.80809205086E+01  0.24282636333E+01  0.42161162138E+01  0.94325699960E+01  0.51100000000E-03 0.  1.
        -12    1    3    3    0    0 -0.39843036512E+02 -0.65473905369E+01  0.15032741403E+02  0.43085022867E+02  0.00000000000E+00 0.  1.
</event>
<event>
 7    1  0.2593256E-015  0.9000772E+02  0.7816164E-02  0.1186339E+00
        -11   -1    0    0    0    0  0.00000000000E+00  0.00000000000E+00  0.45593999997E+02  0.45594000000E+02  0.51100000000E-03 0.  1.
         11   -1    0    0    0    0 -0.00000000000E+00 -0.00000000000E+00 -0.45593999997E+02  0.45594000000E+02  0.51100000000E-03 0. -1.
    9900012    2    1    2    0    0  0.11620874951E+01  0.55224212130E-01  0.19889105913E+00  0.90007722612E+02  0.89999983750E+02 0.  0.
        -12    1    1    2    0    0 -0.11620874951E+01 -0.55224212130E-01 -0.19889105913E+00  0.11802773883E+01  0.00000000000E+00 0.  1.
         11    1    3    3    0    0  0.39415320374E+01 -0.93218095231E+00  0.72957966459E+01  0.83446560797E+01  0.51100000000E-03 0. -1.
        -11    1    3    3    0    0 -0.21117026016E+02 -0.76640890468E+00  0.32055433819E+02  0.38393580297E+02  0.51100000000E-03 0.  1.
         12    1    3    3    0    0  0.18337581474E+02  0.17538140691E+01 -0.39152339406E+02  0.43269486235E+02  0.00000000000E+00 0. -1.
</event>
<event>
 7    1  0.2593256E-015  0.9000781E+02  0.7816164E-02  0.1186339E+00
        -11   -1    0    0    0    0  0.00000000000E+00  0.00000000000E+00  0.45593999997E+02  0.45594000000E+02  0.51100000000E-03 0.  1.
         11   -1    0    0    0    0 -0.00000000000E+00 -0.00000000000E+00 -0.45593999997E+02  0.45594000000E+02  0.51100000000E-03 0. -1.
    9900012    2    1    2    0    0 -0.88522994318E+00 -0.62515370673E-02 -0.78049326105E+00  0.90007813208E+02  0.90000075542E+02 0.  0.
        -12    1    1    2    0    0  0.88522994318E+00  0.62515370673E-02  0.78049326105E+00  0.11801867922E+01  0.00000000000E+00 0.  1.
         11    1    3    3    0    0 -0.84164570634E-01  0.42558398128E+01 -0.66783172490E+01  0.79195440353E+01  0.51100000000E-03 0. -1.
        -11    1    3    3    0    0 -0.41098561477E+02 -0.57795572613E+01  0.43833281729E+01  0.41733782524E+02  0.51100000000E-03 0.  1.
         12    1    3    3    0    0  0.40297496105E+02  0.15174659114E+01  0.15144958151E+01  0.40354486649E+02  0.00000000000E+00 0. -1.
</event>
<event>
 7    1  0.2593256E-015  0.9000768E+02  0.7816164E-02  0.1186339E+00
        -11   -1    0    0    0    0  0.00000000000E+00  0.00000000000E+00  0.45593999997E+02  0.45594000000E+02  0.51100000000E-03 0. -1.
         11   -1    0    0    0    0 -0.00000000000E+00 -0.00000000000E+00 -0.45593999997E+02  0.45594000000E+02  0.51100000000E-03 0.  1.
    9900012    2    1    2    0    0  0.45362106437E+00 -0.10803814774E+01  0.14201159156E+00  0.90007676528E+02  0.89999937058E+02 0.  0.
        -12    1    1    2    0    0 -0.45362106437E+00  0.10803814774E+01 -0.14201159156E+00  0.11803234721E+01  0.00000000000E+00 0.  1.
         11    1    3    3    0    0 -0.76535750271E+01  0.15327285872E+01  0.35775415360E+02  0.36617028990E+02  0.51100000000E-03 0. -1.
        -11    1    3    3    0    0  0.26288700727E+01 -0.68903367842E+01  0.70157824300E+01  0.10178845820E+02  0.51100000000E-03 0.  1.
        -12    1    3    3    0    0  0.54783260187E+01  0.42772267197E+01 -0.42649186198E+02  0.43211801718E+02  0.00000000000E+00 0.  1.
</event>
<event>
 7    1  0.2593256E-015  0.9000777E+02  0.7816164E-02  0.1186339E+00
        -11   -1    0    0    0    0  0.00000000000E+00  0.00000000000E+00  0.45593999997E+02  0.45594000000E+02  0.51100000000E-03 0.  1.
         11   -1    0    0    0    0 -0.00000000000E+00 -0.00000000000E+00 -0.45593999997E+02  0.45594000000E+02  0.51100000000E-03 0. -1.
    9900012    2    1    2    0    0 -0.95125856973E+00  0.69313208047E+00 -0.87257880244E-01  0.90007771681E+02  0.90000033467E+02 0.  0.
        -12    1    1    2    0    0  0.95125856973E+00 -0.69313208047E+00  0.87257880244E-01  0.11802283191E+01  0.00000000000E+00 0.  1.
         11    1    3    3    0    0  0.31257992892E+02  0.11691926960E+02 -0.26836336329E+02  0.42824668399E+02  0.51100000000E-03 0. -1.
        -11    1    3    3    0    0 -0.86912836519E+01  0.12527111518E+01 -0.95546555635E+00  0.88329276822E+01  0.51100000000E-03 0.  1.
        -12    1    3    3    0    0 -0.23517967810E+02 -0.12251506031E+02  0.27704544005E+02  0.38350175599E+02  0.00000000000E+00 0.  1.
</event>
<event>
 7    1  0.2593256E-015  0.9000769E+02  0.7816164E-02  0.1186339E+00
        -11   -1    0    0    0    0  0.00000000000E+00  0.00000000000E+00  0.45593999997E+02  0.45594000000E+02  0.51100000000E-03 0. -1.
         11   -1    0    0    0    0 -0.00000000000E+00 -0.00000000000E+00 -0.45593999997E+02  0.45594000000E+02  0.51100000000E-03 0.  1.
    9900012    2    1    2    0    0 -0.87478532424E+00  0.77793178358E+00  0.15065946132E+00  0.90007692626E+02  0.89999953369E+02 0.  0.
        -12    1    1    2    0    0  0.87478532424E+00 -0.77793178358E+00 -0.15065946132E+00  0.11803073738E+01  0.00000000000E+00 0.  1.
         11    1    3    3    0    0 -0.31556226168E+02  0.14733545785E+02 -0.74687515566E+01  0.35618184000E+02  0.51100000000E-03 0. -1.
        -11    1    3    3    0    0 -0.72809659050E+01  0.64735013845E+01 -0.26019731629E+01  0.10084093875E+02  0.51100000000E-03 0.  1.
        -12    1    3    3    0    0  0.37962406749E+02 -0.20429115386E+02  0.10221384181E+02  0.44305414751E+02  0.00000000000E+00 0.  1.
</event>
<event>
 7    1  0.2593256E-015  0.9000770E+02  0.7816164E-02  0.1186339E+00
        -11   -1    0    0    0    0  0.00000000000E+00  0.00000000000E+00  0.45593999997E+02  0.45594000000E+02  0.51100000000E-03 0.  1.
         11   -1    0    0    0    0 -0.00000000000E+00 -0.00000000000E+00 -0.45593999997E+02  0.45594000000E+02  0.51100000000E-03 0. -1.
    9900012    2    1    2    0    0  0.40129409228E+00 -0.44786336465E+00 -0.10156199615E+01  0.90007702390E+02  0.89999963262E+02 0.  0.
        -12    1    1    2    0    0 -0.40129409228E+00  0.44786336465E+00  0.10156199615E+01  0.11802976100E+01  0.00000000000E+00 0.  1.
         11    1    3    3    0    0  0.72435530094E+01  0.49991807322E+01  0.34574718823E+01  0.94559494643E+01  0.51100000000E-03 0. -1.
        -11    1    3    3    0    0 -0.20313571921E+02  0.98631237266E+01  0.31762647799E+02  0.38971633393E+02  0.51100000000E-03 0.  1.
         12    1    3    3    0    0  0.13471313004E+02 -0.15310167823E+02 -0.36235739643E+02  0.41580119532E+02  0.00000000000E+00 0. -1.
</event>
<event>
 7    1  0.2593256E-015  0.9000776E+02  0.7816164E-02  0.1186339E+00
        -11   -1    0    0    0    0  0.00000000000E+00  0.00000000000E+00  0.45593999997E+02  0.45594000000E+02  0.51100000000E-03 0.  1.
         11   -1    0    0    0    0 -0.00000000000E+00 -0.00000000000E+00 -0.45593999997E+02  0.45594000000E+02  0.51100000000E-03 0. -1.
    9900012    2    1    2    0    0 -0.35857343239E+00  0.10789212706E+01  0.31674624104E+00  0.90007756722E+02  0.90000018310E+02 0.  0.
        -12    1    1    2    0    0  0.35857343239E+00 -0.10789212706E+01 -0.31674624104E+00  0.11802432782E+01  0.00000000000E+00 0.  1.
         11    1    3    3    0    0  0.13712897955E+00  0.33452085717E+01  0.90086259663E+01  0.96106486153E+01  0.51100000000E-03 0. -1.
        -11    1    3    3    0    0 -0.38082681774E+02 -0.11759187636E+02  0.28208208532E+01  0.39956553599E+02  0.51100000000E-03 0.  1.
         12    1    3    3    0    0  0.37586979362E+02  0.94929003349E+01 -0.11512700579E+02  0.40440554508E+02  0.00000000000E+00 0. -1.
</event>
<event>
 7    1  0.2593256E-015  0.9000776E+02  0.7816164E-02  0.1186339E+00
        -11   -1    0    0    0    0  0.00000000000E+00  0.00000000000E+00  0.45593999997E+02  0.45594000000E+02  0.51100000000E-03 0.  1.
         11   -1    0    0    0    0 -0.00000000000E+00 -0.00000000000E+00 -0.45593999997E+02  0.45594000000E+02  0.51100000000E-03 0. -1.
    9900012    2    1    2    0    0  0.87112470097E+00  0.30628140444E-01  0.79572019927E+00  0.90007759786E+02  0.90000021415E+02 0.  0.
        -12    1    1    2    0    0 -0.87112470097E+00 -0.30628140444E-01 -0.79572019927E+00  0.11802402142E+01  0.00000000000E+00 0.  1.
         11    1    3    3    0    0  0.27838365243E+02 -0.27679325270E+02 -0.11707666743E+02  0.40965706238E+02  0.51100000000E-03 0. -1.
        -11    1    3    3    0    0 -0.21716879651E+01  0.67693023062E+01 -0.79614836038E+01  0.10673560969E+02  0.51100000000E-03 0.  1.
        -12    1    3    3    0    0 -0.24795552577E+02  0.20940651104E+02  0.20464870546E+02  0.38368492578E+02  0.00000000000E+00 0.  1.
</event>
<event>
 7    1  0.2593256E-015  0.9000762E+02  0.7816164E-02  0.1186339E+00
        -11   -1    0    0    0    0  0.00000000000E+00  0.00000000000E+00  0.45593999997E+02  0.45594000000E+02  0.51100000000E-03 0.  1.
         11   -1    0    0    0    0 -0.00000000000E+00 -0.00000000000E+00 -0.45593999997E+02  0.45594000000E+02  0.51100000000E-03 0. -1.
    9900012    2    1    2    0    0  0.65780774576E+00  0.93954095194E+00 -0.27901812014E+00  0.90007618984E+02  0.89999878755E+02 0.  0.
        -12    1    1    2    0    0 -0.65780774576E+00 -0.93954095194E+00  0.27901812014E+00  0.11803810157E+01  0.00000000000E+00 0.  1.
         11    1    3    3    0    0  0.20633230838E+02  0.26066148413E+02 -0.17212465925E+02  0.37435855692E+02  0.51100000000E-03 0. -1.
        -11    1    3    3    0    0 -0.49097526505E+01  0.10123647396E+02  0.19829171330E+01  0.11424791828E+02  0.51100000000E-03 0.  1.
        -12    1    3    3    0    0 -0.15065670442E+02 -0.35250254857E+02  0.14950530672E+02  0.41146971465E+02  0.00000000000E+00 0.  1.
</event>
<event>
 7    1  0.2593256E-015  0.9000778E+02  0.7816164E-02  0.1186339E+00
        -11   -1    0    0    0    0  0.00000000000E+00  0.00000000000E+00  0.45593999997E+02  0.45594000000E+02  0.51100000000E-03 0.  1.
         11   -1    0    0    0    0 -0.00000000000E+00 -0.00000000000E+00 -0.45593999997E+02  0.45594000000E+02  0.51100000000E-03 0. -1.
    9900012    2    1    2    0    0 -0.10643929313E+01  0.16297013551E+00 -0.48313236395E+00  0.90007784571E+02  0.90000046528E+02 0.  0.
        -12    1    1    2    0    0  0.10643929313E+01 -0.16297013551E+00  0.48313236395E+00  0.11802154288E+01  0.00000000000E+00 0.  1.
         11    1    3    3    0    0  0.36110234638E+02 -0.20193249819E+02 -0.87505583569E+01  0.42288162123E+02  0.51100000000E-03 0. -1.
        -11    1    3    3    0    0 -0.19598752401E+01  0.38462595236E+01  0.76942636313E+01  0.88225005734E+01  0.51100000000E-03 0.  1.
        -12    1    3    3    0    0 -0.35214752330E+02  0.16509960431E+02  0.57316236165E+00  0.38897121875E+02  0.00000000000E+00 0.  1.
</event>
<event>
 7    1  0.2593256E-015  0.9000800E+02  0.7816164E-02  0.1186339E+00
        -11   -1    0    0    0    0  0.00000000000E+00  0.00000000000E+00  0.45593999997E+02  0.45594000000E+02  0.51100000000E-03 0.  1.
         11   -1    0    0    0    0 -0.00000000000E+00 -0.00000000000E+00 -0.45593999997E+02  0.45594000000E+02  0.51100000000E-03 0. -1.
    9900012    2    1    2    0    0 -0.16151789447E+00 -0.61598354538E+00 -0.99341105597E+00  0.90008004540E+02  0.90000269400E+02 0.  0.
        -12    1    1    2    0    0  0.16151789447E+00  0.61598354538E+00  0.99341105597E+00  0.11799954595E+01  0.00000000000E+00 0.  1.
         11    1    3    3    0    0  0.75555202944E+01  0.33712691064E+01  0.47041505567E+01  0.95173722754E+01  0.51100000000E-03 0. -1.
        -11    1    3    3    0    0  0.14147674237E+02 -0.17087527485E+01  0.33022069799E+02  0.35965728358E+02  0.51100000000E-03 0.  1.
         12    1    3    3    0    0 -0.21864712426E+02 -0.22784999033E+01 -0.38719631412E+02  0.44524903907E+02  0.00000000000E+00 0. -1.
</event>
<event>
 7    1  0.2593256E-015  0.9000775E+02  0.7816164E-02  0.1186339E+00
        -11   -1    0    0    0    0  0.00000000000E+00  0.00000000000E+00  0.45593999997E+02  0.45594000000E+02  0.51100000000E-03 0.  1.
         11   -1    0    0    0    0 -0.00000000000E+00 -0.00000000000E+00 -0.45593999997E+02  0.45594000000E+02  0.51100000000E-03 0. -1.
    9900012    2    1    2    0    0 -0.14856790978E+00  0.45464573875E+00 -0.10789849302E+01  0.90007752716E+02  0.90000014252E+02 0.  0.
        -12    1    1    2    0    0  0.14856790978E+00 -0.45464573875E+00  0.10789849302E+01  0.11802472839E+01  0.00000000000E+00 0.  1.
         11    1    3    3    0    0  0.12721537509E+02 -0.34079152004E+02 -0.16562314549E+02  0.39969192903E+02  0.51100000000E-03 0. -1.
        -11    1    3    3    0    0 -0.77351349384E+01 -0.35380658261E+01 -0.28764961227E+00  0.85107558340E+01  0.51100000000E-03 0.  1.
        -12    1    3    3    0    0 -0.51349704799E+01  0.38071863569E+02  0.15770979231E+02  0.41527803979E+02  0.00000000000E+00 0.  1.
</event>
<event>
 7    1  0.2593256E-015  0.9000778E+02  0.7816164E-02  0.1186339E+00
        -11   -1    0    0    0    0  0.00000000000E+00  0.00000000000E+00  0.45593999997E+02  0.45594000000E+02  0.51100000000E-03 0.  1.
         11   -1    0    0    0    0 -0.00000000000E+00 -0.00000000000E+00 -0.45593999997E+02  0.45594000000E+02  0.51100000000E-03 0. -1.
    9900012    2    1    2    0    0  0.72135624923E+00 -0.51002467465E+00  0.78258549772E+00  0.90007779653E+02  0.90000041544E+02 0.  0.
        -12    1    1    2    0    0 -0.72135624923E+00  0.51002467465E+00 -0.78258549772E+00  0.11802203473E+01  0.00000000000E+00 0.  1.
         11    1    3    3    0    0 -0.64390160785E+01  0.91479648099E+01 -0.23772180951E+00  0.11189401241E+02  0.51100000000E-03 0. -1.
        -11    1    3    3    0    0 -0.21038861621E+02 -0.29170730523E+02  0.18371414799E+02  0.40386558401E+02  0.51100000000E-03 0.  1.
         12    1    3    3    0    0  0.28199233948E+02  0.19512741038E+02 -0.17351107491E+02  0.38431820010E+02  0.00000000000E+00 0. -1.
</event>
<event>
 7    1  0.2593256E-015  0.9000771E+02  0.7816164E-02  0.1186339E+00
        -11   -1    0    0    0    0  0.00000000000E+00  0.00000000000E+00  0.45593999997E+02  0.45594000000E+02  0.51100000000E-03 0.  1.
         11   -1    0    0    0    0 -0.00000000000E+00 -0.00000000000E+00 -0.45593999997E+02  0.45594000000E+02  0.51100000000E-03 0. -1.
    9900012    2    1    2    0    0 -0.53673816463E+00  0.22405637490E+00 -0.10270307241E+01  0.90007711381E+02  0.89999972371E+02 0.  0.
        -12    1    1    2    0    0  0.53673816463E+00 -0.22405637490E+00  0.10270307241E+01  0.11802886193E+01  0.00000000000E+00 0.  1.
         11    1    3    3    0    0 -0.21687851833E+01 -0.16129700663E+01 -0.33037273696E+02  0.33147650824E+02  0.51100000000E-03 0. -1.
        -11    1    3    3    0    0  0.81604544606E+00  0.38612680666E+01 -0.12083846914E+02  0.12711989528E+02  0.51100000000E-03 0.  1.
        -12    1    3    3    0    0  0.81600157264E+00 -0.20242416254E+01  0.44094089886E+02  0.44148071029E+02  0.00000000000E+00 0.  1.
</event>
<event>
 7    1  0.2593256E-015  0.9000771E+02  0.7816164E-02  0.1186339E+00
        -11   -1    0    0    0    0  0.00000000000E+00  0.00000000000E+00  0.45593999997E+02  0.45594000000E+02  0.51100000000E-03 0.  1.
         11   -1    0    0    0    0 -0.00000000000E+00 -0.00000000000E+00 -0.45593999997E+02  0.45594000000E+02  0.51100000000E-03 0. -1.
    9900012    2    1    2    0    0  0.42422586457E+00  0.88177374008E+00 -0.65998768669E+00  0.90007713484E+02  0.89999974502E+02 0.  0.
        -12    1    1    2    0    0 -0.42422586457E+00 -0.88177374008E+00  0.65998768669E+00  0.11802865158E+01  0.00000000000E+00 0.  1.
         11    1    3    3    0    0 -0.12274742172E+01  0.94300230602E+01 -0.12674574989E+01  0.95936685706E+01  0.51100000000E-03 0. -1.
        -11    1    3    3    0    0  0.27349994363E+02  0.14117222408E+02  0.23911105811E+02  0.38975109256E+02  0.51100000000E-03 0.  1.
         12    1    3    3    0    0 -0.25698294281E+02 -0.22665471728E+02 -0.23303635999E+02  0.41438935657E+02  0.00000000000E+00 0. -1.
</event>
<event>
 7    1  0.2593256E-015  0.9000778E+02  0.7816164E-02  0.1186339E+00
        -11   -1    0    0    0    0  0.00000000000E+00  0.00000000000E+00  0.45593999997E+02  0.45594000000E+02  0.51100000000E-03 0. -1.
         11   -1    0    0    0    0 -0.00000000000E+00 -0.00000000000E+00 -0.45593999997E+02  0.45594000000E+02  0.51100000000E-03 0.  1.
    9900012    2    1    2    0    0  0.44251492526E-01  0.16311667820E-01  0.11792802446E+01  0.90007777072E+02  0.90000038929E+02 0.  0.
        -12    1    1    2    0    0 -0.44251492526E-01 -0.16311667820E-01 -0.11792802446E+01  0.11802229283E+01  0.00000000000E+00 0.  1.
         11    1    3    3    0    0 -0.48934005900E+01  0.89251244372E+01  0.80051338169E+00  0.10209996939E+02  0.51100000000E-03 0. -1.
        -11    1    3    3    0    0  0.13158850550E+02  0.31699737641E+02 -0.12314368627E+02  0.36464673168E+02  0.51100000000E-03 0.  1.
         12    1    3    3    0    0 -0.82211984679E+01 -0.40608550410E+02  0.12693135490E+02  0.43333106965E+02  0.00000000000E+00 0. -1.
</event>
<event>
 7    1  0.2593256E-015  0.9000774E+02  0.7816164E-02  0.1186339E+00
        -11   -1    0    0    0    0  0.00000000000E+00  0.00000000000E+00  0.45593999997E+02  0.45594000000E+02  0.51100000000E-03 0.  1.
         11   -1    0    0    0    0 -0.00000000000E+00 -0.00000000000E+00 -0.45593999997E+02  0.45594000000E+02  0.51100000000E-03 0. -1.
    9900012    2    1    2    0    0  0.66395593979E+00  0.82918595192E+00  0.51440941911E+00  0.90007744145E+02  0.90000005568E+02 0.  0.
        -12    1    1    2    0    0 -0.66395593979E+00 -0.82918595192E+00 -0.51440941911E+00  0.11802558550E+01  0.00000000000E+00 0.  1.
         11    1    3    3    0    0  0.12598321723E+02 -0.18511482601E+01 -0.29761199930E+01  0.13076763766E+02  0.51100000000E-03 0. -1.
        -11    1    3    3    0    0  0.30686964206E+02  0.32664455591E+01  0.12616406337E+02  0.33339663284E+02  0.51100000000E-03 0.  1.
         12    1    3    3    0    0 -0.42621329988E+02 -0.58611134706E+00 -0.91258769249E+01  0.43591317096E+02  0.00000000000E+00 0. -1.
</event>
<event>
 7    1  0.2593256E-015  0.9000779E+02  0.7816164E-02  0.1186339E+00
        -11   -1    0    0    0    0  0.00000000000E+00  0.00000000000E+00  0.45593999997E+02  0.45594000000E+02  0.51100000000E-03 0.  1.
         11   -1    0    0    0    0 -0.00000000000E+00 -0.00000000000E+00 -0.45593999997E+02  0.45594000000E+02  0.51100000000E-03 0. -1.
    9900012    2    1    2    0    0  0.95355186208E+00 -0.67025095215E+00 -0.18548105217E+00  0.90007787852E+02  0.90000049852E+02 0.  0.
        -12    1    1    2    0    0 -0.95355186208E+00  0.67025095215E+00  0.18548105217E+00  0.11802121476E+01  0.00000000000E+00 0.  1.
         11    1    3    3    0    0  0.97942111339E+01  0.29007717953E+01 -0.13487587109E+01  0.10303407158E+02  0.51100000000E-03 0. -1.
        -11    1    3    3    0    0  0.25572006098E+02  0.15218368028E+02  0.20352805404E+02  0.36052224749E+02  0.51100000000E-03 0.  1.
         12    1    3    3    0    0 -0.34412665370E+02 -0.18789390776E+02 -0.19189527745E+02  0.43652155945E+02  0.00000000000E+00 0. -1.
</event>
<event>
 7    1  0.2593256E-015  0.9000731E+02  0.7816164E-02  0.1186340E+00
        -11   -1    0    0    0    0  0.00000000000E+00  0.00000000000E+00  0.45593999997E+02  0.45594000000E+02  0.51100000000E-03 0. -1.
         11   -1    0    0    0    0 -0.00000000000E+00 -0.00000000000E+00 -0.45593999997E+02  0.45594000000E+02  0.51100000000E-03 0.  1.
    9900012    2    1    2    0    0  0.41764932338E+00  0.60192798048E+00  0.92589842363E+00  0.90007306923E+02  0.89999562573E+02 0.  0.
        -12    1    1    2    0    0 -0.41764932338E+00 -0.60192798048E+00 -0.92589842363E+00  0.11806930769E+01  0.00000000000E+00 0.  1.
         11    1    3    3    0    0 -0.47581716224E+01  0.46206158549E+00 -0.95029756026E+01  0.10637680370E+02  0.51100000000E-03 0. -1.
        -11    1    3    3    0    0 -0.30239059508E+02  0.21697658506E+02  0.45810318539E+01  0.37498999422E+02  0.51100000000E-03 0.  1.
         12    1    3    3    0    0  0.35414880453E+02 -0.21557792111E+02  0.58478421724E+01  0.41870627131E+02  0.00000000000E+00 0. -1.
</event>
<event>
 7    1  0.2593256E-015  0.9000775E+02  0.7816164E-02  0.1186339E+00
        -11   -1    0    0    0    0  0.00000000000E+00  0.00000000000E+00  0.45593999997E+02  0.45594000000E+02  0.51100000000E-03 0.  1.
         11   -1    0    0    0    0 -0.00000000000E+00 -0.00000000000E+00 -0.45593999997E+02  0.45594000000E+02  0.51100000000E-03 0. -1.
    9900012    2    1    2    0    0 -0.75710426626E+00  0.45403157690E+00 -0.78335648007E+00  0.90007746249E+02  0.90000007699E+02 0.  0.
        -12    1    1    2    0    0  0.75710426626E+00 -0.45403157690E+00  0.78335648007E+00  0.11802537514E+01  0.00000000000E+00 0.  1.
         11    1    3    3    0    0 -0.77481990814E+01 -0.27974498443E+01  0.14378603843E+02  0.16571196800E+02  0.51100000000E-03 0. -1.
        -11    1    3    3    0    0 -0.98034232547E+01  0.24057249152E+02  0.17427324865E+02  0.31282103454E+02  0.51100000000E-03 0.  1.
         12    1    3    3    0    0  0.16794518070E+02 -0.20805767731E+02 -0.32589285188E+02  0.42154445995E+02  0.00000000000E+00 0. -1.
</event>
<event>
 7    1  0.2593256E-015  0.9000763E+02  0.7816164E-02  0.1186339E+00
        -11   -1    0    0    0    0  0.00000000000E+00  0.00000000000E+00  0.45593999997E+02  0.45594000000E+02  0.51100000000E-03 0. -1.
         11   -1    0    0    0    0 -0.00000000000E+00 -0.00000000000E+00 -0.45593999997E+02  0.45594000000E+02  0.51100000000E-03 0.  1.
    9900012    2    1    2    0    0 -0.61944031197E+00  0.84695808658E+00  0.54058292824E+00  0.90007629633E+02  0.89999889544E+02 0.  0.
        -12    1    1    2    0    0  0.61944031197E+00 -0.84695808658E+00 -0.54058292824E+00  0.11803703668E+01  0.00000000000E+00 0.  1.
         11    1    3    3    0    0 -0.11556384517E+02  0.20328294290E+02  0.32290788906E+02  0.39868341077E+02  0.51100000000E-03 0. -1.
        -11    1    3    3    0    0  0.10604935402E+02  0.35315065827E+01 -0.31824864031E+00  0.11182015743E+02  0.51100000000E-03 0.  1.
        -12    1    3    3    0    0  0.33200880279E+00 -0.23012842786E+02 -0.31431957337E+02  0.38957272812E+02  0.00000000000E+00 0.  1.
</event>
<event>
 7    1  0.2593256E-015  0.9000847E+02  0.7816164E-02  0.1186338E+00
        -11   -1    0    0    0    0  0.00000000000E+00  0.00000000000E+00  0.45593999997E+02  0.45594000000E+02  0.51100000000E-03 0. -1.
         11   -1    0    0    0    0 -0.00000000000E+00 -0.00000000000E+00 -0.45593999997E+02  0.45594000000E+02  0.51100000000E-03 0.  1.
    9900012    2    1    2    0    0  0.11092902746E+01  0.18404302917E+00 -0.35622991136E+00  0.90008467678E+02  0.90000738648E+02 0.  0.
        -12    1    1    2    0    0 -0.11092902746E+01 -0.18404302917E+00  0.35622991136E+00  0.11795323225E+01  0.00000000000E+00 0.  1.
         11    1    3    3    0    0  0.49393451098E+01 -0.79836318714E+00 -0.84365273088E+01  0.98086445132E+01  0.51100000000E-03 0. -1.
        -11    1    3    3    0    0  0.21394840110E+02  0.32300602427E+02  0.97502855011E+01  0.39951672907E+02  0.51100000000E-03 0.  1.
         12    1    3    3    0    0 -0.25224894945E+02 -0.31318196211E+02 -0.16699881036E+01  0.40248150257E+02  0.00000000000E+00 0. -1.
</event>
<event>
 7    1  0.2593256E-015  0.9000787E+02  0.7816164E-02  0.1186339E+00
        -11   -1    0    0    0    0  0.00000000000E+00  0.00000000000E+00  0.45593999997E+02  0.45594000000E+02  0.51100000000E-03 0.  1.
         11   -1    0    0    0    0 -0.00000000000E+00 -0.00000000000E+00 -0.45593999997E+02  0.45594000000E+02  0.51100000000E-03 0. -1.
    9900012    2    1    2    0    0  0.11003395343E+01 -0.11335598961E+00 -0.41123131459E+00  0.90007869556E+02  0.90000132634E+02 0.  0.
        -12    1    1    2    0    0 -0.11003395343E+01  0.11335598961E+00  0.41123131459E+00  0.11801304441E+01  0.00000000000E+00 0.  1.
         11    1    3    3    0    0  0.29913981553E+02 -0.14215293385E+02  0.34553704041E+01  0.33299556202E+02  0.51100000000E-03 0. -1.
        -11    1    3    3    0    0  0.36493582753E+01 -0.12137029069E+02  0.56814322042E+01  0.13888987097E+02  0.51100000000E-03 0.  1.
        -12    1    3    3    0    0 -0.32463000294E+02  0.26238966465E+02 -0.95480339229E+01  0.42819326256E+02  0.00000000000E+00 0.  1.
</event>
<event>
 7    1  0.2593256E-015  0.9000774E+02  0.7816164E-02  0.1186339E+00
        -11   -1    0    0    0    0  0.00000000000E+00  0.00000000000E+00  0.45593999997E+02  0.45594000000E+02  0.51100000000E-03 0. -1.
         11   -1    0    0    0    0 -0.00000000000E+00 -0.00000000000E+00 -0.45593999997E+02  0.45594000000E+02  0.51100000000E-03 0.  1.
    9900012    2    1    2    0    0 -0.58953887608E+00  0.73473997866E+00  0.71106704573E+00  0.90007739323E+02  0.90000000682E+02 0.  0.
        -12    1    1    2    0    0  0.58953887608E+00 -0.73473997866E+00 -0.71106704573E+00  0.11802606772E+01  0.00000000000E+00 0.  1.
         11    1    3    3    0    0 -0.49395826693E+01  0.37484010610E+02  0.15641421929E+02  0.40915823450E+02  0.51100000000E-03 0. -1.
        -11    1    3    3    0    0 -0.29264228492E+01 -0.65901964251E+01  0.78070664546E+01  0.10627555058E+02  0.51100000000E-03 0.  1.
        -12    1    3    3    0    0  0.72764666425E+01 -0.30159074207E+02 -0.22737421338E+02  0.38464360815E+02  0.00000000000E+00 0.  1.
</event>
<event>
 7    1  0.2593256E-015  0.9000772E+02  0.7816164E-02  0.1186339E+00
        -11   -1    0    0    0    0  0.00000000000E+00  0.00000000000E+00  0.45593999997E+02  0.45594000000E+02  0.51100000000E-03 0.  1.
         11   -1    0    0    0    0 -0.00000000000E+00 -0.00000000000E+00 -0.45593999997E+02  0.45594000000E+02  0.51100000000E-03 0. -1.
    9900012    2    1    2    0    0 -0.33790739293E-01  0.71415588311E-01 -0.11776314022E+01  0.90007721338E+02  0.89999982460E+02 0.  0.
        -12    1    1    2    0    0  0.33790739293E-01 -0.71415588311E-01  0.11776314022E+01  0.11802786619E+01  0.00000000000E+00 0.  1.
         11    1    3    3    0    0 -0.33223794660E+01 -0.86689843978E+01  0.25818217037E+01  0.96361454626E+01  0.51100000000E-03 0. -1.
        -11    1    3    3    0    0 -0.69064860948E+00  0.46464182384E+01  0.37966929761E+02  0.38256423692E+02  0.51100000000E-03 0.  1.
         12    1    3    3    0    0  0.39792373362E+01  0.40939817477E+01 -0.41726382867E+02  0.42115152184E+02  0.00000000000E+00 0. -1.
</event>
<event>
 7    1  0.2593256E-015  0.9000779E+02  0.7816164E-02  0.1186339E+00
        -11   -1    0    0    0    0  0.00000000000E+00  0.00000000000E+00  0.45593999997E+02  0.45594000000E+02  0.51100000000E-03 0.  1.
         11   -1    0    0    0    0 -0.00000000000E+00 -0.00000000000E+00 -0.45593999997E+02  0.45594000000E+02  0.51100000000E-03 0. -1.
    9900012    2    1    2    0    0 -0.64339180798E+00  0.67112028249E+00 -0.72700740095E+00  0.90007790183E+02  0.90000052213E+02 0.  0.
        -12    1    1    2    0    0  0.64339180798E+00 -0.67112028249E+00  0.72700740095E+00  0.11802098174E+01  0.00000000000E+00 0.  1.
         11    1    3    3    0    0 -0.37769731867E+02  0.95350525220E+01 -0.84069640199E+01  0.39851561026E+02  0.51100000000E-03 0. -1.
        -11    1    3    3    0    0 -0.49150736712E+01 -0.10824711266E+01  0.53382526710E+01  0.73366637359E+01  0.51100000000E-03 0.  1.
        -12    1    3    3    0    0  0.42041413730E+02 -0.77814611129E+01  0.23417039479E+01  0.42819565421E+02  0.00000000000E+00 0.  1.
</event>
<event>
 7    1  0.2593256E-015  0.9000707E+02  0.7816164E-02  0.1186340E+00
        -11   -1    0    0    0    0  0.00000000000E+00  0.00000000000E+00  0.45593999997E+02  0.45594000000E+02  0.51100000000E-03 0. -1.
         11   -1    0    0    0    0 -0.00000000000E+00 -0.00000000000E+00 -0.45593999997E+02  0.45594000000E+02  0.51100000000E-03 0.  1.
    9900012    2    1    2    0    0  0.11435536900E+01  0.22400036526E+00 -0.19158128157E+00  0.90007070454E+02  0.89999322981E+02 0.  0.
        -12    1    1    2    0    0 -0.11435536900E+01 -0.22400036526E+00  0.19158128157E+00  0.11809295462E+01  0.00000000000E+00 0.  1.
         11    1    3    3    0    0  0.58050731938E+01 -0.30117711524E+02  0.11960329168E+02  0.32921495961E+02  0.51100000000E-03 0. -1.
        -11    1    3    3    0    0 -0.17500272842E+01 -0.99365677209E+01  0.71106510632E+01  0.12343392255E+02  0.51100000000E-03 0.  1.
        -12    1    3    3    0    0 -0.29114922195E+01  0.40278279610E+02 -0.19262561513E+02  0.44742182237E+02  0.00000000000E+00 0.  1.
</event>
<event>
 7    1  0.2593256E-015  0.9000784E+02  0.7816164E-02  0.1186339E+00
        -11   -1    0    0    0    0  0.00000000000E+00  0.00000000000E+00  0.45593999997E+02  0.45594000000E+02  0.51100000000E-03 0. -1.
         11   -1    0    0    0    0 -0.00000000000E+00 -0.00000000000E+00 -0.45593999997E+02  0.45594000000E+02  0.51100000000E-03 0.  1.
    9900012    2    1    2    0    0 -0.71779645677E+00 -0.84406122210E+00 -0.40632143485E+00  0.90007843990E+02  0.90000106730E+02 0.  0.
        -12    1    1    2    0    0  0.71779645677E+00  0.84406122210E+00  0.40632143485E+00  0.11801560102E+01  0.00000000000E+00 0.  1.
         11    1    3    3    0    0 -0.60282231347E+00  0.89352768381E+01 -0.49181150463E+01  0.10217163148E+02  0.51100000000E-03 0. -1.
        -11    1    3    3    0    0 -0.31626915457E+02 -0.14198578974E+02 -0.19638280472E+02  0.39843738358E+02  0.51100000000E-03 0.  1.
         12    1    3    3    0    0  0.31511941314E+02  0.44192409142E+01  0.24150074083E+02  0.39946942484E+02  0.00000000000E+00 0. -1.
</event>
<event>
 7    1  0.2593256E-015  0.9000782E+02  0.7816164E-02  0.1186339E+00
        -11   -1    0    0    0    0  0.00000000000E+00  0.00000000000E+00  0.45593999997E+02  0.45594000000E+02  0.51100000000E-03 0.  1.
         11   -1    0    0    0    0 -0.00000000000E+00 -0.00000000000E+00 -0.45593999997E+02  0.45594000000E+02  0.51100000000E-03 0. -1.
    9900012    2    1    2    0    0  0.12264749593E+00 -0.10074040865E+01  0.60241897518E+00  0.90007824579E+02  0.90000087064E+02 0.  0.
        -12    1    1    2    0    0 -0.12264749593E+00  0.10074040865E+01 -0.60241897518E+00  0.11801754206E+01  0.00000000000E+00 0.  1.
         11    1    3    3    0    0 -0.21216168783E+02 -0.39439717352E+01 -0.31811513049E+02  0.38440253558E+02  0.51100000000E-03 0. -1.
        -11    1    3    3    0    0 -0.44545592514E+01 -0.69526210279E+01 -0.88206257861E+00  0.83042201281E+01  0.51100000000E-03 0.  1.
        -12    1    3    3    0    0  0.25793375531E+02  0.98891886765E+01  0.33295994603E+02  0.43263350893E+02  0.00000000000E+00 0.  1.
</event>
<event>
 7    1  0.2593256E-015  0.9000771E+02  0.7816164E-02  0.1186339E+00
        -11   -1    0    0    0    0  0.00000000000E+00  0.00000000000E+00  0.45593999997E+02  0.45594000000E+02  0.51100000000E-03 0.  1.
         11   -1    0    0    0    0 -0.00000000000E+00 -0.00000000000E+00 -0.45593999997E+02  0.45594000000E+02  0.51100000000E-03 0. -1.
    9900012    2    1    2    0    0 -0.82467583104E+00  0.79126912369E+00 -0.29477227366E+00  0.90007708618E+02  0.89999969572E+02 0.  0.
        -12    1    1    2    0    0  0.82467583104E+00 -0.79126912369E+00  0.29477227366E+00  0.11802913817E+01  0.00000000000E+00 0.  1.
         11    1    3    3    0    0 -0.12416211066E+02 -0.15923856256E+01 -0.67758844606E+01  0.14234135018E+02  0.51100000000E-03 0. -1.
        -11    1    3    3    0    0 -0.84785000170E+01  0.34263960339E+02 -0.65730142443E+01  0.35904156544E+02  0.51100000000E-03 0.  1.
         12    1    3    3    0    0  0.20070035252E+02 -0.31880305590E+02  0.13054126431E+02  0.39869417056E+02  0.00000000000E+00 0. -1.
</event>
<event>
 7    1  0.2593256E-015  0.9000773E+02  0.7816164E-02  0.1186339E+00
        -11   -1    0    0    0    0  0.00000000000E+00  0.00000000000E+00  0.45593999997E+02  0.45594000000E+02  0.51100000000E-03 0. -1.
         11   -1    0    0    0    0 -0.00000000000E+00 -0.00000000000E+00 -0.45593999997E+02  0.45594000000E+02  0.51100000000E-03 0.  1.
    9900012    2    1    2    0    0  0.11118082722E+01 -0.85971447535E-01  0.38668956350E+00  0.90007729886E+02  0.89999991120E+02 0.  0.
        -12    1    1    2    0    0 -0.11118082722E+01  0.85971447535E-01 -0.38668956350E+00  0.11802701141E+01  0.00000000000E+00 0.  1.
         11    1    3    3    0    0  0.14221491021E+02 -0.27917982781E+02 -0.13917341166E+02  0.34283479327E+02  0.51100000000E-03 0. -1.
        -11    1    3    3    0    0 -0.36036209828E+01  0.20402875997E+01 -0.14990969836E+02  0.15552428574E+02  0.51100000000E-03 0.  1.
        -12    1    3    3    0    0 -0.95060617657E+01  0.25791723733E+02  0.29295000565E+02  0.40171821984E+02  0.00000000000E+00 0.  1.
</event>
<event>
 7    1  0.2593256E-015  0.9000773E+02  0.7816164E-02  0.1186339E+00
        -11   -1    0    0    0    0  0.00000000000E+00  0.00000000000E+00  0.45593999997E+02  0.45594000000E+02  0.51100000000E-03 0.  1.
         11   -1    0    0    0    0 -0.00000000000E+00 -0.00000000000E+00 -0.45593999997E+02  0.45594000000E+02  0.51100000000E-03 0. -1.
    9900012    2    1    2    0    0  0.70663295285E+00 -0.91472280679E+00  0.23872410197E+00  0.90007730056E+02  0.89999991293E+02 0.  0.
        -12    1    1    2    0    0 -0.70663295285E+00  0.91472280679E+00 -0.23872410197E+00  0.11802699438E+01  0.00000000000E+00 0.  1.
         11    1    3    3    0    0 -0.11002729278E+02 -0.31392444091E+02 -0.12136293432E+02  0.35409535666E+02  0.51100000000E-03 0. -1.
        -11    1    3    3    0    0 -0.67263673410E+01 -0.79875672338E+01  0.12560291782E+01  0.10517740132E+02  0.51100000000E-03 0.  1.
        -12    1    3    3    0    0  0.18435729572E+02  0.38465288518E+02  0.11118988356E+02  0.44080454259E+02  0.00000000000E+00 0.  1.
</event>
<event>
 7    1  0.2593256E-015  0.9000772E+02  0.7816164E-02  0.1186339E+00
        -11   -1    0    0    0    0  0.00000000000E+00  0.00000000000E+00  0.45593999997E+02  0.45594000000E+02  0.51100000000E-03 0. -1.
         11   -1    0    0    0    0 -0.00000000000E+00 -0.00000000000E+00 -0.45593999997E+02  0.45594000000E+02  0.51100000000E-03 0.  1.
    9900012    2    1    2    0    0  0.14800338941E+00 -0.59488765687E+00  0.10085896871E+01  0.90007724827E+02  0.89999985995E+02 0.  0.
        -12    1    1    2    0    0 -0.14800338941E+00  0.59488765687E+00 -0.10085896871E+01  0.11802751732E+01  0.00000000000E+00 0.  1.
         11    1    3    3    0    0  0.71922083259E+01  0.36819980530E+01  0.57765728117E+01  0.99324601169E+01  0.51100000000E-03 0. -1.
        -11    1    3    3    0    0  0.16895797242E+02 -0.97735791731E+01 -0.35633266689E+02  0.40629059914E+02  0.51100000000E-03 0.  1.
         12    1    3    3    0    0 -0.23940002179E+02  0.54966934632E+01  0.30865283564E+02  0.39446204796E+02  0.00000000000E+00 0. -1.
</event>
<event>
 7    1  0.2593256E-015  0.9000773E+02  0.7816164E-02  0.1186339E+00
        -11   -1    0    0    0    0  0.00000000000E+00  0.00000000000E+00  0.45593999997E+02  0.45594000000E+02  0.51100000000E-03 0. -1.
         11   -1    0    0    0    0 -0.00000000000E+00 -0.00000000000E+00 -0.45593999997E+02  0.45594000000E+02  0.51100000000E-03 0.  1.
    9900012    2    1    2    0    0 -0.41004392781E+00 -0.84953197336E+00  0.70937096088E+00  0.90007725559E+02  0.89999986736E+02 0.  0.
        -12    1    1    2    0    0  0.41004392781E+00  0.84953197336E+00 -0.70937096088E+00  0.11802744412E+01  0.00000000000E+00 0.  1.
         11    1    3    3    0    0 -0.75088715727E+01 -0.34633426645E+02  0.21111595362E+02  0.41249931545E+02  0.51100000000E-03 0. -1.
        -11    1    3    3    0    0  0.90529454564E+01 -0.72202906635E+00 -0.10361813423E+01  0.91406137346E+01  0.51100000000E-03 0.  1.
        -12    1    3    3    0    0 -0.19541178115E+01  0.34505923738E+02 -0.19366043059E+02  0.39617180279E+02  0.00000000000E+00 0.  1.
</event>
<event>
 7    1  0.2593256E-015  0.9000779E+02  0.7816164E-02  0.1186339E+00
        -11   -1    0    0    0    0  0.00000000000E+00  0.00000000000E+00  0.45593999997E+02  0.45594000000E+02  0.51100000000E-03 0.  1.
         11   -1    0    0    0    0 -0.00000000000E+00 -0.00000000000E+00 -0.45593999997E+02  0.45594000000E+02  0.51100000000E-03 0. -1.
    9900012    2    1    2    0    0 -0.48542700347E+00 -0.10612022792E+01  0.17638418425E+00  0.90007787717E+02  0.90000049715E+02 0.  0.
        -12    1    1    2    0    0  0.48542700347E+00  0.10612022792E+01 -0.17638418425E+00  0.11802122833E+01  0.00000000000E+00 0.  1.
         11    1    3    3    0    0  0.64242981747E+01  0.26315000357E+02 -0.13297603553E+02  0.30175770269E+02  0.51100000000E-03 0. -1.
        -11    1    3    3    0    0  0.92817031393E+01 -0.63909041424E+01 -0.16397442159E+02  0.19896476536E+02  0.51100000000E-03 0.  1.
        -12    1    3    3    0    0 -0.16191428318E+02 -0.20985298494E+02  0.29871429896E+02  0.39935540911E+02  0.00000000000E+00 0.  1.
</event>
<event>
 7    1  0.2593256E-015  0.9000773E+02  0.7816164E-02  0.1186339E+00
        -11   -1    0    0    0    0  0.00000000000E+00  0.00000000000E+00  0.45593999997E+02  0.45594000000E+02  0.51100000000E-03 0. -1.
         11   -1    0    0    0    0 -0.00000000000E+00 -0.00000000000E+00 -0.45593999997E+02  0.45594000000E+02  0.51100000000E-03 0.  1.
    9900012    2    1    2    0    0 -0.76791454075E+00  0.47550374730E+00  0.75976687653E+00  0.90007727886E+02  0.89999989094E+02 0.  0.
        -12    1    1    2    0    0  0.76791454075E+00 -0.47550374730E+00 -0.75976687653E+00  0.11802721136E+01  0.00000000000E+00 0.  1.
         11    1    3    3    0    0  0.34411168046E+02 -0.13257172959E+02  0.17025500857E+02  0.40617099857E+02  0.51100000000E-03 0. -1.
        -11    1    3    3    0    0  0.25031069404E+01  0.18754139497E+01 -0.85985680146E+01  0.91497592318E+01  0.51100000000E-03 0.  1.
        -12    1    3    3    0    0 -0.37682189527E+02  0.11857262757E+02 -0.76671659657E+01  0.40240868797E+02  0.00000000000E+00 0.  1.
</event>
<event>
 7    1  0.2593256E-015  0.9000775E+02  0.7816164E-02  0.1186339E+00
        -11   -1    0    0    0    0  0.00000000000E+00  0.00000000000E+00  0.45593999997E+02  0.45594000000E+02  0.51100000000E-03 0.  1.
         11   -1    0    0    0    0 -0.00000000000E+00 -0.00000000000E+00 -0.45593999997E+02  0.45594000000E+02  0.51100000000E-03 0. -1.
    9900012    2    1    2    0    0 -0.19622912917E-01  0.99239442047E+00 -0.63856613777E+00  0.90007746444E+02  0.90000007897E+02 0.  0.
        -12    1    1    2    0    0  0.19622912917E-01 -0.99239442047E+00  0.63856613777E+00  0.11802535561E+01  0.00000000000E+00 0.  1.
         11    1    3    3    0    0  0.89484830974E+01 -0.74706846468E+00  0.26907670019E+01  0.93740966687E+01  0.51100000000E-03 0. -1.
        -11    1    3    3    0    0  0.20835914897E+02 -0.19678877932E+02  0.21923188617E+02  0.36083511271E+02  0.51100000000E-03 0.  1.
         12    1    3    3    0    0 -0.29804020907E+02  0.21418340818E+02 -0.25252521757E+02  0.44550138504E+02  0.00000000000E+00 0. -1.
</event>
<event>
 7    1  0.2593256E-015  0.9000778E+02  0.7816164E-02  0.1186339E+00
        -11   -1    0    0    0    0  0.00000000000E+00  0.00000000000E+00  0.45593999997E+02  0.45594000000E+02  0.51100000000E-03 0.  1.
         11   -1    0    0    0    0 -0.00000000000E+00 -0.00000000000E+00 -0.45593999997E+02  0.45594000000E+02  0.51100000000E-03 0. -1.
    9900012    2    1    2    0    0  0.11001920204E+01 -0.13841938860E+00 -0.40414407913E+00  0.90007781865E+02  0.90000043786E+02 0.  0.
        -12    1    1    2    0    0 -0.11001920204E+01  0.13841938860E+00  0.40414407913E+00  0.11802181347E+01  0.00000000000E+00 0.  1.
         11    1    3    3    0    0 -0.21735732548E+01  0.57918688055E+01 -0.66703622872E+01  0.90974665846E+01  0.51100000000E-03 0. -1.
        -11    1    3    3    0    0  0.11746476268E+02  0.35985422883E+02  0.43608422400E+01  0.38104426384E+02  0.51100000000E-03 0.  1.
         12    1    3    3    0    0 -0.84727109928E+01 -0.41915711077E+02  0.19053759681E+01  0.42805888897E+02  0.00000000000E+00 0. -1.
</event>
<event>
 7    1  0.2593256E-015  0.9000774E+02  0.7816164E-02  0.1186339E+00
        -11   -1    0    0    0    0  0.00000000000E+00  0.00000000000E+00  0.45593999997E+02  0.45594000000E+02  0.51100000000E-03 0.  1.
         11   -1    0    0    0    0 -0.00000000000E+00 -0.00000000000E+00 -0.45593999997E+02  0.45594000000E+02  0.51100000000E-03 0. -1.
    9900012    2    1    2    0    0 -0.73991408544E+00  0.50369460741E+00 -0.76930567147E+00  0.90007740568E+02  0.90000001943E+02 0.  0.
        -12    1    1    2    0    0  0.73991408544E+00 -0.50369460741E+00  0.76930567147E+00  0.11802594323E+01  0.00000000000E+00 0.  1.
         11    1    3    3    0    0  0.23327483019E+01 -0.38046061174E+01  0.71156084715E+01  0.83993229804E+01  0.51100000000E-03 0. -1.
        -11    1    3    3    0    0 -0.39806028293E+02  0.11395696326E+01  0.93560848090E+01  0.40906659979E+02  0.51100000000E-03 0.  1.
         12    1    3    3    0    0  0.36733365906E+02  0.31687310922E+01 -0.17240998952E+02  0.40701757608E+02  0.00000000000E+00 0. -1.
</event>
<event>
 7    1  0.2593256E-015  0.9000778E+02  0.7816164E-02  0.1186339E+00
        -11   -1    0    0    0    0  0.00000000000E+00  0.00000000000E+00  0.45593999997E+02  0.45594000000E+02  0.51100000000E-03 0.  1.
         11   -1    0    0    0    0 -0.00000000000E+00 -0.00000000000E+00 -0.45593999997E+02  0.45594000000E+02  0.51100000000E-03 0. -1.
    9900012    2    1    2    0    0 -0.23008783050E+00 -0.11420695396E+01  0.18882689950E+00  0.90007780173E+02  0.90000042071E+02 0.  0.
        -12    1    1    2    0    0  0.23008783050E+00  0.11420695396E+01 -0.18882689950E+00  0.11802198274E+01  0.00000000000E+00 0.  1.
         11    1    3    3    0    0 -0.45984825245E+01 -0.12279436630E+02 -0.12997259442E+02  0.18462376844E+02  0.51100000000E-03 0. -1.
        -11    1    3    3    0    0 -0.14972084865E+02 -0.25090884356E+02  0.65767121589E+01  0.29949439828E+02  0.51100000000E-03 0.  1.
         12    1    3    3    0    0  0.19340479559E+02  0.36228251446E+02  0.66093741824E+01  0.41595963500E+02  0.00000000000E+00 0. -1.
</event>
<event>
 7    1  0.2593256E-015  0.9000776E+02  0.7816164E-02  0.1186339E+00
        -11   -1    0    0    0    0  0.00000000000E+00  0.00000000000E+00  0.45593999997E+02  0.45594000000E+02  0.51100000000E-03 0. -1.
         11   -1    0    0    0    0 -0.00000000000E+00 -0.00000000000E+00 -0.45593999997E+02  0.45594000000E+02  0.51100000000E-03 0.  1.
    9900012    2    1    2    0    0 -0.80498033313E+00 -0.79096277985E+00 -0.34545630649E+00  0.90007764636E+02  0.90000026329E+02 0.  0.
        -12    1    1    2    0    0  0.80498033313E+00  0.79096277985E+00  0.34545630649E+00  0.11802353645E+01  0.00000000000E+00 0.  1.
         11    1    3    3    0    0 -0.67960572735E+01  0.34916464614E+02 -0.10075327849E+02  0.36971044442E+02  0.51100000000E-03 0. -1.
        -11    1    3    3    0    0  0.85469058158E+01  0.59027980359E+01  0.29714490186E+01  0.10803801794E+02  0.51100000000E-03 0.  1.
        -12    1    3    3    0    0 -0.25558288754E+01 -0.41610225430E+02  0.67584225237E+01  0.42232918400E+02  0.00000000000E+00 0.  1.
</event>
<event>
 7    1  0.2593256E-015  0.9000735E+02  0.7816164E-02  0.1186340E+00
        -11   -1    0    0    0    0  0.00000000000E+00  0.00000000000E+00  0.45593999997E+02  0.45594000000E+02  0.51100000000E-03 0.  1.
         11   -1    0    0    0    0 -0.00000000000E+00 -0.00000000000E+00 -0.45593999997E+02  0.45594000000E+02  0.51100000000E-03 0. -1.
    9900012    2    1    2    0    0 -0.37077665030E+00  0.10524292240E+01 -0.38582083367E+00  0.90007347506E+02  0.89999603692E+02 0.  0.
        -12    1    1    2    0    0  0.37077665030E+00 -0.10524292240E+01  0.38582083367E+00  0.11806524941E+01  0.00000000000E+00 0.  1.
         11    1    3    3    0    0  0.16000496971E+02 -0.20231885320E+02  0.18210844553E+01  0.25858488660E+02  0.51100000000E-03 0. -1.
        -11    1    3    3    0    0  0.13126748608E+02 -0.11701777758E+02 -0.83601049259E+01  0.19471376077E+02  0.51100000000E-03 0.  1.
        -12    1    3    3    0    0 -0.29498022229E+02  0.32986092302E+02  0.61531996369E+01  0.44677482769E+02  0.00000000000E+00 0.  1.
</event>
<event>
 7    1  0.2593256E-015  0.9000772E+02  0.7816164E-02  0.1186339E+00
        -11   -1    0    0    0    0  0.00000000000E+00  0.00000000000E+00  0.45593999997E+02  0.45594000000E+02  0.51100000000E-03 0.  1.
         11   -1    0    0    0    0 -0.00000000000E+00 -0.00000000000E+00 -0.45593999997E+02  0.45594000000E+02  0.51100000000E-03 0. -1.
    9900012    2    1    2    0    0  0.33574350500E+00 -0.70925479626E+00 -0.88164572982E+00  0.90007718144E+02  0.89999979223E+02 0.  0.
        -12    1    1    2    0    0 -0.33574350500E+00  0.70925479626E+00  0.88164572982E+00  0.11802818562E+01  0.00000000000E+00 0.  1.
         11    1    3    3    0    0  0.54944564082E+01 -0.13434854622E+01  0.10267422590E+02  0.11722370550E+02  0.51100000000E-03 0. -1.
        -11    1    3    3    0    0 -0.26467901631E+02 -0.17386301286E+02  0.19217734315E+02  0.37042605222E+02  0.51100000000E-03 0.  1.
         12    1    3    3    0    0  0.21309188727E+02  0.18020531952E+02 -0.30366802635E+02  0.41242742372E+02  0.00000000000E+00 0. -1.
</event>
<event>
 7    1  0.2593256E-015  0.9000776E+02  0.7816164E-02  0.1186339E+00
        -11   -1    0    0    0    0  0.00000000000E+00  0.00000000000E+00  0.45593999997E+02  0.45594000000E+02  0.51100000000E-03 0.  1.
         11   -1    0    0    0    0 -0.00000000000E+00 -0.00000000000E+00 -0.45593999997E+02  0.45594000000E+02  0.51100000000E-03 0. -1.
    9900012    2    1    2    0    0  0.54471468548E+00 -0.75806464402E+00 -0.72221581585E+00  0.90007757746E+02  0.90000019348E+02 0.  0.
        -12    1    1    2    0    0 -0.54471468548E+00  0.75806464402E+00  0.72221581585E+00  0.11802422538E+01  0.00000000000E+00 0.  1.
         11    1    3    3    0    0 -0.13313801077E+02  0.14959768425E+02 -0.32549792195E+02  0.38217024251E+02  0.51100000000E-03 0. -1.
        -11    1    3    3    0    0 -0.40672136658E+01  0.80272056211E+01  0.11773993470E+01  0.90754904314E+01  0.51100000000E-03 0.  1.
        -12    1    3    3    0    0  0.17925729428E+02 -0.23745038690E+02  0.30650177032E+02  0.42715243064E+02  0.00000000000E+00 0.  1.
</event>
<event>
 7    1  0.2593256E-015  0.9000779E+02  0.7816164E-02  0.1186339E+00
        -11   -1    0    0    0    0  0.00000000000E+00  0.00000000000E+00  0.45593999997E+02  0.45594000000E+02  0.51100000000E-03 0. -1.
         11   -1    0    0    0    0 -0.00000000000E+00 -0.00000000000E+00 -0.45593999997E+02  0.45594000000E+02  0.51100000000E-03 0.  1.
    9900012    2    1    2    0    0 -0.36921281685E+00  0.69721668344E+00  0.87775972335E+00  0.90007791824E+02  0.90000053876E+02 0.  0.
        -12    1    1    2    0    0  0.36921281685E+00 -0.69721668344E+00 -0.87775972335E+00  0.11802081764E+01  0.00000000000E+00 0.  1.
         11    1    3    3    0    0  0.58009613467E+01  0.66653685591E+01 -0.15534436594E+01  0.89717042995E+01  0.51100000000E-03 0. -1.
        -11    1    3    3    0    0 -0.13815108780E+02  0.26240791015E+02 -0.24416679824E+02  0.38413677220E+02  0.51100000000E-03 0.  1.
         12    1    3    3    0    0  0.76449346163E+01 -0.32208942891E+02  0.26847883207E+02  0.42622410304E+02  0.00000000000E+00 0. -1.
</event>
<event>
 7    1  0.2593256E-015  0.9000814E+02  0.7816164E-02  0.1186338E+00
        -11   -1    0    0    0    0  0.00000000000E+00  0.00000000000E+00  0.45593999997E+02  0.45594000000E+02  0.51100000000E-03 0.  1.
         11   -1    0    0    0    0 -0.00000000000E+00 -0.00000000000E+00 -0.45593999997E+02  0.45594000000E+02  0.51100000000E-03 0. -1.
    9900012    2    1    2    0    0  0.44089251989E-01  0.46557620009E+00 -0.10832162602E+01  0.90008143006E+02  0.90000409693E+02 0.  0.
        -12    1    1    2    0    0 -0.44089251989E-01 -0.46557620009E+00  0.10832162602E+01  0.11798569941E+01  0.00000000000E+00 0.  1.
         11    1    3    3    0    0  0.50831269583E+01  0.54921057620E+01  0.44697604957E+01  0.87166601703E+01  0.51100000000E-03 0. -1.
        -11    1    3    3    0    0 -0.61140421155E+01  0.72257952850E+01  0.36380388347E+02  0.37591571995E+02  0.51100000000E-03 0.  1.
         12    1    3    3    0    0  0.10750044093E+01 -0.12252324847E+02 -0.41933365103E+02  0.43699910841E+02  0.00000000000E+00 0. -1.
</event>
<event>
 7    1  0.2593256E-015  0.9000773E+02  0.7816164E-02  0.1186339E+00
        -11   -1    0    0    0    0  0.00000000000E+00  0.00000000000E+00  0.45593999997E+02  0.45594000000E+02  0.51100000000E-03 0.  1.
         11   -1    0    0    0    0 -0.00000000000E+00 -0.00000000000E+00 -0.45593999997E+02  0.45594000000E+02  0.51100000000E-03 0. -1.
    9900012    2    1    2    0    0 -0.54166551054E+00  0.75764202715E+00  0.72499466741E+00  0.90007728745E+02  0.89999989965E+02 0.  0.
        -12    1    1    2    0    0  0.54166551054E+00 -0.75764202715E+00 -0.72499466741E+00  0.11802712546E+01  0.00000000000E+00 0.  1.
         11    1    3    3    0    0  0.52219780376E+01 -0.48437936153E+01  0.62697370025E+01  0.94889932846E+01  0.51100000000E-03 0. -1.
        -11    1    3    3    0    0 -0.42794071480E+02  0.13393719364E+01 -0.60503501154E+01  0.43240411744E+02  0.51100000000E-03 0.  1.
         12    1    3    3    0    0  0.37030427932E+02  0.42620637060E+01  0.50560778027E+00  0.37278323716E+02  0.00000000000E+00 0. -1.
</event>
<event>
 7    1  0.2593256E-015  0.9000764E+02  0.7816164E-02  0.1186339E+00
        -11   -1    0    0    0    0  0.00000000000E+00  0.00000000000E+00  0.45593999997E+02  0.45594000000E+02  0.51100000000E-03 0.  1.
         11   -1    0    0    0    0 -0.00000000000E+00 -0.00000000000E+00 -0.45593999997E+02  0.45594000000E+02  0.51100000000E-03 0. -1.
    9900012    2    1    2    0    0  0.54142013028E+00  0.18362779065E+00 -0.10326608406E+01  0.90007642709E+02  0.89999902793E+02 0.  0.
        -12    1    1    2    0    0 -0.54142013028E+00 -0.18362779065E+00  0.10326608406E+01  0.11803572911E+01  0.00000000000E+00 0.  1.
         11    1    3    3    0    0  0.61071172655E+01  0.12259712807E+01  0.78696848212E+01  0.10036524614E+02  0.51100000000E-03 0. -1.
        -11    1    3    3    0    0 -0.12318283779E+02 -0.48688564656E+01  0.33939126867E+02  0.36432268818E+02  0.51100000000E-03 0.  1.
         12    1    3    3    0    0  0.67525866436E+01  0.38265129756E+01 -0.42841472528E+02  0.43538849277E+02  0.00000000000E+00 0. -1.
</event>
<event>
 7    1  0.2593256E-015  0.9000794E+02  0.7816164E-02  0.1186339E+00
        -11   -1    0    0    0    0  0.00000000000E+00  0.00000000000E+00  0.45593999997E+02  0.45594000000E+02  0.51100000000E-03 0.  1.
         11   -1    0    0    0    0 -0.00000000000E+00 -0.00000000000E+00 -0.45593999997E+02  0.45594000000E+02  0.51100000000E-03 0. -1.
    9900012    2    1    2    0    0  0.11053210097E+01 -0.96933638365E-01 -0.40175048085E+00  0.90007943174E+02  0.90000207223E+02 0.  0.
        -12    1    1    2    0    0 -0.11053210097E+01  0.96933638365E-01  0.40175048085E+00  0.11800568264E+01  0.00000000000E+00 0.  1.
         11    1    3    3    0    0 -0.18728339126E+02 -0.25202730924E+02 -0.17464611311E+02  0.35929667143E+02  0.51100000000E-03 0. -1.
        -11    1    3    3    0    0  0.10965083023E+01 -0.58375268179E+01 -0.80773010019E+01  0.10026058126E+02  0.51100000000E-03 0.  1.
        -12    1    3    3    0    0  0.18737151834E+02  0.30943324104E+02  0.25140161832E+02  0.44052217905E+02  0.00000000000E+00 0.  1.
</event>
<event>
 7    1  0.2593256E-015  0.9000777E+02  0.7816164E-02  0.1186339E+00
        -11   -1    0    0    0    0  0.00000000000E+00  0.00000000000E+00  0.45593999997E+02  0.45594000000E+02  0.51100000000E-03 0. -1.
         11   -1    0    0    0    0 -0.00000000000E+00 -0.00000000000E+00 -0.45593999997E+02  0.45594000000E+02  0.51100000000E-03 0.  1.
    9900012    2    1    2    0    0  0.38780614567E+00 -0.11113412620E+01 -0.86452638405E-01  0.90007768215E+02  0.90000029956E+02 0.  0.
        -12    1    1    2    0    0 -0.38780614567E+00  0.11113412620E+01  0.86452638405E-01  0.11802317848E+01  0.00000000000E+00 0.  1.
         11    1    3    3    0    0  0.60370617057E+00 -0.29797064634E+02  0.20585355854E+02  0.36221352788E+02  0.51100000000E-03 0. -1.
        -11    1    3    3    0    0 -0.49574443818E+01 -0.90115729873E+01  0.48899060896E+00  0.10296786614E+02  0.51100000000E-03 0.  1.
        -12    1    3    3    0    0  0.47415443569E+01  0.37697296359E+02 -0.21160799101E+02  0.43489628813E+02  0.00000000000E+00 0.  1.
</event>
<event>
 7    1  0.2593256E-015  0.9000771E+02  0.7816164E-02  0.1186339E+00
        -11   -1    0    0    0    0  0.00000000000E+00  0.00000000000E+00  0.45593999997E+02  0.45594000000E+02  0.51100000000E-03 0. -1.
         11   -1    0    0    0    0 -0.00000000000E+00 -0.00000000000E+00 -0.45593999997E+02  0.45594000000E+02  0.51100000000E-03 0.  1.
    9900012    2    1    2    0    0 -0.66030515591E-01 -0.79179283940E+00  0.87280062317E+00  0.90007713231E+02  0.89999974246E+02 0.  0.
        -12    1    1    2    0    0  0.66030515591E-01  0.79179283940E+00 -0.87280062317E+00  0.11802867691E+01  0.00000000000E+00 0.  1.
         11    1    3    3    0    0 -0.10616719529E+00  0.39279065227E+02  0.11990910714E+02  0.41068700693E+02  0.51100000000E-03 0. -1.
        -11    1    3    3    0    0  0.68230409632E+00  0.43652948508E+00  0.52006559352E+01  0.52633562760E+01  0.51100000000E-03 0.  1.
        -12    1    3    3    0    0 -0.64216741662E+00 -0.40507387552E+02 -0.16318766026E+02  0.43675656262E+02  0.00000000000E+00 0.  1.
</event>
<event>
 7    1  0.2593256E-015  0.9000762E+02  0.7816164E-02  0.1186339E+00
        -11   -1    0    0    0    0  0.00000000000E+00  0.00000000000E+00  0.45593999997E+02  0.45594000000E+02  0.51100000000E-03 0.  1.
         11   -1    0    0    0    0 -0.00000000000E+00 -0.00000000000E+00 -0.45593999997E+02  0.45594000000E+02  0.51100000000E-03 0. -1.
    9900012    2    1    2    0    0  0.17344355076E+00  0.10253103237E+01 -0.55852272310E+00  0.90007622282E+02  0.89999882096E+02 0.  0.
        -12    1    1    2    0    0 -0.17344355076E+00 -0.10253103237E+01  0.55852272310E+00  0.11803777181E+01  0.00000000000E+00 0.  1.
         11    1    3    3    0    0  0.66204605497E+01 -0.14309293112E+02 -0.16602687852E+02  0.22896192073E+02  0.51100000000E-03 0. -1.
        -11    1    3    3    0    0 -0.79493915035E+01  0.93948387823E+01  0.40277434521E+02  0.42115644990E+02  0.51100000000E-03 0.  1.
         12    1    3    3    0    0  0.15023745046E+01  0.59397646532E+01 -0.24233269392E+02  0.24995785219E+02  0.00000000000E+00 0. -1.
</event>
<event>
 7    1  0.2593256E-015  0.9000766E+02  0.7816164E-02  0.1186339E+00
        -11   -1    0    0    0    0  0.00000000000E+00  0.00000000000E+00  0.45593999997E+02  0.45594000000E+02  0.51100000000E-03 0. -1.
         11   -1    0    0    0    0 -0.00000000000E+00 -0.00000000000E+00 -0.45593999997E+02  0.45594000000E+02  0.51100000000E-03 0.  1.
    9900012    2    1    2    0    0  0.83919744364E+00 -0.78575679372E+00  0.26746307599E+00  0.90007659970E+02  0.89999920282E+02 0.  0.
        -12    1    1    2    0    0 -0.83919744364E+00  0.78575679372E+00 -0.26746307599E+00  0.11803400295E+01  0.00000000000E+00 0.  1.
         11    1    3    3    0    0 -0.41362216710E+01 -0.63036855941E+01 -0.14090744513E+02  0.15981046993E+02  0.51100000000E-03 0. -1.
        -11    1    3    3    0    0  0.35233321116E+02 -0.10268728516E+02  0.15595853129E+02  0.39875610808E+02  0.51100000000E-03 0.  1.
         12    1    3    3    0    0 -0.30257902001E+02  0.15786657316E+02 -0.12376455400E+01  0.34151002170E+02  0.00000000000E+00 0. -1.
</event>
<event>
 7    1  0.2593256E-015  0.9000781E+02  0.7816164E-02  0.1186339E+00
        -11   -1    0    0    0    0  0.00000000000E+00  0.00000000000E+00  0.45593999997E+02  0.45594000000E+02  0.51100000000E-03 0. -1.
         11   -1    0    0    0    0 -0.00000000000E+00 -0.00000000000E+00 -0.45593999997E+02  0.45594000000E+02  0.51100000000E-03 0.  1.
    9900012    2    1    2    0    0  0.83766541222E+00  0.50900518759E+00  0.65731950787E+00  0.90007814184E+02  0.90000076532E+02 0.  0.
        -12    1    1    2    0    0 -0.83766541222E+00 -0.50900518759E+00 -0.65731950787E+00  0.11801858156E+01  0.00000000000E+00 0.  1.
         11    1    3    3    0    0  0.51408879367E+01  0.93259446168E+01 -0.21174384263E+01  0.10857509729E+02  0.51100000000E-03 0. -1.
        -11    1    3    3    0    0 -0.77730048478E+01  0.34497594813E+02  0.45900728959E+01  0.35659114147E+02  0.51100000000E-03 0.  1.
         12    1    3    3    0    0  0.34697823233E+01 -0.43314534243E+02 -0.18153149617E+01  0.43491190308E+02  0.00000000000E+00 0. -1.
</event>
<event>
 7    1  0.2593256E-015  0.9000740E+02  0.7816164E-02  0.1186340E+00
        -11   -1    0    0    0    0  0.00000000000E+00  0.00000000000E+00  0.45593999997E+02  0.45594000000E+02  0.51100000000E-03 0.  1.
         11   -1    0    0    0    0 -0.00000000000E+00 -0.00000000000E+00 -0.45593999997E+02  0.45594000000E+02  0.51100000000E-03 0. -1.
    9900012    2    1    2    0    0  0.10236645515E+01  0.32621107354E+00 -0.48940826415E+00  0.90007397091E+02  0.89999653932E+02 0.  0.
        -12    1    1    2    0    0 -0.10236645515E+01 -0.32621107354E+00  0.48940826415E+00  0.11806029085E+01  0.00000000000E+00 0.  1.
         11    1    3    3    0    0  0.36206000664E+02  0.86088383316E+01 -0.12702917972E+02  0.39323665989E+02  0.51100000000E-03 0. -1.
        -11    1    3    3    0    0 -0.29057729417E+00  0.96420277341E+01  0.16272617628E+00  0.96477776746E+01  0.51100000000E-03 0.  1.
        -12    1    3    3    0    0 -0.34891758819E+02 -0.17924654992E+02  0.12050783531E+02  0.41035953428E+02  0.00000000000E+00 0.  1.
</event>
<event>
 7    1  0.2593256E-015  0.9000781E+02  0.7816164E-02  0.1186339E+00
        -11   -1    0    0    0    0  0.00000000000E+00  0.00000000000E+00  0.45593999997E+02  0.45594000000E+02  0.51100000000E-03 0.  1.
         11   -1    0    0    0    0 -0.00000000000E+00 -0.00000000000E+00 -0.45593999997E+02  0.45594000000E+02  0.51100000000E-03 0. -1.
    9900012    2    1    2    0    0  0.79469300003E+00  0.31357180308E+00 -0.81424134743E+00  0.90007807977E+02  0.90000070242E+02 0.  0.
        -12    1    1    2    0    0 -0.79469300003E+00 -0.31357180308E+00  0.81424134743E+00  0.11801920233E+01  0.00000000000E+00 0.  1.
         11    1    3    3    0    0 -0.64936479866E+01 -0.25790563742E+02  0.18543252298E+02  0.32421795884E+02  0.51100000000E-03 0. -1.
        -11    1    3    3    0    0 -0.18386763218E+02  0.43133981074E+01 -0.29251019451E+00  0.18888198097E+02  0.51100000000E-03 0.  1.
        -12    1    3    3    0    0  0.25675104205E+02  0.21790737438E+02 -0.19064983451E+02  0.38697813995E+02  0.00000000000E+00 0.  1.
</event>
<event>
 7    1  0.2593256E-015  0.9000773E+02  0.7816164E-02  0.1186339E+00
        -11   -1    0    0    0    0  0.00000000000E+00  0.00000000000E+00  0.45593999997E+02  0.45594000000E+02  0.51100000000E-03 0. -1.
         11   -1    0    0    0    0 -0.00000000000E+00 -0.00000000000E+00 -0.45593999997E+02  0.45594000000E+02  0.51100000000E-03 0.  1.
    9900012    2    1    2    0    0 -0.28456483410E+00 -0.63345773614E+00  0.95434947842E+00  0.90007733600E+02  0.89999994883E+02 0.  0.
        -12    1    1    2    0    0  0.28456483410E+00  0.63345773614E+00 -0.95434947842E+00  0.11802664001E+01  0.00000000000E+00 0.  1.
         11    1    3    3    0    0 -0.38620471921E+02  0.11237778565E+02  0.11281137866E+02  0.41774305384E+02  0.51100000000E-03 0. -1.
        -11    1    3    3    0    0  0.55283089546E+01  0.72476338400E+01 -0.13500898537E+01  0.92148325568E+01  0.51100000000E-03 0.  1.
        -12    1    3    3    0    0  0.32807598132E+02 -0.19118870141E+02 -0.89766985342E+01  0.39018595660E+02  0.00000000000E+00 0.  1.
</event>
<event>
 7    1  0.2593256E-015  0.9000778E+02  0.7816164E-02  0.1186339E+00
        -11   -1    0    0    0    0  0.00000000000E+00  0.00000000000E+00  0.45593999997E+02  0.45594000000E+02  0.51100000000E-03 0.  1.
         11   -1    0    0    0    0 -0.00000000000E+00 -0.00000000000E+00 -0.45593999997E+02  0.45594000000E+02  0.51100000000E-03 0. -1.
    9900012    2    1    2    0    0 -0.10136288624E+01 -0.50856417150E+00  0.32684327860E+00  0.90007784970E+02  0.90000046932E+02 0.  0.
        -12    1    1    2    0    0  0.10136288624E+01  0.50856417150E+00 -0.32684327860E+00  0.11802150295E+01  0.00000000000E+00 0.  1.
         11    1    3    3    0    0  0.33682461206E+02  0.22066006497E+02 -0.11860388316E+01  0.40284283834E+02  0.51100000000E-03 0. -1.
        -11    1    3    3    0    0  0.30816837355E+01  0.14896393896E+01  0.34905293301E+01  0.48887212461E+01  0.51100000000E-03 0.  1.
        -12    1    3    3    0    0 -0.37777773804E+02 -0.24064210059E+02 -0.19776472199E+01  0.44834779891E+02  0.00000000000E+00 0.  1.
</event>
<event>
 7    1  0.2593256E-015  0.9000773E+02  0.7816164E-02  0.1186339E+00
        -11   -1    0    0    0    0  0.00000000000E+00  0.00000000000E+00  0.45593999997E+02  0.45594000000E+02  0.51100000000E-03 0.  1.
         11   -1    0    0    0    0 -0.00000000000E+00 -0.00000000000E+00 -0.45593999997E+02  0.45594000000E+02  0.51100000000E-03 0. -1.
    9900012    2    1    2    0    0 -0.39106442317E+00 -0.81859085334E+00 -0.75500084523E+00  0.90007725183E+02  0.89999986355E+02 0.  0.
        -12    1    1    2    0    0  0.39106442317E+00  0.81859085334E+00  0.75500084523E+00  0.11802748174E+01  0.00000000000E+00 0.  1.
         11    1    3    3    0    0 -0.15776815535E+01  0.23656726160E+02 -0.36811220128E+02  0.43785793350E+02  0.51100000000E-03 0. -1.
        -11    1    3    3    0    0 -0.22403225229E+00  0.80981424138E+00  0.94608127606E+01  0.94980507425E+01  0.51100000000E-03 0.  1.
        -12    1    3    3    0    0  0.14106493826E+01 -0.25285131255E+02  0.26595406522E+02  0.36723881090E+02  0.00000000000E+00 0.  1.
</event>
<event>
 7    1  0.2593256E-015  0.9000770E+02  0.7816164E-02  0.1186339E+00
        -11   -1    0    0    0    0  0.00000000000E+00  0.00000000000E+00  0.45593999997E+02  0.45594000000E+02  0.51100000000E-03 0. -1.
         11   -1    0    0    0    0 -0.00000000000E+00 -0.00000000000E+00 -0.45593999997E+02  0.45594000000E+02  0.51100000000E-03 0.  1.
    9900012    2    1    2    0    0  0.94618267986E+00 -0.56276192556E+00  0.42560305774E+00  0.90007703168E+02  0.89999964050E+02 0.  0.
        -12    1    1    2    0    0 -0.94618267986E+00  0.56276192556E+00 -0.42560305774E+00  0.11802968319E+01  0.00000000000E+00 0.  1.
         11    1    3    3    0    0 -0.51400252231E+01  0.55589586613E+01  0.20673258138E+01  0.78482938894E+01  0.51100000000E-03 0. -1.
        -11    1    3    3    0    0 -0.10872471776E+02 -0.40387407609E+02  0.83323652337E+01  0.42647176302E+02  0.51100000000E-03 0.  1.
         12    1    3    3    0    0  0.16958679679E+02  0.34265687022E+02 -0.99740879898E+01  0.39512232977E+02  0.00000000000E+00 0. -1.
</event>
<event>
 7    1  0.2593256E-015  0.9000779E+02  0.7816164E-02  0.1186339E+00
        -11   -1    0    0    0    0  0.00000000000E+00  0.00000000000E+00  0.45593999997E+02  0.45594000000E+02  0.51100000000E-03 0.  1.
         11   -1    0    0    0    0 -0.00000000000E+00 -0.00000000000E+00 -0.45593999997E+02  0.45594000000E+02  0.51100000000E-03 0. -1.
    9900012    2    1    2    0    0 -0.80973829955E+00  0.84447126123E+00  0.15518254244E+00  0.90007792626E+02  0.90000054688E+02 0.  0.
        -12    1    1    2    0    0  0.80973829955E+00 -0.84447126123E+00 -0.15518254244E+00  0.11802073743E+01  0.00000000000E+00 0.  1.
         11    1    3    3    0    0 -0.59887382029E+01  0.64980142246E+00 -0.58152290823E+01  0.83728201158E+01  0.51100000000E-03 0. -1.
        -11    1    3    3    0    0 -0.69322056602E+01  0.33155327640E+02  0.24619999800E+02  0.41874522286E+02  0.51100000000E-03 0.  1.
         12    1    3    3    0    0  0.12111205564E+02 -0.32960657801E+02 -0.18649588176E+02  0.39760450224E+02  0.00000000000E+00 0. -1.
</event>
<event>
 7    1  0.2593256E-015  0.9000772E+02  0.7816164E-02  0.1186339E+00
        -11   -1    0    0    0    0  0.00000000000E+00  0.00000000000E+00  0.45593999997E+02  0.45594000000E+02  0.51100000000E-03 0. -1.
         11   -1    0    0    0    0 -0.00000000000E+00 -0.00000000000E+00 -0.45593999997E+02  0.45594000000E+02  0.51100000000E-03 0.  1.
    9900012    2    1    2    0    0  0.66124001673E+00  0.96589370485E+00 -0.15119863569E+00  0.90007724593E+02  0.89999985758E+02 0.  0.
        -12    1    1    2    0    0 -0.66124001673E+00 -0.96589370485E+00  0.15119863569E+00  0.11802754069E+01  0.00000000000E+00 0.  1.
         11    1    3    3    0    0 -0.22540922615E+02 -0.95649964351E+00  0.14181317727E+02  0.26648036638E+02  0.51100000000E-03 0. -1.
        -11    1    3    3    0    0 -0.19048080567E+02 -0.11597864402E+01 -0.17263096315E+01  0.19161279265E+02  0.51100000000E-03 0.  1.
        -12    1    3    3    0    0  0.42250243199E+02  0.30821797885E+01 -0.12606206731E+02  0.44198408690E+02  0.00000000000E+00 0.  1.
</event>
<event>
 7    1  0.2593256E-015  0.9000785E+02  0.7816164E-02  0.1186339E+00
        -11   -1    0    0    0    0  0.00000000000E+00  0.00000000000E+00  0.45593999997E+02  0.45594000000E+02  0.51100000000E-03 0. -1.
         11   -1    0    0    0    0 -0.00000000000E+00 -0.00000000000E+00 -0.45593999997E+02  0.45594000000E+02  0.51100000000E-03 0.  1.
    9900012    2    1    2    0    0 -0.16942972643E+00  0.10766771314E+01 -0.45256545851E+00  0.90007849344E+02  0.90000112155E+02 0.  0.
        -12    1    1    2    0    0  0.16942972643E+00 -0.10766771314E+01  0.45256545851E+00  0.11801506564E+01  0.00000000000E+00 0.  1.
         11    1    3    3    0    0 -0.46253761872E+01 -0.11719996328E+02  0.34998679628E+02  0.37197580496E+02  0.51100000000E-03 0. -1.
        -11    1    3    3    0    0  0.74304005408E+01 -0.50549801450E+00  0.57524675169E+01  0.94104868755E+01  0.51100000000E-03 0.  1.
        -12    1    3    3    0    0 -0.29744540800E+01  0.13302171474E+02 -0.41203712603E+02  0.43399781972E+02  0.00000000000E+00 0.  1.
</event>
<event>
 7    1  0.2593256E-015  0.9000766E+02  0.7816164E-02  0.1186339E+00
        -11   -1    0    0    0    0  0.00000000000E+00  0.00000000000E+00  0.45593999997E+02  0.45594000000E+02  0.51100000000E-03 0.  1.
         11   -1    0    0    0    0 -0.00000000000E+00 -0.00000000000E+00 -0.45593999997E+02  0.45594000000E+02  0.51100000000E-03 0. -1.
    9900012    2    1    2    0    0  0.76787277161E-02  0.87898804886E+00 -0.78773335195E+00  0.90007659885E+02  0.89999920196E+02 0.  0.
        -12    1    1    2    0    0 -0.76787277161E-02 -0.87898804886E+00  0.78773335195E+00  0.11803401148E+01  0.00000000000E+00 0.  1.
         11    1    3    3    0    0 -0.27697140394E+02  0.19982107232E+02  0.15680170504E+02  0.37580366453E+02  0.51100000000E-03 0. -1.
        -11    1    3    3    0    0 -0.66808464993E+01 -0.70317859314E+00  0.45610956662E+01  0.81198376843E+01  0.51100000000E-03 0.  1.
        -12    1    3    3    0    0  0.34385665621E+02 -0.18399940590E+02 -0.21028999522E+02  0.44307455748E+02  0.00000000000E+00 0.  1.
</event>
<event>
 7    1  0.2593256E-015  0.9000772E+02  0.7816164E-02  0.1186339E+00
        -11   -1    0    0    0    0  0.00000000000E+00  0.00000000000E+00  0.45593999997E+02  0.45594000000E+02  0.51100000000E-03 0.  1.
         11   -1    0    0    0    0 -0.00000000000E+00 -0.00000000000E+00 -0.45593999997E+02  0.45594000000E+02  0.51100000000E-03 0. -1.
    9900012    2    1    2    0    0 -0.30660254716E+00 -0.98641207438E+00 -0.57101208339E+00  0.90007716686E+02  0.89999977746E+02 0.  0.
        -12    1    1    2    0    0  0.30660254716E+00  0.98641207438E+00  0.57101208339E+00  0.11802833142E+01  0.00000000000E+00 0.  1.
         11    1    3    3    0    0 -0.11711330423E+02  0.13428291696E+02 -0.38080575071E+01  0.18220197046E+02  0.51100000000E-03 0. -1.
        -11    1    3    3    0    0  0.18412909675E+02  0.25207200781E+02  0.44542947758E+01  0.31532189206E+02  0.51100000000E-03 0.  1.
         12    1    3    3    0    0 -0.70081817993E+01 -0.39621904551E+02 -0.12172493520E+01  0.40255330434E+02  0.00000000000E+00 0. -1.
</event>
<event>
 7    1  0.2593256E-015  0.9000776E+02  0.7816164E-02  0.1186339E+00
        -11   -1    0    0    0    0  0.00000000000E+00  0.00000000000E+00  0.45593999997E+02  0.45594000000E+02  0.51100000000E-03 0.  1.
         11   -1    0    0    0    0 -0.00000000000E+00 -0.00000000000E+00 -0.45593999997E+02  0.45594000000E+02  0.51100000000E-03 0. -1.
    9900012    2    1    2    0    0 -0.10945656629E+01 -0.32961927837E+00  0.29367491208E+00  0.90007759426E+02  0.90000021050E+02 0.  0.
        -12    1    1    2    0    0  0.10945656629E+01  0.32961927837E+00 -0.29367491208E+00  0.11802405743E+01  0.00000000000E+00 0.  1.
         11    1    3    3    0    0 -0.29938908021E+02 -0.23647933847E+02 -0.84942490925E+01  0.39085998217E+02  0.51100000000E-03 0. -1.
        -11    1    3    3    0    0  0.28415908934E+01 -0.68359231848E+01 -0.48308710423E+01  0.88397850586E+01  0.51100000000E-03 0.  1.
        -12    1    3    3    0    0  0.26002751465E+02  0.30154237753E+02  0.13618795047E+02  0.42081976150E+02  0.00000000000E+00 0.  1.
</event>
<event>
 7    1  0.2593256E-015  0.9000775E+02  0.7816164E-02  0.1186339E+00
        -11   -1    0    0    0    0  0.00000000000E+00  0.00000000000E+00  0.45593999997E+02  0.45594000000E+02  0.51100000000E-03 0.  1.
         11   -1    0    0    0    0 -0.00000000000E+00 -0.00000000000E+00 -0.45593999997E+02  0.45594000000E+02  0.51100000000E-03 0. -1.
    9900012    2    1    2    0    0 -0.31600892748E+00 -0.11247856589E+01  0.16732271083E+00  0.90007745235E+02  0.90000006672E+02 0.  0.
        -12    1    1    2    0    0  0.31600892748E+00  0.11247856589E+01 -0.16732271083E+00  0.11802547649E+01  0.00000000000E+00 0.  1.
         11    1    3    3    0    0 -0.95481130277E+01  0.71168449472E+01 -0.35832682359E+02  0.37759728146E+02  0.51100000000E-03 0. -1.
        -11    1    3    3    0    0  0.89851575727E+00 -0.62129168099E+01 -0.64144021394E+01  0.89750889088E+01  0.51100000000E-03 0.  1.
        -12    1    3    3    0    0  0.83335883429E+01 -0.20287137962E+01  0.42414407209E+02  0.43272928180E+02  0.00000000000E+00 0.  1.
</event>
<event>
 7    1  0.2593256E-015  0.9000774E+02  0.7816164E-02  0.1186339E+00
        -11   -1    0    0    0    0  0.00000000000E+00  0.00000000000E+00  0.45593999997E+02  0.45594000000E+02  0.51100000000E-03 0.  1.
         11   -1    0    0    0    0 -0.00000000000E+00 -0.00000000000E+00 -0.45593999997E+02  0.45594000000E+02  0.51100000000E-03 0. -1.
    9900012    2    1    2    0    0 -0.79172427579E+00 -0.55264807590E+00  0.67880147627E+00  0.90007737881E+02  0.89999999221E+02 0.  0.
        -12    1    1    2    0    0  0.79172427579E+00  0.55264807590E+00 -0.67880147627E+00  0.11802621187E+01  0.00000000000E+00 0.  1.
         11    1    3    3    0    0  0.22781069903E+02 -0.11613892563E+02  0.99016344358E+01  0.27420831701E+02  0.51100000000E-03 0. -1.
        -11    1    3    3    0    0  0.11179639867E+02  0.21021365940E+02 -0.11343042868E+02  0.26373221177E+02  0.51100000000E-03 0.  1.
        -12    1    3    3    0    0 -0.34752434046E+02 -0.99601214521E+01  0.21202099080E+01  0.36213685003E+02  0.00000000000E+00 0.  1.
</event>
<event>
 7    1  0.2593256E-015  0.9000774E+02  0.7816164E-02  0.1186339E+00
        -11   -1    0    0    0    0  0.00000000000E+00  0.00000000000E+00  0.45593999997E+02  0.45594000000E+02  0.51100000000E-03 0.  1.
         11   -1    0    0    0    0 -0.00000000000E+00 -0.00000000000E+00 -0.45593999997E+02  0.45594000000E+02  0.51100000000E-03 0. -1.
    9900012    2    1    2    0    0  0.67071163290E+00  0.94822700015E+00 -0.20984685294E+00  0.90007735521E+02  0.89999996830E+02 0.  0.
        -12    1    1    2    0    0 -0.67071163290E+00 -0.94822700015E+00  0.20984685294E+00  0.11802644788E+01  0.00000000000E+00 0.  1.
         11    1    3    3    0    0  0.32818283812E+01 -0.81399830838E+00 -0.74196460352E+01  0.81537806151E+01  0.51100000000E-03 0. -1.
        -11    1    3    3    0    0  0.32978307558E+02  0.22791403655E+02  0.14232040093E+01  0.40112870252E+02  0.51100000000E-03 0.  1.
         12    1    3    3    0    0 -0.35589424306E+02 -0.21029178347E+02  0.57865951730E+01  0.41741084654E+02  0.00000000000E+00 0. -1.
</event>
<event>
 7    1  0.2593256E-015  0.9000775E+02  0.7816164E-02  0.1186339E+00
        -11   -1    0    0    0    0  0.00000000000E+00  0.00000000000E+00  0.45593999997E+02  0.45594000000E+02  0.51100000000E-03 0.  1.
         11   -1    0    0    0    0 -0.00000000000E+00 -0.00000000000E+00 -0.45593999997E+02  0.45594000000E+02  0.51100000000E-03 0. -1.
    9900012    2    1    2    0    0 -0.96603420282E+00  0.54764889568E+00  0.39982072404E+00  0.90007746635E+02  0.90000008091E+02 0.  0.
        -12    1    1    2    0    0  0.96603420282E+00 -0.54764889568E+00 -0.39982072404E+00  0.11802533649E+01  0.00000000000E+00 0.  1.
         11    1    3    3    0    0  0.25574600609E+02 -0.34239702789E+01 -0.26414867181E+02  0.36925993246E+02  0.51100000000E-03 0. -1.
        -11    1    3    3    0    0  0.63609385806E+01  0.58428904573E+01 -0.24827279492E+01  0.89869264408E+01  0.51100000000E-03 0.  1.
        -12    1    3    3    0    0 -0.32901573392E+02 -0.18712712827E+01  0.29297415854E+02  0.44094826948E+02  0.00000000000E+00 0.  1.
</event>
<event>
 7    1  0.2593256E-015  0.9000776E+02  0.7816164E-02  0.1186339E+00
        -11   -1    0    0    0    0  0.00000000000E+00  0.00000000000E+00  0.45593999997E+02  0.45594000000E+02  0.51100000000E-03 0. -1.
         11   -1    0    0    0    0 -0.00000000000E+00 -0.00000000000E+00 -0.45593999997E+02  0.45594000000E+02  0.51100000000E-03 0.  1.
    9900012    2    1    2    0    0  0.73321693391E+00  0.22571362967E+00  0.89688646697E+00  0.90007763138E+02  0.90000024812E+02 0.  0.
        -12    1    1    2    0    0 -0.73321693391E+00 -0.22571362967E+00 -0.89688646697E+00  0.11802368616E+01  0.00000000000E+00 0.  1.
         11    1    3    3    0    0  0.91060041835E+01  0.78348956932E+01  0.76670154755E+01  0.14250895736E+02  0.51100000000E-03 0. -1.
        -11    1    3    3    0    0  0.99394289828E+01 -0.59334634409E+01 -0.37885183624E+02  0.39614206737E+02  0.51100000000E-03 0.  1.
         12    1    3    3    0    0 -0.18312216232E+02 -0.16757186227E+01  0.31115054616E+02  0.36142660665E+02  0.00000000000E+00 0. -1.
</event>
<event>
 7    1  0.2593256E-015  0.9000772E+02  0.7816164E-02  0.1186339E+00
        -11   -1    0    0    0    0  0.00000000000E+00  0.00000000000E+00  0.45593999997E+02  0.45594000000E+02  0.51100000000E-03 0.  1.
         11   -1    0    0    0    0 -0.00000000000E+00 -0.00000000000E+00 -0.45593999997E+02  0.45594000000E+02  0.51100000000E-03 0. -1.
    9900012    2    1    2    0    0 -0.82157120635E+00 -0.20820263978E+00 -0.82141578316E+00  0.90007723983E+02  0.89999985140E+02 0.  0.
        -12    1    1    2    0    0  0.82157120635E+00  0.20820263978E+00  0.82141578316E+00  0.11802760165E+01  0.00000000000E+00 0.  1.
         11    1    3    3    0    0  0.76898833596E+01 -0.27206004249E+01  0.88516475801E+01  0.12036928092E+02  0.51100000000E-03 0. -1.
        -11    1    3    3    0    0 -0.64418093217E+01 -0.36306613231E+02  0.32209054009E+01  0.37014068994E+02  0.51100000000E-03 0.  1.
         12    1    3    3    0    0 -0.20696452442E+01  0.38819011016E+02 -0.12893968764E+02  0.40956726898E+02  0.00000000000E+00 0. -1.
</event>
<event>
 7    1  0.2593256E-015  0.9000774E+02  0.7816164E-02  0.1186339E+00
        -11   -1    0    0    0    0  0.00000000000E+00  0.00000000000E+00  0.45593999997E+02  0.45594000000E+02  0.51100000000E-03 0.  1.
         11   -1    0    0    0    0 -0.00000000000E+00 -0.00000000000E+00 -0.45593999997E+02  0.45594000000E+02  0.51100000000E-03 0. -1.
    9900012    2    1    2    0    0  0.96456612849E+00 -0.28067491899E+00 -0.61955457356E+00  0.90007739819E+02  0.90000001184E+02 0.  0.
        -12    1    1    2    0    0 -0.96456612849E+00  0.28067491899E+00  0.61955457356E+00  0.11802601815E+01  0.00000000000E+00 0.  1.
         11    1    3    3    0    0  0.14518194679E+02 -0.38188587667E+02 -0.14618619743E+02  0.43391822365E+02  0.51100000000E-03 0. -1.
        -11    1    3    3    0    0 -0.34417074387E+01  0.22885591736E+01  0.81388279178E+01  0.91281637431E+01  0.51100000000E-03 0.  1.
        -12    1    3    3    0    0 -0.10111921112E+02  0.35619353574E+02  0.58602372516E+01  0.37487753710E+02  0.00000000000E+00 0.  1.
</event>
<event>
 7    1  0.2593256E-015  0.9000776E+02  0.7816164E-02  0.1186339E+00
        -11   -1    0    0    0    0  0.00000000000E+00  0.00000000000E+00  0.45593999997E+02  0.45594000000E+02  0.51100000000E-03 0.  1.
         11   -1    0    0    0    0 -0.00000000000E+00 -0.00000000000E+00 -0.45593999997E+02  0.45594000000E+02  0.51100000000E-03 0. -1.
    9900012    2    1    2    0    0 -0.67566215133E+00  0.96141575998E+00  0.11009800393E+00  0.90007762237E+02  0.90000023899E+02 0.  0.
        -12    1    1    2    0    0  0.67566215133E+00 -0.96141575998E+00 -0.11009800393E+00  0.11802377628E+01  0.00000000000E+00 0.  1.
         11    1    3    3    0    0  0.56094159962E+01  0.25582674937E+01 -0.34716852355E+01  0.70755126333E+01  0.51100000000E-03 0. -1.
        -11    1    3    3    0    0  0.24956893138E+02 -0.19536109026E+02  0.25573034108E+02  0.40724515280E+02  0.51100000000E-03 0.  1.
         12    1    3    3    0    0 -0.31241971286E+02  0.17939257292E+02 -0.21991250869E+02  0.42207734324E+02  0.00000000000E+00 0. -1.
</event>
<event>
 7    1  0.2593256E-015  0.9000782E+02  0.7816164E-02  0.1186339E+00
        -11   -1    0    0    0    0  0.00000000000E+00  0.00000000000E+00  0.45593999997E+02  0.45594000000E+02  0.51100000000E-03 0.  1.
         11   -1    0    0    0    0 -0.00000000000E+00 -0.00000000000E+00 -0.45593999997E+02  0.45594000000E+02  0.51100000000E-03 0. -1.
    9900012    2    1    2    0    0 -0.62198852867E+00  0.93186388659E+00  0.37092758521E+00  0.90007818952E+02  0.90000081362E+02 0.  0.
        -12    1    1    2    0    0  0.62198852867E+00 -0.93186388659E+00 -0.37092758521E+00  0.11801810481E+01  0.00000000000E+00 0.  1.
         11    1    3    3    0    0  0.11991814002E+02 -0.27169397033E+01 -0.24456574123E+01  0.12536610581E+02  0.51100000000E-03 0. -1.
        -11    1    3    3    0    0 -0.62273577661E+01 -0.33285560365E+02  0.16371671060E+02  0.37613031347E+02  0.51100000000E-03 0.  1.
         12    1    3    3    0    0 -0.63864447648E+01  0.36934363955E+02 -0.13555086062E+02  0.39858177024E+02  0.00000000000E+00 0. -1.
</event>
<event>
 7    1  0.2593256E-015  0.9000775E+02  0.7816164E-02  0.1186339E+00
        -11   -1    0    0    0    0  0.00000000000E+00  0.00000000000E+00  0.45593999997E+02  0.45594000000E+02  0.51100000000E-03 0.  1.
         11   -1    0    0    0    0 -0.00000000000E+00 -0.00000000000E+00 -0.45593999997E+02  0.45594000000E+02  0.51100000000E-03 0. -1.
    9900012    2    1    2    0    0  0.11680480173E+01  0.16657968881E+00 -0.30200119570E-01  0.90007747057E+02  0.90000008518E+02 0.  0.
        -12    1    1    2    0    0 -0.11680480173E+01 -0.16657968881E+00  0.30200119570E-01  0.11802529435E+01  0.00000000000E+00 0.  1.
         11    1    3    3    0    0 -0.20690147324E-01 -0.43584539939E+00 -0.10752269455E+02  0.10761119272E+02  0.51100000000E-03 0. -1.
        -11    1    3    3    0    0  0.28587734798E+02 -0.26686071478E+02 -0.37689107852E-01  0.39107626015E+02  0.51100000000E-03 0.  1.
         12    1    3    3    0    0 -0.27398996633E+02  0.27288496566E+02  0.10759758443E+02  0.40139001770E+02  0.00000000000E+00 0. -1.
</event>
<event>
 7    1  0.2593256E-015  0.9000774E+02  0.7816164E-02  0.1186339E+00
        -11   -1    0    0    0    0  0.00000000000E+00  0.00000000000E+00  0.45593999997E+02  0.45594000000E+02  0.51100000000E-03 0. -1.
         11   -1    0    0    0    0 -0.00000000000E+00 -0.00000000000E+00 -0.45593999997E+02  0.45594000000E+02  0.51100000000E-03 0.  1.
    9900012    2    1    2    0    0  0.10675005761E+00  0.10115988178E+01 -0.59856233772E+00  0.90007743835E+02  0.90000005254E+02 0.  0.
        -12    1    1    2    0    0 -0.10675005761E+00 -0.10115988178E+01  0.59856233772E+00  0.11802561650E+01  0.00000000000E+00 0.  1.
         11    1    3    3    0    0  0.74452504644E+01 -0.26354508882E+01 -0.15593690670E+01  0.80504029719E+01  0.51100000000E-03 0. -1.
        -11    1    3    3    0    0  0.78488334675E+01  0.14238745974E+02 -0.36617615726E+02  0.40064895550E+02  0.51100000000E-03 0.  1.
         12    1    3    3    0    0 -0.15187333874E+02 -0.10591696268E+02  0.37578422456E+02  0.41892445313E+02  0.00000000000E+00 0. -1.
</event>
<event>
 7    1  0.2593256E-015  0.9000772E+02  0.7816164E-02  0.1186339E+00
        -11   -1    0    0    0    0  0.00000000000E+00  0.00000000000E+00  0.45593999997E+02  0.45594000000E+02  0.51100000000E-03 0.  1.
         11   -1    0    0    0    0 -0.00000000000E+00 -0.00000000000E+00 -0.45593999997E+02  0.45594000000E+02  0.51100000000E-03 0. -1.
    9900012    2    1    2    0    0 -0.34277866312E+00 -0.11289503725E+01  0.32039242987E-01  0.90007723478E+02  0.89999984628E+02 0.  0.
        -12    1    1    2    0    0  0.34277866312E+00  0.11289503725E+01 -0.32039242987E-01  0.11802765221E+01  0.00000000000E+00 0.  1.
         11    1    3    3    0    0  0.50846593766E+01  0.80229689076E+01  0.16976407156E+01  0.96490297610E+01  0.51100000000E-03 0. -1.
        -11    1    3    3    0    0 -0.15846448003E+02  0.32714886910E+02  0.50347866936E+01  0.36697722234E+02  0.51100000000E-03 0.  1.
         12    1    3    3    0    0  0.10419009964E+02 -0.41866806190E+02 -0.67003881663E+01  0.43660971482E+02  0.00000000000E+00 0. -1.
</event>
<event>
 7    1  0.2593256E-015  0.9000776E+02  0.7816164E-02  0.1186339E+00
        -11   -1    0    0    0    0  0.00000000000E+00  0.00000000000E+00  0.45593999997E+02  0.45594000000E+02  0.51100000000E-03 0.  1.
         11   -1    0    0    0    0 -0.00000000000E+00 -0.00000000000E+00 -0.45593999997E+02  0.45594000000E+02  0.51100000000E-03 0. -1.
    9900012    2    1    2    0    0 -0.31536887082E+00  0.10722362595E+01 -0.37923149894E+00  0.90007760765E+02  0.90000022408E+02 0.  0.
        -12    1    1    2    0    0  0.31536887082E+00 -0.10722362595E+01  0.37923149894E+00  0.11802392345E+01  0.00000000000E+00 0.  1.
         11    1    3    3    0    0 -0.48468723189E+01  0.61652744147E+00 -0.72947017529E+01  0.87798036018E+01  0.51100000000E-03 0. -1.
        -11    1    3    3    0    0  0.30545760865E+01 -0.39839407134E+02  0.85969966399E+01  0.40870737054E+02  0.51100000000E-03 0.  1.
         12    1    3    3    0    0  0.14769273615E+01  0.40295115952E+02 -0.16815263859E+01  0.40357220110E+02  0.00000000000E+00 0. -1.
</event>
<event>
 7    1  0.2938725E-015  0.9000757E+02  0.7816164E-02  0.1186339E+00
        -11   -1    0    0    0    0  0.00000000000E+00  0.00000000000E+00  0.45593999997E+02  0.45594000000E+02  0.51100000000E-03 0. -1.
         11   -1    0    0    0    0 -0.00000000000E+00 -0.00000000000E+00 -0.45593999997E+02  0.45594000000E+02  0.51100000000E-03 0.  1.
    9900012    2    1    2    0    0  0.92340435229E+00 -0.25219209619E+00  0.69075751330E+00  0.90007566862E+02  0.89999825944E+02 0.  0.
        -12    1    1    2    0    0 -0.92340435229E+00  0.25219209619E+00 -0.69075751330E+00  0.11804331380E+01  0.00000000000E+00 0.  1.
         11    1    3    3    0    0 -0.28633034692E+02  0.38028587602E+01  0.29785561669E+02  0.41490867605E+02  0.51100000000E-03 0. -1.
        -11    1    3    3    0    0  0.79312003241E+01  0.47885957659E+01  0.21419347434E+01  0.95090731776E+01  0.51100000000E-03 0.  1.
        -12    1    3    3    0    0  0.21625238720E+02 -0.88436466223E+01 -0.31236738899E+02  0.39007626079E+02  0.00000000000E+00 0.  1.
</event>
<event>
 7    1  0.2593256E-015  0.9000767E+02  0.7816164E-02  0.1186339E+00
        -11   -1    0    0    0    0  0.00000000000E+00  0.00000000000E+00  0.45593999997E+02  0.45594000000E+02  0.51100000000E-03 0.  1.
         11   -1    0    0    0    0 -0.00000000000E+00 -0.00000000000E+00 -0.45593999997E+02  0.45594000000E+02  0.51100000000E-03 0. -1.
    9900012    2    1    2    0    0  0.99639742640E+00 -0.55709492393E+00 -0.30001464881E+00  0.90007673191E+02  0.89999933677E+02 0.  0.
        -12    1    1    2    0    0 -0.99639742640E+00  0.55709492393E+00  0.30001464881E+00  0.11803268086E+01  0.00000000000E+00 0.  1.
         11    1    3    3    0    0  0.28434203112E+01 -0.98912205840E+01 -0.31886804461E+01  0.10774459010E+02  0.51100000000E-03 0. -1.
        -11    1    3    3    0    0 -0.74634669975E+01 -0.12465055067E+02  0.36212601654E+02  0.39018373316E+02  0.51100000000E-03 0.  1.
         12    1    3    3    0    0  0.56164441127E+01  0.21799180727E+02 -0.33323935857E+02  0.40214840865E+02  0.00000000000E+00 0. -1.
</event>
<event>
 7    1  0.2593256E-015  0.9000776E+02  0.7816164E-02  0.1186339E+00
        -11   -1    0    0    0    0  0.00000000000E+00  0.00000000000E+00  0.45593999997E+02  0.45594000000E+02  0.51100000000E-03 0.  1.
         11   -1    0    0    0    0 -0.00000000000E+00 -0.00000000000E+00 -0.45593999997E+02  0.45594000000E+02  0.51100000000E-03 0. -1.
    9900012    2    1    2    0    0  0.19135119748E-01  0.80745226980E+00 -0.86059857303E+00  0.90007756286E+02  0.90000017869E+02 0.  0.
        -12    1    1    2    0    0 -0.19135119748E-01 -0.80745226980E+00  0.86059857303E+00  0.11802437141E+01  0.00000000000E+00 0.  1.
         11    1    3    3    0    0 -0.16425126075E+02 -0.96558641534E+01 -0.23545115357E+01  0.19198026044E+02  0.51100000000E-03 0. -1.
        -11    1    3    3    0    0 -0.19519398515E+02 -0.14070048303E+02  0.10665038422E+02  0.26319502701E+02  0.51100000000E-03 0.  1.
         12    1    3    3    0    0  0.35963659710E+02  0.24533364726E+02 -0.91711254595E+01  0.44490227541E+02  0.00000000000E+00 0. -1.
</event>
<event>
 7    1  0.2593256E-015  0.9000771E+02  0.7816164E-02  0.1186339E+00
        -11   -1    0    0    0    0  0.00000000000E+00  0.00000000000E+00  0.45593999997E+02  0.45594000000E+02  0.51100000000E-03 0.  1.
         11   -1    0    0    0    0 -0.00000000000E+00 -0.00000000000E+00 -0.45593999997E+02  0.45594000000E+02  0.51100000000E-03 0. -1.
    9900012    2    1    2    0    0 -0.32619772564E+00  0.10680683597E+01  0.38197209211E+00  0.90007712892E+02  0.89999973903E+02 0.  0.
        -12    1    1    2    0    0  0.32619772564E+00 -0.10680683597E+01 -0.38197209211E+00  0.11802871076E+01  0.00000000000E+00 0.  1.
         11    1    3    3    0    0  0.28578729434E+02 -0.16591564600E+01 -0.25187618141E+02  0.38130206977E+02  0.51100000000E-03 0. -1.
        -11    1    3    3    0    0 -0.31833285721E+01 -0.65471543425E+01 -0.64821020507E+01  0.97476385878E+01  0.51100000000E-03 0.  1.
        -12    1    3    3    0    0 -0.25721598588E+02  0.92743791623E+01  0.32051692284E+02  0.42129867327E+02  0.00000000000E+00 0.  1.
</event>
<event>
 7    1  0.2593256E-015  0.9000764E+02  0.7816164E-02  0.1186339E+00
        -11   -1    0    0    0    0  0.00000000000E+00  0.00000000000E+00  0.45593999997E+02  0.45594000000E+02  0.51100000000E-03 0. -1.
         11   -1    0    0    0    0 -0.00000000000E+00 -0.00000000000E+00 -0.45593999997E+02  0.45594000000E+02  0.51100000000E-03 0.  1.
    9900012    2    1    2    0    0 -0.59744771877E+00  0.48045558980E+00 -0.89747278275E+00  0.90007644653E+02  0.89999904762E+02 0.  0.
        -12    1    1    2    0    0  0.59744771877E+00 -0.48045558980E+00  0.89747278275E+00  0.11803553474E+01  0.00000000000E+00 0.  1.
         11    1    3    3    0    0  0.25940924796E+02  0.29249259998E+02 -0.13219483855E+02  0.41269910872E+02  0.51100000000E-03 0. -1.
        -11    1    3    3    0    0  0.45850116973E+01 -0.44984850529E+01  0.59560554354E+01  0.87597543713E+01  0.51100000000E-03 0.  1.
        -12    1    3    3    0    0 -0.31123384212E+02 -0.24270319356E+02  0.63659556367E+01  0.39977979409E+02  0.00000000000E+00 0.  1.
</event>
<event>
 7    1  0.2593256E-015  0.9000773E+02  0.7816164E-02  0.1186339E+00
        -11   -1    0    0    0    0  0.00000000000E+00  0.00000000000E+00  0.45593999997E+02  0.45594000000E+02  0.51100000000E-03 0. -1.
         11   -1    0    0    0    0 -0.00000000000E+00 -0.00000000000E+00 -0.45593999997E+02  0.45594000000E+02  0.51100000000E-03 0.  1.
    9900012    2    1    2    0    0 -0.17075530119E+00  0.79464340470E+00  0.85581765878E+00  0.90007729108E+02  0.89999990332E+02 0.  0.
        -12    1    1    2    0    0  0.17075530119E+00 -0.79464340470E+00 -0.85581765878E+00  0.11802708920E+01  0.00000000000E+00 0.  1.
         11    1    3    3    0    0 -0.14279193994E+02 -0.11138242891E+02  0.32233518695E+02  0.36972362158E+02  0.51100000000E-03 0. -1.
        -11    1    3    3    0    0 -0.58706615249E+01  0.53587022027E+01  0.61267026905E+01  0.10035778104E+02  0.51100000000E-03 0.  1.
         12    1    3    3    0    0  0.19979100218E+02  0.65741840935E+01 -0.37504403727E+02  0.42999588846E+02  0.00000000000E+00 0. -1.
</event>
<event>
 7    1  0.2593256E-015  0.9000791E+02  0.7816164E-02  0.1186339E+00
        -11   -1    0    0    0    0  0.00000000000E+00  0.00000000000E+00  0.45593999997E+02  0.45594000000E+02  0.51100000000E-03 0.  1.
         11   -1    0    0    0    0 -0.00000000000E+00 -0.00000000000E+00 -0.45593999997E+02  0.45594000000E+02  0.51100000000E-03 0. -1.
    9900012    2    1    2    0    0  0.25898784082E+00  0.99897916856E+00 -0.57234850568E+00  0.90007908100E+02  0.90000171687E+02 0.  0.
        -12    1    1    2    0    0 -0.25898784082E+00 -0.99897916856E+00  0.57234850568E+00  0.11800919002E+01  0.00000000000E+00 0.  1.
         11    1    3    3    0    0 -0.28603208058E+00 -0.78149307696E+01 -0.52447669699E+01  0.94160787016E+01  0.51100000000E-03 0. -1.
        -11    1    3    3    0    0 -0.30869115960E+02 -0.20735029478E+02  0.45512426602E+01  0.37464083835E+02  0.51100000000E-03 0.  1.
         12    1    3    3    0    0  0.31414135881E+02  0.29548939416E+02  0.12117580406E+00  0.43127745563E+02  0.00000000000E+00 0. -1.
</event>
<event>
 7    1  0.2593256E-015  0.9000778E+02  0.7816164E-02  0.1186339E+00
        -11   -1    0    0    0    0  0.00000000000E+00  0.00000000000E+00  0.45593999997E+02  0.45594000000E+02  0.51100000000E-03 0.  1.
         11   -1    0    0    0    0 -0.00000000000E+00 -0.00000000000E+00 -0.45593999997E+02  0.45594000000E+02  0.51100000000E-03 0. -1.
    9900012    2    1    2    0    0  0.10319108626E+01 -0.20000727961E+00 -0.53672419692E+00  0.90007781459E+02  0.90000043375E+02 0.  0.
        -12    1    1    2    0    0 -0.10319108626E+01  0.20000727961E+00  0.53672419692E+00  0.11802185407E+01  0.00000000000E+00 0.  1.
         11    1    3    3    0    0 -0.20640841253E+01  0.82991396600E+01 -0.11059098534E+01  0.86231780242E+01  0.51100000000E-03 0. -1.
        -11    1    3    3    0    0 -0.20943382655E+02  0.27747316246E+02  0.11358691238E+02  0.36572649655E+02  0.51100000000E-03 0.  1.
         12    1    3    3    0    0  0.24039377643E+02 -0.36246463186E+02 -0.10789505581E+02  0.44811953780E+02  0.00000000000E+00 0. -1.
</event>
<event>
 7    1  0.2593256E-015  0.9000769E+02  0.7816164E-02  0.1186339E+00
        -11   -1    0    0    0    0  0.00000000000E+00  0.00000000000E+00  0.45593999997E+02  0.45594000000E+02  0.51100000000E-03 0.  1.
         11   -1    0    0    0    0 -0.00000000000E+00 -0.00000000000E+00 -0.45593999997E+02  0.45594000000E+02  0.51100000000E-03 0. -1.
    9900012    2    1    2    0    0  0.26356254376E-01 -0.88643318581E+00 -0.77888476778E+00  0.90007694986E+02  0.89999955760E+02 0.  0.
        -12    1    1    2    0    0 -0.26356254376E-01  0.88643318581E+00  0.77888476778E+00  0.11803050142E+01  0.00000000000E+00 0.  1.
         11    1    3    3    0    0 -0.17185248266E+02  0.14618751118E+02 -0.27032242100E+02  0.35210548922E+02  0.51100000000E-03 0. -1.
        -11    1    3    3    0    0 -0.14576702890E+01  0.93537099896E+01 -0.50073037619E+01  0.10709331654E+02  0.51100000000E-03 0.  1.
        -12    1    3    3    0    0  0.18669274810E+02 -0.24858894293E+02  0.31260661094E+02  0.44087814410E+02  0.00000000000E+00 0.  1.
</event>
<event>
 7    1  0.2593256E-015  0.9000771E+02  0.7816164E-02  0.1186339E+00
        -11   -1    0    0    0    0  0.00000000000E+00  0.00000000000E+00  0.45593999997E+02  0.45594000000E+02  0.51100000000E-03 0. -1.
         11   -1    0    0    0    0 -0.00000000000E+00 -0.00000000000E+00 -0.45593999997E+02  0.45594000000E+02  0.51100000000E-03 0.  1.
    9900012    2    1    2    0    0 -0.58004402965E+00  0.59799245642E+00  0.83609002652E+00  0.90007706568E+02  0.89999967494E+02 0.  0.
        -12    1    1    2    0    0  0.58004402965E+00 -0.59799245642E+00 -0.83609002652E+00  0.11802934325E+01  0.00000000000E+00 0.  1.
         11    1    3    3    0    0 -0.63139659695E+01 -0.61667424441E+01  0.33293782460E+00  0.88320850591E+01  0.51100000000E-03 0. -1.
        -11    1    3    3    0    0 -0.34404048585E+02 -0.66686889096E+01 -0.11998767369E+02  0.37041603494E+02  0.51100000000E-03 0.  1.
         12    1    3    3    0    0  0.40137970525E+02  0.13433423810E+02  0.12501919571E+02  0.44134018014E+02  0.00000000000E+00 0. -1.
</event>
<event>
 7    1  0.2593256E-015  0.9000781E+02  0.7816164E-02  0.1186339E+00
        -11   -1    0    0    0    0  0.00000000000E+00  0.00000000000E+00  0.45593999997E+02  0.45594000000E+02  0.51100000000E-03 0.  1.
         11   -1    0    0    0    0 -0.00000000000E+00 -0.00000000000E+00 -0.45593999997E+02  0.45594000000E+02  0.51100000000E-03 0. -1.
    9900012    2    1    2    0    0  0.53763296557E+00  0.92494526467E+00 -0.49827550381E+00  0.90007808733E+02  0.90000071009E+02 0.  0.
        -12    1    1    2    0    0 -0.53763296557E+00 -0.92494526467E+00  0.49827550381E+00  0.11801912667E+01  0.00000000000E+00 0.  1.
         11    1    3    3    0    0  0.22219461881E+02 -0.33657868660E+02  0.16312444340E+01  0.40363567331E+02  0.51100000000E-03 0. -1.
        -11    1    3    3    0    0  0.13481606692E+01  0.47717676909E+01  0.90760871124E+01  0.10342275457E+02  0.51100000000E-03 0.  1.
        -12    1    3    3    0    0 -0.23029989585E+02  0.29811046234E+02 -0.11205607050E+02  0.39301965946E+02  0.00000000000E+00 0.  1.
</event>
<event>
 7    1  0.2593256E-015  0.9000772E+02  0.7816164E-02  0.1186339E+00
        -11   -1    0    0    0    0  0.00000000000E+00  0.00000000000E+00  0.45593999997E+02  0.45594000000E+02  0.51100000000E-03 0. -1.
         11   -1    0    0    0    0 -0.00000000000E+00 -0.00000000000E+00 -0.45593999997E+02  0.45594000000E+02  0.51100000000E-03 0.  1.
    9900012    2    1    2    0    0 -0.71638994103E+00  0.61968749275E+00  0.70416100524E+00  0.90007716196E+02  0.89999977250E+02 0.  0.
        -12    1    1    2    0    0  0.71638994103E+00 -0.61968749275E+00 -0.70416100524E+00  0.11802838038E+01  0.00000000000E+00 0.  1.
         11    1    3    3    0    0 -0.41211537667E+01  0.83603951235E+01  0.14035373341E+01  0.94260295087E+01  0.51100000000E-03 0. -1.
        -11    1    3    3    0    0 -0.37108138922E+01 -0.22463414412E+02 -0.35475394060E+02  0.42153039164E+02  0.51100000000E-03 0.  1.
         12    1    3    3    0    0  0.71155777179E+01  0.14722706781E+02  0.34776017732E+02  0.38428647523E+02  0.00000000000E+00 0. -1.
</event>
<event>
 7    1  0.2593256E-015  0.9000787E+02  0.7816164E-02  0.1186339E+00
        -11   -1    0    0    0    0  0.00000000000E+00  0.00000000000E+00  0.45593999997E+02  0.45594000000E+02  0.51100000000E-03 0.  1.
         11   -1    0    0    0    0 -0.00000000000E+00 -0.00000000000E+00 -0.45593999997E+02  0.45594000000E+02  0.51100000000E-03 0. -1.
    9900012    2    1    2    0    0 -0.50815076491E+00 -0.83211368943E+00 -0.66488656349E+00  0.90007870967E+02  0.90000134064E+02 0.  0.
        -12    1    1    2    0    0  0.50815076491E+00  0.83211368943E+00  0.66488656349E+00  0.11801290329E+01  0.00000000000E+00 0.  1.
         11    1    3    3    0    0 -0.14075967617E+01 -0.27202146083E+01  0.86527501114E+01  0.91788333087E+01  0.51100000000E-03 0. -1.
        -11    1    3    3    0    0 -0.28489516528E+02  0.27584143196E+02  0.33252704273E+01  0.39794408295E+02  0.51100000000E-03 0.  1.
         12    1    3    3    0    0  0.29388962525E+02 -0.25696042278E+02 -0.12642907102E+02  0.41034629363E+02  0.00000000000E+00 0. -1.
</event>
<event>
 7    1  0.2593256E-015  0.9000773E+02  0.7816164E-02  0.1186339E+00
        -11   -1    0    0    0    0  0.00000000000E+00  0.00000000000E+00  0.45593999997E+02  0.45594000000E+02  0.51100000000E-03 0.  1.
         11   -1    0    0    0    0 -0.00000000000E+00 -0.00000000000E+00 -0.45593999997E+02  0.45594000000E+02  0.51100000000E-03 0. -1.
    9900012    2    1    2    0    0  0.84286597960E+00  0.76242161957E+00  0.31831186398E+00  0.90007732137E+02  0.89999993401E+02 0.  0.
        -12    1    1    2    0    0 -0.84286597960E+00 -0.76242161957E+00 -0.31831186398E+00  0.11802678629E+01  0.00000000000E+00 0.  1.
         11    1    3    3    0    0  0.81112310375E+01 -0.50213923504E+01 -0.30267078604E+01  0.10008367040E+02  0.51100000000E-03 0. -1.
        -11    1    3    3    0    0 -0.35639804365E+02  0.44208444870E+01 -0.21844527738E+02  0.42034782187E+02  0.51100000000E-03 0.  1.
         12    1    3    3    0    0  0.28371439307E+02  0.13629694830E+01  0.25189547463E+02  0.37964582910E+02  0.00000000000E+00 0. -1.
</event>
<event>
 7    1  0.2593256E-015  0.9000764E+02  0.7816164E-02  0.1186339E+00
        -11   -1    0    0    0    0  0.00000000000E+00  0.00000000000E+00  0.45593999997E+02  0.45594000000E+02  0.51100000000E-03 0. -1.
         11   -1    0    0    0    0 -0.00000000000E+00 -0.00000000000E+00 -0.45593999997E+02  0.45594000000E+02  0.51100000000E-03 0.  1.
    9900012    2    1    2    0    0  0.51989139164E+00  0.12031609265E+00  0.10528480986E+01  0.90007638979E+02  0.89999899013E+02 0.  0.
        -12    1    1    2    0    0 -0.51989139164E+00 -0.12031609265E+00 -0.10528480986E+01  0.11803610211E+01  0.00000000000E+00 0.  1.
         11    1    3    3    0    0  0.27071024488E+02 -0.23789407733E+02  0.11055377988E+01  0.36055491970E+02  0.51100000000E-03 0. -1.
        -11    1    3    3    0    0  0.41623460197E+01  0.22341763436E+02 -0.35450145991E+01  0.23001014034E+02  0.51100000000E-03 0.  1.
        -12    1    3    3    0    0 -0.30713479116E+02  0.15679603899E+01  0.34923248989E+01  0.30951132974E+02  0.00000000000E+00 0.  1.
</event>
<event>
 7    1  0.2593256E-015  0.9000771E+02  0.7816164E-02  0.1186339E+00
        -11   -1    0    0    0    0  0.00000000000E+00  0.00000000000E+00  0.45593999997E+02  0.45594000000E+02  0.51100000000E-03 0. -1.
         11   -1    0    0    0    0 -0.00000000000E+00 -0.00000000000E+00 -0.45593999997E+02  0.45594000000E+02  0.51100000000E-03 0.  1.
    9900012    2    1    2    0    0 -0.11302637972E+01  0.22002341378E+00 -0.25916526552E+00  0.90007714785E+02  0.89999975820E+02 0.  0.
        -12    1    1    2    0    0  0.11302637972E+01 -0.22002341378E+00  0.25916526552E+00  0.11802852149E+01  0.00000000000E+00 0.  1.
         11    1    3    3    0    0 -0.23517623670E+02  0.25847477983E+02  0.47355792793E+01  0.35264662944E+02  0.51100000000E-03 0. -1.
        -11    1    3    3    0    0 -0.70411753227E+01  0.22742827889E+01  0.91739836475E+01  0.11786114218E+02  0.51100000000E-03 0.  1.
        -12    1    3    3    0    0  0.29428535196E+02 -0.27901737358E+02 -0.14168728192E+02  0.42956937623E+02  0.00000000000E+00 0.  1.
</event>
<event>
 7    1  0.2593256E-015  0.9000763E+02  0.7816164E-02  0.1186339E+00
        -11   -1    0    0    0    0  0.00000000000E+00  0.00000000000E+00  0.45593999997E+02  0.45594000000E+02  0.51100000000E-03 0.  1.
         11   -1    0    0    0    0 -0.00000000000E+00 -0.00000000000E+00 -0.45593999997E+02  0.45594000000E+02  0.51100000000E-03 0. -1.
    9900012    2    1    2    0    0 -0.63293148954E+00 -0.81652915296E+00 -0.57093016673E+00  0.90007625744E+02  0.89999885604E+02 0.  0.
        -12    1    1    2    0    0  0.63293148954E+00  0.81652915296E+00  0.57093016673E+00  0.11803742556E+01  0.00000000000E+00 0.  1.
         11    1    3    3    0    0  0.45960744306E+01  0.99031352599E+01 -0.33364415321E+01  0.11416121518E+02  0.51100000000E-03 0. -1.
        -11    1    3    3    0    0  0.27050742547E+02  0.40930135815E+01  0.24690811036E+02  0.36852836830E+02  0.51100000000E-03 0.  1.
         12    1    3    3    0    0 -0.32279748467E+02 -0.14812677994E+02 -0.21925299670E+02  0.41738667397E+02  0.00000000000E+00 0. -1.
</event>
<event>
 7    1  0.2593256E-015  0.9000769E+02  0.7816164E-02  0.1186339E+00
        -11   -1    0    0    0    0  0.00000000000E+00  0.00000000000E+00  0.45593999997E+02  0.45594000000E+02  0.51100000000E-03 0. -1.
         11   -1    0    0    0    0 -0.00000000000E+00 -0.00000000000E+00 -0.45593999997E+02  0.45594000000E+02  0.51100000000E-03 0.  1.
    9900012    2    1    2    0    0  0.83300405953E+00  0.74530765371E+00  0.37914407204E+00  0.90007690935E+02  0.89999951655E+02 0.  0.
        -12    1    1    2    0    0 -0.83300405953E+00 -0.74530765371E+00 -0.37914407204E+00  0.11803090651E+01  0.00000000000E+00 0.  1.
         11    1    3    3    0    0 -0.73459652913E+00  0.69388238309E+01  0.63156434257E+01  0.94113899270E+01  0.51100000000E-03 0. -1.
        -11    1    3    3    0    0 -0.25856286867E+02 -0.55773820648E+01 -0.32844441497E+02  0.42171223587E+02  0.51100000000E-03 0.  1.
         12    1    3    3    0    0  0.27423887456E+02 -0.61613411236E+00  0.26907942144E+02  0.38425077421E+02  0.00000000000E+00 0. -1.
</event>
<event>
 7    1  0.2593256E-015  0.9000777E+02  0.7816164E-02  0.1186339E+00
        -11   -1    0    0    0    0  0.00000000000E+00  0.00000000000E+00  0.45593999997E+02  0.45594000000E+02  0.51100000000E-03 0.  1.
         11   -1    0    0    0    0 -0.00000000000E+00 -0.00000000000E+00 -0.45593999997E+02  0.45594000000E+02  0.51100000000E-03 0. -1.
    9900012    2    1    2    0    0 -0.89253684283E+00 -0.91401041867E-01 -0.76679724108E+00  0.90007765203E+02  0.90000026904E+02 0.  0.
        -12    1    1    2    0    0  0.89253684283E+00  0.91401041867E-01  0.76679724108E+00  0.11802347966E+01  0.00000000000E+00 0.  1.
         11    1    3    3    0    0 -0.22293623659E+01  0.34638739697E+02 -0.20965929499E+02  0.40550986972E+02  0.51100000000E-03 0. -1.
        -11    1    3    3    0    0  0.81905517866E+01  0.11364452748E+01  0.14017239424E+01  0.83869825744E+01  0.51100000000E-03 0.  1.
        -12    1    3    3    0    0 -0.68537262635E+01 -0.35866586013E+02  0.18797408316E+02  0.41069795657E+02  0.00000000000E+00 0.  1.
</event>
<event>
 7    1  0.2754525E-015  0.9000776E+02  0.7816164E-02  0.1186339E+00
        -11   -1    0    0    0    0  0.00000000000E+00  0.00000000000E+00  0.45593999997E+02  0.45594000000E+02  0.51100000000E-03 0.  1.
         11   -1    0    0    0    0 -0.00000000000E+00 -0.00000000000E+00 -0.45593999997E+02  0.45594000000E+02  0.51100000000E-03 0. -1.
    9900012    2    1    2    0    0 -0.26355774775E+00  0.11478449361E+01  0.77120822289E-01  0.90007763454E+02  0.90000025131E+02 0.  0.
        -12    1    1    2    0    0  0.26355774775E+00 -0.11478449361E+01 -0.77120822289E-01  0.11802365462E+01  0.00000000000E+00 0.  1.
         11    1    3    3    0    0 -0.20964190445E+02  0.26281318242E+02 -0.18245835997E+02  0.38250692817E+02  0.51100000000E-03 0. -1.
        -11    1    3    3    0    0 -0.45352843171E+01  0.61180454701E+01  0.61373314592E+01  0.97809059863E+01  0.51100000000E-03 0.  1.
        -12    1    3    3    0    0  0.25235917014E+02 -0.31251518776E+02  0.12185625360E+02  0.41976164650E+02  0.00000000000E+00 0.  1.
</event>
<event>
 7    1  0.2593256E-015  0.9000772E+02  0.7816164E-02  0.1186339E+00
        -11   -1    0    0    0    0  0.00000000000E+00  0.00000000000E+00  0.45593999997E+02  0.45594000000E+02  0.51100000000E-03 0. -1.
         11   -1    0    0    0    0 -0.00000000000E+00 -0.00000000000E+00 -0.45593999997E+02  0.45594000000E+02  0.51100000000E-03 0.  1.
    9900012    2    1    2    0    0 -0.19872492462E+00 -0.11630585623E+01 -0.29494258200E-01  0.90007717523E+02  0.89999978594E+02 0.  0.
        -12    1    1    2    0    0  0.19872492462E+00  0.11630585623E+01  0.29494258200E-01  0.11802824773E+01  0.00000000000E+00 0.  1.
         11    1    3    3    0    0 -0.72983595920E+01 -0.24544956106E+02  0.16805901254E+02  0.30629385240E+02  0.51100000000E-03 0. -1.
        -11    1    3    3    0    0  0.18340415008E+02 -0.10572960114E+02 -0.66329054690E+01  0.22184538387E+02  0.51100000000E-03 0.  1.
        -12    1    3    3    0    0 -0.11240780340E+02  0.33954857658E+02 -0.10202490043E+02  0.37193793895E+02  0.00000000000E+00 0.  1.
</event>
<event>
 7    1  0.2593256E-015  0.9000768E+02  0.7816164E-02  0.1186339E+00
        -11   -1    0    0    0    0  0.00000000000E+00  0.00000000000E+00  0.45593999997E+02  0.45594000000E+02  0.51100000000E-03 0. -1.
         11   -1    0    0    0    0 -0.00000000000E+00 -0.00000000000E+00 -0.45593999997E+02  0.45594000000E+02  0.51100000000E-03 0.  1.
    9900012    2    1    2    0    0 -0.90887686397E+00  0.19675564174E+00  0.72690503389E+00  0.90007677644E+02  0.89999938189E+02 0.  0.
        -12    1    1    2    0    0  0.90887686397E+00 -0.19675564174E+00 -0.72690503389E+00  0.11803223563E+01  0.00000000000E+00 0.  1.
         11    1    3    3    0    0  0.10554474603E+01  0.95610975866E+01 -0.26986575201E+01  0.99905609990E+01  0.51100000000E-03 0. -1.
        -11    1    3    3    0    0 -0.28946057919E+02 -0.25300236641E+02 -0.17598992401E+02  0.42281210685E+02  0.51100000000E-03 0.  1.
         12    1    3    3    0    0  0.26981733595E+02  0.15935894696E+02  0.21024554955E+02  0.37735905960E+02  0.00000000000E+00 0. -1.
</event>
<event>
 7    1  0.2593256E-015  0.9000774E+02  0.7816164E-02  0.1186339E+00
        -11   -1    0    0    0    0  0.00000000000E+00  0.00000000000E+00  0.45593999997E+02  0.45594000000E+02  0.51100000000E-03 0.  1.
         11   -1    0    0    0    0 -0.00000000000E+00 -0.00000000000E+00 -0.45593999997E+02  0.45594000000E+02  0.51100000000E-03 0. -1.
    9900012    2    1    2    0    0 -0.74456477319E+00  0.91443599696E+00  0.49552984041E-01  0.90007735033E+02  0.89999996335E+02 0.  0.
        -12    1    1    2    0    0  0.74456477319E+00 -0.91443599696E+00 -0.49552984041E-01  0.11802649670E+01  0.00000000000E+00 0.  1.
         11    1    3    3    0    0 -0.90883329815E+00 -0.22118696969E+02 -0.30797762999E+02  0.37928418627E+02  0.51100000000E-03 0. -1.
        -11    1    3    3    0    0  0.14699123183E+01 -0.88834161845E+01  0.24328287206E+01  0.93270778476E+01  0.51100000000E-03 0.  1.
        -12    1    3    3    0    0 -0.13056437934E+01  0.31916549150E+02  0.28414487262E+02  0.42752238558E+02  0.00000000000E+00 0.  1.
</event>
<event>
 7    1  0.2593256E-015  0.9000759E+02  0.7816164E-02  0.1186339E+00
        -11   -1    0    0    0    0  0.00000000000E+00  0.00000000000E+00  0.45593999997E+02  0.45594000000E+02  0.51100000000E-03 0. -1.
         11   -1    0    0    0    0 -0.00000000000E+00 -0.00000000000E+00 -0.45593999997E+02  0.45594000000E+02  0.51100000000E-03 0.  1.
    9900012    2    1    2    0    0  0.30244872402E+00 -0.10355042766E+01 -0.47919324352E+00  0.90007588842E+02  0.89999848214E+02 0.  0.
        -12    1    1    2    0    0 -0.30244872402E+00  0.10355042766E+01  0.47919324352E+00  0.11804111581E+01  0.00000000000E+00 0.  1.
         11    1    3    3    0    0 -0.10031806935E+02  0.14080980043E+02  0.24257016634E+02  0.29787816395E+02  0.51100000000E-03 0. -1.
        -11    1    3    3    0    0  0.13228326211E+02 -0.13803819313E+02  0.12503635647E+02  0.22844582435E+02  0.51100000000E-03 0.  1.
        -12    1    3    3    0    0 -0.28940705517E+01 -0.13126650066E+01 -0.37239845524E+02  0.37375190012E+02  0.00000000000E+00 0.  1.
</event>
<event>
 7    1  0.2593256E-015  0.9000774E+02  0.7816164E-02  0.1186339E+00
        -11   -1    0    0    0    0  0.00000000000E+00  0.00000000000E+00  0.45593999997E+02  0.45594000000E+02  0.51100000000E-03 0.  1.
         11   -1    0    0    0    0 -0.00000000000E+00 -0.00000000000E+00 -0.45593999997E+02  0.45594000000E+02  0.51100000000E-03 0. -1.
    9900012    2    1    2    0    0 -0.89096170437E+00  0.39018262512E+00 -0.66854098867E+00  0.90007744819E+02  0.90000006250E+02 0.  0.
        -12    1    1    2    0    0  0.89096170437E+00 -0.39018262512E+00  0.66854098867E+00  0.11802551814E+01  0.00000000000E+00 0.  1.
         11    1    3    3    0    0  0.11443974423E+02  0.80248050793E+01 -0.40672436232E+01  0.14556940547E+02  0.51100000000E-03 0. -1.
        -11    1    3    3    0    0 -0.39129677042E+02  0.76435713240E+01  0.14856045919E+02  0.42547125739E+02  0.51100000000E-03 0.  1.
         12    1    3    3    0    0  0.26794740915E+02 -0.15278193778E+02 -0.11457343285E+02  0.32903678533E+02  0.00000000000E+00 0. -1.
</event>
<event>
 7    1  0.2593256E-015  0.9000859E+02  0.7816164E-02  0.1186337E+00
        -11   -1    0    0    0    0  0.00000000000E+00  0.00000000000E+00  0.45593999997E+02  0.45594000000E+02  0.51100000000E-03 0. -1.
         11   -1    0    0    0    0 -0.00000000000E+00 -0.00000000000E+00 -0.45593999997E+02  0.45594000000E+02  0.51100000000E-03 0.  1.
    9900012    2    1    2    0    0  0.51228041357E+00 -0.18985832273E+00  0.10452382991E+01  0.90008593155E+02  0.90000865780E+02 0.  0.
        -12    1    1    2    0    0 -0.51228041357E+00  0.18985832273E+00 -0.10452382991E+01  0.11794068453E+01  0.00000000000E+00 0.  1.
         11    1    3    3    0    0 -0.42320038346E+01 -0.23967744759E+01 -0.83662377737E+01  0.96772061615E+01  0.51100000000E-03 0. -1.
        -11    1    3    3    0    0 -0.21795919931E+02  0.26944993038E+02  0.22993581827E+02  0.41590859344E+02  0.51100000000E-03 0.  1.
         12    1    3    3    0    0  0.26540204179E+02 -0.24738076885E+02 -0.13582105754E+02  0.38740527649E+02  0.00000000000E+00 0. -1.
</event>
<event>
 7    1  0.2593256E-015  0.9000777E+02  0.7816164E-02  0.1186339E+00
        -11   -1    0    0    0    0  0.00000000000E+00  0.00000000000E+00  0.45593999997E+02  0.45594000000E+02  0.51100000000E-03 0.  1.
         11   -1    0    0    0    0 -0.00000000000E+00 -0.00000000000E+00 -0.45593999997E+02  0.45594000000E+02  0.51100000000E-03 0. -1.
    9900012    2    1    2    0    0 -0.45573247670E+00 -0.10141263471E+01 -0.39599244944E+00  0.90007765126E+02  0.90000026826E+02 0.  0.
        -12    1    1    2    0    0  0.45573247670E+00  0.10141263471E+01  0.39599244944E+00  0.11802348741E+01  0.00000000000E+00 0.  1.
         11    1    3    3    0    0  0.14290069385E+01 -0.35430742998E+02 -0.12641368508E+02  0.37645501832E+02  0.51100000000E-03 0. -1.
        -11    1    3    3    0    0 -0.15622667224E+01 -0.44327796526E+01 -0.74467082207E+01  0.88058887312E+01  0.51100000000E-03 0.  1.
        -12    1    3    3    0    0 -0.32247269274E+00  0.38849396303E+02  0.19692084279E+02  0.43556374562E+02  0.00000000000E+00 0.  1.
</event>
<event>
 7    1  0.3184957E-015  0.9000773E+02  0.7816164E-02  0.1186339E+00
        -11   -1    0    0    0    0  0.00000000000E+00  0.00000000000E+00  0.45593999997E+02  0.45594000000E+02  0.51100000000E-03 0. -1.
         11   -1    0    0    0    0 -0.00000000000E+00 -0.00000000000E+00 -0.45593999997E+02  0.45594000000E+02  0.51100000000E-03 0.  1.
    9900012    2    1    2    0    0 -0.77174706314E+00  0.57139719180E+00  0.68626046101E+00  0.90007728124E+02  0.89999989336E+02 0.  0.
        -12    1    1    2    0    0  0.77174706314E+00 -0.57139719180E+00 -0.68626046101E+00  0.11802718757E+01  0.00000000000E+00 0.  1.
         11    1    3    3    0    0  0.16382908710E+02 -0.29436841898E+02  0.12583558997E+02  0.35962109450E+02  0.51100000000E-03 0. -1.
        -11    1    3    3    0    0 -0.22244059225E+01 -0.82995677510E+01  0.45982131244E+01  0.97454795039E+01  0.51100000000E-03 0.  1.
        -12    1    3    3    0    0 -0.14930249851E+02  0.38307806841E+02 -0.16495511661E+02  0.44300139171E+02  0.00000000000E+00 0.  1.
</event>
<event>
 7    1  0.2593256E-015  0.9000771E+02  0.7816164E-02  0.1186339E+00
        -11   -1    0    0    0    0  0.00000000000E+00  0.00000000000E+00  0.45593999997E+02  0.45594000000E+02  0.51100000000E-03 0. -1.
         11   -1    0    0    0    0 -0.00000000000E+00 -0.00000000000E+00 -0.45593999997E+02  0.45594000000E+02  0.51100000000E-03 0.  1.
    9900012    2    1    2    0    0  0.24926407980E+00 -0.11520187860E+01 -0.61632461100E-01  0.90007712567E+02  0.89999973573E+02 0.  0.
        -12    1    1    2    0    0 -0.24926407980E+00  0.11520187860E+01  0.61632461100E-01  0.11802874332E+01  0.00000000000E+00 0.  1.
         11    1    3    3    0    0 -0.11904101653E+01 -0.84765949844E+01 -0.38496885455E+01  0.93856188421E+01  0.51100000000E-03 0. -1.
        -11    1    3    3    0    0 -0.17993403954E+02  0.30301399489E+02 -0.21528316518E+02  0.41296559290E+02  0.51100000000E-03 0.  1.
         12    1    3    3    0    0  0.19433078199E+02 -0.22976823290E+02  0.25316372603E+02  0.39325534435E+02  0.00000000000E+00 0. -1.
</event>
<event>
 7    1  0.2593256E-015  0.9000756E+02  0.7816164E-02  0.1186339E+00
        -11   -1    0    0    0    0  0.00000000000E+00  0.00000000000E+00  0.45593999997E+02  0.45594000000E+02  0.51100000000E-03 0. -1.
         11   -1    0    0    0    0 -0.00000000000E+00 -0.00000000000E+00 -0.45593999997E+02  0.45594000000E+02  0.51100000000E-03 0.  1.
    9900012    2    1    2    0    0 -0.33983828856E+00 -0.52353215620E+00  0.10019293819E+01  0.90007560054E+02  0.89999819046E+02 0.  0.
        -12    1    1    2    0    0  0.33983828856E+00  0.52353215620E+00 -0.10019293819E+01  0.11804399465E+01  0.00000000000E+00 0.  1.
         11    1    3    3    0    0  0.10983923770E+01  0.68430768926E+01 -0.12085182634E+02  0.13931468219E+02  0.51100000000E-03 0. -1.
        -11    1    3    3    0    0 -0.41419482863E+01 -0.29587191414E+02 -0.20127104663E+02  0.36023020053E+02  0.51100000000E-03 0.  1.
         12    1    3    3    0    0  0.27037176207E+01  0.22220582365E+02  0.33214216678E+02  0.40053071782E+02  0.00000000000E+00 0. -1.
</event>
<event>
 7    1  0.2593256E-015  0.9000780E+02  0.7816164E-02  0.1186339E+00
        -11   -1    0    0    0    0  0.00000000000E+00  0.00000000000E+00  0.45593999997E+02  0.45594000000E+02  0.51100000000E-03 0.  1.
         11   -1    0    0    0    0 -0.00000000000E+00 -0.00000000000E+00 -0.45593999997E+02  0.45594000000E+02  0.51100000000E-03 0. -1.
    9900012    2    1    2    0    0  0.97057185373E-01  0.11735406942E+01 -0.79014296655E-01  0.90007804627E+02  0.90000066849E+02 0.  0.
        -12    1    1    2    0    0 -0.97057185373E-01 -0.11735406942E+01  0.79014296655E-01  0.11801953725E+01  0.00000000000E+00 0.  1.
         11    1    3    3    0    0 -0.15674994217E+00  0.51792099566E+01  0.94944982556E+01  0.10816389587E+02  0.51100000000E-03 0. -1.
        -11    1    3    3    0    0  0.25831271926E+02  0.52363849832E+01  0.24232856989E+02  0.35803710633E+02  0.51100000000E-03 0.  1.
         12    1    3    3    0    0 -0.25577464798E+02 -0.92420542456E+01 -0.33806369541E+02  0.43387704407E+02  0.00000000000E+00 0. -1.
</event>
<event>
 7    1  0.2593256E-015  0.9000760E+02  0.7816164E-02  0.1186339E+00
        -11   -1    0    0    0    0  0.00000000000E+00  0.00000000000E+00  0.45593999997E+02  0.45594000000E+02  0.51100000000E-03 0. -1.
         11   -1    0    0    0    0 -0.00000000000E+00 -0.00000000000E+00 -0.45593999997E+02  0.45594000000E+02  0.51100000000E-03 0.  1.
    9900012    2    1    2    0    0  0.74674703613E+00 -0.77693549001E+00 -0.48175614586E+00  0.90007598003E+02  0.89999857496E+02 0.  0.
        -12    1    1    2    0    0 -0.74674703613E+00  0.77693549001E+00  0.48175614586E+00  0.11804019975E+01  0.00000000000E+00 0.  1.
         11    1    3    3    0    0 -0.60667134674E+01  0.72969598307E+01  0.51148214890E+01  0.10780168560E+02  0.51100000000E-03 0. -1.
        -11    1    3    3    0    0 -0.23571158639E+02 -0.24219631976E+02 -0.22790438491E+02  0.40762656679E+02  0.51100000000E-03 0.  1.
         12    1    3    3    0    0  0.30384619143E+02  0.16145736655E+02  0.17193860857E+02  0.38464772763E+02  0.00000000000E+00 0. -1.
</event>
<event>
 7    1  0.2593256E-015  0.9000771E+02  0.7816164E-02  0.1186339E+00
        -11   -1    0    0    0    0  0.00000000000E+00  0.00000000000E+00  0.45593999997E+02  0.45594000000E+02  0.51100000000E-03 0.  1.
         11   -1    0    0    0    0 -0.00000000000E+00 -0.00000000000E+00 -0.45593999997E+02  0.45594000000E+02  0.51100000000E-03 0. -1.
    9900012    2    1    2    0    0  0.68843116504E+00  0.47930459888E+00 -0.83031011059E+00  0.90007709677E+02  0.89999970644E+02 0.  0.
        -12    1    1    2    0    0 -0.68843116504E+00 -0.47930459888E+00  0.83031011059E+00  0.11802903233E+01  0.00000000000E+00 0.  1.
         11    1    3    3    0    0  0.40108106650E+00 -0.97711976168E+01 -0.11200173057E+02  0.14868794358E+02  0.51100000000E-03 0. -1.
        -11    1    3    3    0    0 -0.25940837857E+02 -0.12031198542E+02 -0.15087799313E+02  0.32331385609E+02  0.51100000000E-03 0.  1.
         12    1    3    3    0    0  0.26228187955E+02  0.22281700757E+02  0.25457662260E+02  0.42807529709E+02  0.00000000000E+00 0. -1.
</event>
<event>
 7    1  0.2593256E-015  0.9000770E+02  0.7816164E-02  0.1186339E+00
        -11   -1    0    0    0    0  0.00000000000E+00  0.00000000000E+00  0.45593999997E+02  0.45594000000E+02  0.51100000000E-03 0.  1.
         11   -1    0    0    0    0 -0.00000000000E+00 -0.00000000000E+00 -0.45593999997E+02  0.45594000000E+02  0.51100000000E-03 0. -1.
    9900012    2    1    2    0    0  0.30347762183E+00  0.11174791417E+01 -0.22857502742E+00  0.90007701376E+02  0.89999962234E+02 0.  0.
        -12    1    1    2    0    0 -0.30347762183E+00 -0.11174791417E+01  0.22857502742E+00  0.11802986242E+01  0.00000000000E+00 0.  1.
         11    1    3    3    0    0  0.10764366148E+02 -0.71064433633E+01 -0.37521342583E+02  0.39676495124E+02  0.51100000000E-03 0. -1.
        -11    1    3    3    0    0  0.92894624362E+01  0.44784145439E+00  0.25942821164E+01  0.96553080884E+01  0.51100000000E-03 0.  1.
        -12    1    3    3    0    0 -0.19750350963E+02  0.77760810507E+01  0.34698485439E+02  0.40675898163E+02  0.00000000000E+00 0.  1.
</event>
<event>
 7    1  0.2593256E-015  0.9000790E+02  0.7816164E-02  0.1186339E+00
        -11   -1    0    0    0    0  0.00000000000E+00  0.00000000000E+00  0.45593999997E+02  0.45594000000E+02  0.51100000000E-03 0.  1.
         11   -1    0    0    0    0 -0.00000000000E+00 -0.00000000000E+00 -0.45593999997E+02  0.45594000000E+02  0.51100000000E-03 0. -1.
    9900012    2    1    2    0    0  0.14693823111E+00  0.99627823272E+00 -0.61519926530E+00  0.90007901997E+02  0.90000165503E+02 0.  0.
        -12    1    1    2    0    0 -0.14693823111E+00 -0.99627823272E+00  0.61519926530E+00  0.11800980030E+01  0.00000000000E+00 0.  1.
         11    1    3    3    0    0 -0.18901730837E+02  0.89728667807E+01  0.16178215457E+01  0.20985831261E+02  0.51100000000E-03 0. -1.
        -11    1    3    3    0    0  0.81278746181E+01  0.22557961787E+02  0.18714251706E+02  0.30416232557E+02  0.51100000000E-03 0.  1.
         12    1    3    3    0    0  0.10920794450E+02 -0.30534550335E+02 -0.20947272517E+02  0.38605838179E+02  0.00000000000E+00 0. -1.
</event>
<event>
 7    1  0.2593256E-015  0.9000767E+02  0.7816164E-02  0.1186339E+00
        -11   -1    0    0    0    0  0.00000000000E+00  0.00000000000E+00  0.45593999997E+02  0.45594000000E+02  0.51100000000E-03 0.  1.
         11   -1    0    0    0    0 -0.00000000000E+00 -0.00000000000E+00 -0.45593999997E+02  0.45594000000E+02  0.51100000000E-03 0. -1.
    9900012    2    1    2    0    0  0.10407706651E+01 -0.38228936760E+00 -0.40475233124E+00  0.90007672424E+02  0.89999932900E+02 0.  0.
        -12    1    1    2    0    0 -0.10407706651E+01  0.38228936760E+00  0.40475233124E+00  0.11803275764E+01  0.00000000000E+00 0.  1.
         11    1    3    3    0    0 -0.18583926607E+02 -0.71284981590E+01 -0.36282516955E+02  0.41383557737E+02  0.51100000000E-03 0. -1.
        -11    1    3    3    0    0  0.10104413346E+02 -0.36472668161E+01  0.74361947352E+00  0.10768226153E+02  0.51100000000E-03 0.  1.
        -12    1    3    3    0    0  0.95202839261E+01  0.10393475607E+02  0.35134145150E+02  0.37855888534E+02  0.00000000000E+00 0.  1.
</event>
<event>
 7    1  0.2593256E-015  0.9000774E+02  0.7816164E-02  0.1186339E+00
        -11   -1    0    0    0    0  0.00000000000E+00  0.00000000000E+00  0.45593999997E+02  0.45594000000E+02  0.51100000000E-03 0. -1.
         11   -1    0    0    0    0 -0.00000000000E+00 -0.00000000000E+00 -0.45593999997E+02  0.45594000000E+02  0.51100000000E-03 0.  1.
    9900012    2    1    2    0    0 -0.46404599509E+00  0.10533772501E+01  0.26089144102E+00  0.90007742968E+02  0.90000004376E+02 0.  0.
        -12    1    1    2    0    0  0.46404599509E+00 -0.10533772501E+01 -0.26089144102E+00  0.11802570316E+01  0.00000000000E+00 0.  1.
         11    1    3    3    0    0  0.61092848304E+01  0.52323600983E+01 -0.58446518913E+01  0.99428823451E+01  0.51100000000E-03 0. -1.
        -11    1    3    3    0    0  0.26156575213E+02 -0.14472824449E+02 -0.20837910269E+02  0.36439642960E+02  0.51100000000E-03 0.  1.
         12    1    3    3    0    0 -0.32729906039E+02  0.10293841601E+02  0.26943453601E+02  0.43625217663E+02  0.00000000000E+00 0. -1.
</event>
<event>
 7    1  0.2593256E-015  0.9000784E+02  0.7816164E-02  0.1186339E+00
        -11   -1    0    0    0    0  0.00000000000E+00  0.00000000000E+00  0.45593999997E+02  0.45594000000E+02  0.51100000000E-03 0.  1.
         11   -1    0    0    0    0 -0.00000000000E+00 -0.00000000000E+00 -0.45593999997E+02  0.45594000000E+02  0.51100000000E-03 0. -1.
    9900012    2    1    2    0    0 -0.13551145530E+00  0.11722944683E+01  0.12293116988E-01  0.90007835268E+02  0.90000097893E+02 0.  0.
        -12    1    1    2    0    0  0.13551145530E+00 -0.11722944683E+01 -0.12293116988E-01  0.11801647324E+01  0.00000000000E+00 0.  1.
         11    1    3    3    0    0  0.20562018233E+02 -0.27933525111E+02  0.14356909779E+01  0.34715121025E+02  0.51100000000E-03 0. -1.
        -11    1    3    3    0    0  0.11136772839E+00 -0.96830002996E+01  0.48493889465E+01  0.10830026361E+02  0.51100000000E-03 0.  1.
        -12    1    3    3    0    0 -0.20808897417E+02  0.38788819879E+02 -0.62727868074E+01  0.44462687881E+02  0.00000000000E+00 0.  1.
</event>
<event>
 7    1  0.2593256E-015  0.9000774E+02  0.7816164E-02  0.1186339E+00
        -11   -1    0    0    0    0  0.00000000000E+00  0.00000000000E+00  0.45593999997E+02  0.45594000000E+02  0.51100000000E-03 0.  1.
         11   -1    0    0    0    0 -0.00000000000E+00 -0.00000000000E+00 -0.45593999997E+02  0.45594000000E+02  0.51100000000E-03 0. -1.
    9900012    2    1    2    0    0 -0.77704454459E+00  0.74113952515E-01 -0.88528745548E+00  0.90007735207E+02  0.89999996512E+02 0.  0.
        -12    1    1    2    0    0  0.77704454459E+00 -0.74113952515E-01  0.88528745548E+00  0.11802647928E+01  0.00000000000E+00 0.  1.
         11    1    3    3    0    0 -0.31597265269E+02  0.23596493847E+02 -0.10020161979E+02  0.40688884731E+02  0.51100000000E-03 0. -1.
        -11    1    3    3    0    0  0.59858595887E+01  0.69184555626E+01  0.10389532970E+01  0.92073322196E+01  0.51100000000E-03 0.  1.
        -12    1    3    3    0    0  0.24834361136E+02 -0.30440835457E+02  0.80959212262E+01  0.40111518256E+02  0.00000000000E+00 0.  1.
</event>
<event>
 7    1  0.2593256E-015  0.9000782E+02  0.7816164E-02  0.1186339E+00
        -11   -1    0    0    0    0  0.00000000000E+00  0.00000000000E+00  0.45593999997E+02  0.45594000000E+02  0.51100000000E-03 0.  1.
         11   -1    0    0    0    0 -0.00000000000E+00 -0.00000000000E+00 -0.45593999997E+02  0.45594000000E+02  0.51100000000E-03 0. -1.
    9900012    2    1    2    0    0 -0.94119916473E+00  0.65666537572E+00 -0.27522421689E+00  0.90007824736E+02  0.90000087223E+02 0.  0.
        -12    1    1    2    0    0  0.94119916473E+00 -0.65666537572E+00  0.27522421689E+00  0.11801752637E+01  0.00000000000E+00 0.  1.
         11    1    3    3    0    0  0.58325352713E+01  0.51052410992E+01  0.66249153993E+01  0.10196639578E+02  0.51100000000E-03 0. -1.
        -11    1    3    3    0    0 -0.41266242045E+01 -0.27067815307E+02  0.27337285215E+02  0.38691379092E+02  0.51100000000E-03 0.  1.
         12    1    3    3    0    0 -0.26471102315E+01  0.22619239584E+02 -0.34237424831E+02  0.41119806067E+02  0.00000000000E+00 0. -1.
</event>
<event>
 7    1  0.2593256E-015  0.9000766E+02  0.7816164E-02  0.1186339E+00
        -11   -1    0    0    0    0  0.00000000000E+00  0.00000000000E+00  0.45593999997E+02  0.45594000000E+02  0.51100000000E-03 0. -1.
         11   -1    0    0    0    0 -0.00000000000E+00 -0.00000000000E+00 -0.45593999997E+02  0.45594000000E+02  0.51100000000E-03 0.  1.
    9900012    2    1    2    0    0  0.66711738785E+00 -0.81103736582E+00 -0.53887087947E+00  0.90007657235E+02  0.89999917511E+02 0.  0.
        -12    1    1    2    0    0 -0.66711738785E+00  0.81103736582E+00  0.53887087947E+00  0.11803427649E+01  0.00000000000E+00 0.  1.
         11    1    3    3    0    0  0.20145850730E+01 -0.37376689051E+02 -0.23100376883E+02  0.43985257187E+02  0.51100000000E-03 0. -1.
        -11    1    3    3    0    0  0.10389395334E+01  0.24576669067E+01  0.87483634788E+01  0.91462224878E+01  0.51100000000E-03 0.  1.
        -12    1    3    3    0    0 -0.23864072185E+01  0.34107984778E+02  0.13813142525E+02  0.36876177560E+02  0.00000000000E+00 0.  1.
</event>
<event>
 7    1  0.2593256E-015  0.9000768E+02  0.7816164E-02  0.1186339E+00
        -11   -1    0    0    0    0  0.00000000000E+00  0.00000000000E+00  0.45593999997E+02  0.45594000000E+02  0.51100000000E-03 0. -1.
         11   -1    0    0    0    0 -0.00000000000E+00 -0.00000000000E+00 -0.45593999997E+02  0.45594000000E+02  0.51100000000E-03 0.  1.
    9900012    2    1    2    0    0  0.23112849431E+00  0.80959100129E+00  0.82722676896E+00  0.90007677121E+02  0.89999937659E+02 0.  0.
        -12    1    1    2    0    0 -0.23112849431E+00 -0.80959100129E+00 -0.82722676896E+00  0.11803228785E+01  0.00000000000E+00 0.  1.
         11    1    3    3    0    0 -0.11252322876E+02 -0.32200505918E+01  0.39295991496E+02  0.41001932197E+02  0.51100000000E-03 0. -1.
        -11    1    3    3    0    0  0.13345053982E+02 -0.44802472751E+01 -0.58506498495E+01  0.15244447689E+02  0.51100000000E-03 0.  1.
        -12    1    3    3    0    0 -0.18616026123E+01  0.85098888682E+01 -0.32618114878E+02  0.33761297235E+02  0.00000000000E+00 0.  1.
</event>
<event>
 7    1  0.2593256E-015  0.9000778E+02  0.7816164E-02  0.1186339E+00
        -11   -1    0    0    0    0  0.00000000000E+00  0.00000000000E+00  0.45593999997E+02  0.45594000000E+02  0.51100000000E-03 0.  1.
         11   -1    0    0    0    0 -0.00000000000E+00 -0.00000000000E+00 -0.45593999997E+02  0.45594000000E+02  0.51100000000E-03 0. -1.
    9900012    2    1    2    0    0  0.90745637528E+00 -0.54897436837E+00 -0.51775577155E+00  0.90007779271E+02  0.90000041157E+02 0.  0.
        -12    1    1    2    0    0 -0.90745637528E+00  0.54897436837E+00  0.51775577155E+00  0.11802207290E+01  0.00000000000E+00 0.  1.
         11    1    3    3    0    0 -0.38586700909E+01 -0.20014219958E+01  0.86180238774E+01  0.96522205056E+01  0.51100000000E-03 0. -1.
        -11    1    3    3    0    0 -0.73394632304E+01 -0.37498526052E+02  0.13733583958E+01  0.38234713156E+02  0.51100000000E-03 0.  1.
         12    1    3    3    0    0  0.12105589697E+02  0.38950973679E+02 -0.10509138045E+02  0.42120845610E+02  0.00000000000E+00 0. -1.
</event>
<event>
 7    1  0.2593256E-015  0.9000780E+02  0.7816164E-02  0.1186339E+00
        -11   -1    0    0    0    0  0.00000000000E+00  0.00000000000E+00  0.45593999997E+02  0.45594000000E+02  0.51100000000E-03 0.  1.
         11   -1    0    0    0    0 -0.00000000000E+00 -0.00000000000E+00 -0.45593999997E+02  0.45594000000E+02  0.51100000000E-03 0. -1.
    9900012    2    1    2    0    0  0.81206182832E+00 -0.60854221236E+00 -0.60258362033E+00  0.90007798722E+02  0.90000060865E+02 0.  0.
        -12    1    1    2    0    0 -0.81206182832E+00  0.60854221236E+00  0.60258362033E+00  0.11802012781E+01  0.00000000000E+00 0.  1.
         11    1    3    3    0    0 -0.53047157041E+01 -0.60194845247E+01 -0.45836687294E+01  0.92403583225E+01  0.51100000000E-03 0. -1.
        -11    1    3    3    0    0 -0.20361534946E+02 -0.27918094877E+02 -0.99848765929E+01  0.35968178822E+02  0.51100000000E-03 0.  1.
         12    1    3    3    0    0  0.26478312478E+02  0.33329037189E+02  0.13965961702E+02  0.44799261578E+02  0.00000000000E+00 0. -1.
</event>
<event>
 7    1  0.2593256E-015  0.9000776E+02  0.7816164E-02  0.1186339E+00
        -11   -1    0    0    0    0  0.00000000000E+00  0.00000000000E+00  0.45593999997E+02  0.45594000000E+02  0.51100000000E-03 0. -1.
         11   -1    0    0    0    0 -0.00000000000E+00 -0.00000000000E+00 -0.45593999997E+02  0.45594000000E+02  0.51100000000E-03 0.  1.
    9900012    2    1    2    0    0 -0.80214756463E-01 -0.10292011582E+01 -0.57207425993E+00  0.90007763418E+02  0.90000025095E+02 0.  0.
        -12    1    1    2    0    0  0.80214756463E-01  0.10292011582E+01  0.57207425993E+00  0.11802365822E+01  0.00000000000E+00 0.  1.
         11    1    3    3    0    0 -0.19946708691E+01 -0.99680907000E+01 -0.72764993658E+01  0.12501559397E+02  0.51100000000E-03 0. -1.
        -11    1    3    3    0    0  0.23512804523E+02  0.35391509728E+02  0.84063610921E+01  0.43313714277E+02  0.51100000000E-03 0.  1.
         12    1    3    3    0    0 -0.21598348410E+02 -0.26452620186E+02 -0.17019359862E+01  0.34192489744E+02  0.00000000000E+00 0. -1.
</event>
<event>
 7    1  0.2593256E-015  0.9000779E+02  0.7816164E-02  0.1186339E+00
        -11   -1    0    0    0    0  0.00000000000E+00  0.00000000000E+00  0.45593999997E+02  0.45594000000E+02  0.51100000000E-03 0.  1.
         11   -1    0    0    0    0 -0.00000000000E+00 -0.00000000000E+00 -0.45593999997E+02  0.45594000000E+02  0.51100000000E-03 0. -1.
    9900012    2    1    2    0    0  0.36013612689E+00 -0.11195724398E+01  0.98713946065E-01  0.90007794543E+02  0.90000056631E+02 0.  0.
        -12    1    1    2    0    0 -0.36013612689E+00  0.11195724398E+01 -0.98713946065E-01  0.11802054571E+01  0.00000000000E+00 0.  1.
         11    1    3    3    0    0  0.92578331494E-01  0.46650937485E+01  0.10912219668E+02  0.11867948802E+02  0.51100000000E-03 0. -1.
        -11    1    3    3    0    0 -0.28786717746E+02 -0.27221533308E+02 -0.13692420265E+02  0.41918604070E+02  0.51100000000E-03 0.  1.
         12    1    3    3    0    0  0.29054275542E+02  0.21436867120E+02  0.28789145426E+01  0.36221241670E+02  0.00000000000E+00 0. -1.
</event>
<event>
 7    1  0.2593256E-015  0.9000785E+02  0.7816164E-02  0.1186339E+00
        -11   -1    0    0    0    0  0.00000000000E+00  0.00000000000E+00  0.45593999997E+02  0.45594000000E+02  0.51100000000E-03 0.  1.
         11   -1    0    0    0    0 -0.00000000000E+00 -0.00000000000E+00 -0.45593999997E+02  0.45594000000E+02  0.51100000000E-03 0. -1.
    9900012    2    1    2    0    0 -0.10531267545E+01 -0.48691842218E+00  0.21583148469E+00  0.90007852238E+02  0.90000115087E+02 0.  0.
        -12    1    1    2    0    0  0.10531267545E+01  0.48691842218E+00 -0.21583148469E+00  0.11801477623E+01  0.00000000000E+00 0.  1.
         11    1    3    3    0    0  0.14742765699E+01  0.68129123430E+01 -0.75328151282E+01  0.10263165692E+02  0.51100000000E-03 0. -1.
        -11    1    3    3    0    0  0.36149886408E+02  0.47192685393E+01 -0.60534678084E+01  0.36955787850E+02  0.51100000000E-03 0.  1.
         12    1    3    3    0    0 -0.38677289732E+02 -0.12019099304E+02  0.13802114421E+02  0.42788898696E+02  0.00000000000E+00 0. -1.
</event>
<event>
 7    1  0.2593256E-015  0.9000773E+02  0.7816164E-02  0.1186339E+00
        -11   -1    0    0    0    0  0.00000000000E+00  0.00000000000E+00  0.45593999997E+02  0.45594000000E+02  0.51100000000E-03 0. -1.
         11   -1    0    0    0    0 -0.00000000000E+00 -0.00000000000E+00 -0.45593999997E+02  0.45594000000E+02  0.51100000000E-03 0.  1.
    9900012    2    1    2    0    0  0.28836061054E+00  0.96817306968E+00  0.61035709326E+00  0.90007726000E+02  0.89999987183E+02 0.  0.
        -12    1    1    2    0    0 -0.28836061054E+00 -0.96817306968E+00 -0.61035709326E+00  0.11802740003E+01  0.00000000000E+00 0.  1.
         11    1    3    3    0    0  0.80843556085E+01  0.40838210177E+01 -0.25812591204E+01  0.94179243264E+01  0.51100000000E-03 0. -1.
        -11    1    3    3    0    0 -0.70238778285E+01 -0.45300187503E+00 -0.38332454222E+02  0.38973287228E+02  0.51100000000E-03 0.  1.
         12    1    3    3    0    0 -0.77211716952E+00 -0.26626460730E+01  0.41524070435E+02  0.41616514445E+02  0.00000000000E+00 0. -1.
</event>
<event>
 7    1  0.2593256E-015  0.9000774E+02  0.7816164E-02  0.1186339E+00
        -11   -1    0    0    0    0  0.00000000000E+00  0.00000000000E+00  0.45593999997E+02  0.45594000000E+02  0.51100000000E-03 0. -1.
         11   -1    0    0    0    0 -0.00000000000E+00 -0.00000000000E+00 -0.45593999997E+02  0.45594000000E+02  0.51100000000E-03 0.  1.
    9900012    2    1    2    0    0 -0.61150150612E+00 -0.49613787040E+00 -0.87916154579E+00  0.90007740748E+02  0.90000002126E+02 0.  0.
        -12    1    1    2    0    0  0.61150150612E+00  0.49613787040E+00  0.87916154579E+00  0.11802592520E+01  0.00000000000E+00 0.  1.
         11    1    3    3    0    0 -0.81827108501E+01 -0.30027982867E+02  0.11208762439E+02  0.33079795459E+02  0.51100000000E-03 0. -1.
        -11    1    3    3    0    0 -0.11918661285E+02 -0.69697944897E+01  0.44155822580E-01  0.13807044291E+02  0.51100000000E-03 0.  1.
        -12    1    3    3    0    0  0.19489870629E+02  0.36501639487E+02 -0.12132079808E+02  0.43120900997E+02  0.00000000000E+00 0.  1.
</event>
<event>
 7    1  0.2593256E-015  0.9000776E+02  0.7816164E-02  0.1186339E+00
        -11   -1    0    0    0    0  0.00000000000E+00  0.00000000000E+00  0.45593999997E+02  0.45594000000E+02  0.51100000000E-03 0.  1.
         11   -1    0    0    0    0 -0.00000000000E+00 -0.00000000000E+00 -0.45593999997E+02  0.45594000000E+02  0.51100000000E-03 0. -1.
    9900012    2    1    2    0    0  0.10796209821E+01 -0.19779190858E+00  0.43388352868E+00  0.90007763574E+02  0.90000025254E+02 0.  0.
        -12    1    1    2    0    0 -0.10796209821E+01  0.19779190858E+00 -0.43388352868E+00  0.11802364257E+01  0.00000000000E+00 0.  1.
         11    1    3    3    0    0  0.19710047172E+02 -0.11163727372E+02 -0.94428516118E-01  0.22652233562E+02  0.51100000000E-03 0. -1.
        -11    1    3    3    0    0 -0.21976090434E+02 -0.17215501469E+02  0.18751177917E+02  0.33629283595E+02  0.51100000000E-03 0.  1.
         12    1    3    3    0    0  0.33456642439E+01  0.28181436932E+02 -0.18222865872E+02  0.33726246417E+02  0.00000000000E+00 0. -1.
</event>
<event>
 7    1  0.2593256E-015  0.9000760E+02  0.7816164E-02  0.1186339E+00
        -11   -1    0    0    0    0  0.00000000000E+00  0.00000000000E+00  0.45593999997E+02  0.45594000000E+02  0.51100000000E-03 0. -1.
         11   -1    0    0    0    0 -0.00000000000E+00 -0.00000000000E+00 -0.45593999997E+02  0.45594000000E+02  0.51100000000E-03 0.  1.
    9900012    2    1    2    0    0  0.97495343552E-01 -0.72905515572E+00  0.92321272622E+00  0.90007598162E+02  0.89999857657E+02 0.  0.
        -12    1    1    2    0    0 -0.97495343552E-01  0.72905515572E+00 -0.92321272622E+00  0.11804018383E+01  0.00000000000E+00 0.  1.
         11    1    3    3    0    0 -0.90602691524E+01  0.50587595310E+01 -0.34755788731E+01  0.10943453471E+02  0.51100000000E-03 0. -1.
        -11    1    3    3    0    0 -0.28041398259E+02 -0.22867282828E+01 -0.19929710615E+02  0.34478145368E+02  0.51100000000E-03 0.  1.
         12    1    3    3    0    0  0.37199162755E+02 -0.35010864039E+01  0.24328502214E+02  0.44585999323E+02  0.00000000000E+00 0. -1.
</event>
<event>
 7    1  0.2593256E-015  0.9000773E+02  0.7816164E-02  0.1186339E+00
        -11   -1    0    0    0    0  0.00000000000E+00  0.00000000000E+00  0.45593999997E+02  0.45594000000E+02  0.51100000000E-03 0.  1.
         11   -1    0    0    0    0 -0.00000000000E+00 -0.00000000000E+00 -0.45593999997E+02  0.45594000000E+02  0.51100000000E-03 0. -1.
    9900012    2    1    2    0    0 -0.77411725760E+00  0.41586089747E+00  0.78793724210E+00  0.90007727611E+02  0.89999988816E+02 0.  0.
        -12    1    1    2    0    0  0.77411725760E+00 -0.41586089747E+00 -0.78793724210E+00  0.11802723889E+01  0.00000000000E+00 0.  1.
         11    1    3    3    0    0 -0.40671881020E+01 -0.34627818008E+01 -0.84609614623E+01  0.10006035478E+02  0.51100000000E-03 0. -1.
        -11    1    3    3    0    0 -0.47701203624E+01 -0.30168038306E+02  0.27001697483E+02  0.40767097649E+02  0.51100000000E-03 0.  1.
         12    1    3    3    0    0  0.80631912067E+01  0.34046681005E+02 -0.17752798778E+02  0.39234594484E+02  0.00000000000E+00 0. -1.
</event>
<event>
 7    1  0.2593256E-015  0.9000785E+02  0.7816164E-02  0.1186339E+00
        -11   -1    0    0    0    0  0.00000000000E+00  0.00000000000E+00  0.45593999997E+02  0.45594000000E+02  0.51100000000E-03 0.  1.
         11   -1    0    0    0    0 -0.00000000000E+00 -0.00000000000E+00 -0.45593999997E+02  0.45594000000E+02  0.51100000000E-03 0. -1.
    9900012    2    1    2    0    0  0.22694034534E+00  0.85300897139E+00 -0.78334519206E+00  0.90007849198E+02  0.90000112007E+02 0.  0.
        -12    1    1    2    0    0 -0.22694034534E+00 -0.85300897139E+00  0.78334519206E+00  0.11801508020E+01  0.00000000000E+00 0.  1.
         11    1    3    3    0    0  0.44407322035E+01 -0.98288829863E+01  0.10713453354E+02  0.15202142161E+02  0.51100000000E-03 0. -1.
        -11    1    3    3    0    0 -0.24933151471E+02 -0.11526846419E+02  0.17698185895E+02  0.32676536151E+02  0.51100000000E-03 0.  1.
         12    1    3    3    0    0  0.20719359612E+02  0.22208738377E+02 -0.29194984440E+02  0.42129170886E+02  0.00000000000E+00 0. -1.
</event>
<event>
 7    1  0.2593256E-015  0.9000822E+02  0.7816164E-02  0.1186338E+00
        -11   -1    0    0    0    0  0.00000000000E+00  0.00000000000E+00  0.45593999997E+02  0.45594000000E+02  0.51100000000E-03 0. -1.
         11   -1    0    0    0    0 -0.00000000000E+00 -0.00000000000E+00 -0.45593999997E+02  0.45594000000E+02  0.51100000000E-03 0.  1.
    9900012    2    1    2    0    0  0.51461579329E-01  0.85167178259E+00  0.81479516458E+00  0.90008218546E+02  0.90000486229E+02 0.  0.
        -12    1    1    2    0    0 -0.51461579329E-01 -0.85167178259E+00 -0.81479516458E+00  0.11797814542E+01  0.00000000000E+00 0.  1.
         11    1    3    3    0    0  0.23033232758E+01 -0.24697824414E+01  0.11281910733E+02  0.11776528922E+02  0.51100000000E-03 0. -1.
        -11    1    3    3    0    0 -0.22566664254E+02 -0.22084365465E+02  0.16817830915E+02  0.35774473728E+02  0.51100000000E-03 0.  1.
         12    1    3    3    0    0  0.20314802557E+02  0.25405819689E+02 -0.27284946483E+02  0.42457215896E+02  0.00000000000E+00 0. -1.
</event>
<event>
 7    1  0.2593256E-015  0.9000772E+02  0.7816164E-02  0.1186339E+00
        -11   -1    0    0    0    0  0.00000000000E+00  0.00000000000E+00  0.45593999997E+02  0.45594000000E+02  0.51100000000E-03 0. -1.
         11   -1    0    0    0    0 -0.00000000000E+00 -0.00000000000E+00 -0.45593999997E+02  0.45594000000E+02  0.51100000000E-03 0.  1.
    9900012    2    1    2    0    0 -0.34947746269E+00  0.10407278416E+01  0.43336962441E+00  0.90007721148E+02  0.89999982267E+02 0.  0.
        -12    1    1    2    0    0  0.34947746269E+00 -0.10407278416E+01 -0.43336962441E+00  0.11802788520E+01  0.00000000000E+00 0.  1.
         11    1    3    3    0    0  0.16598953448E+02  0.10176056439E+02  0.25633735831E+02  0.32189529247E+02  0.51100000000E-03 0. -1.
        -11    1    3    3    0    0 -0.56383431884E+01  0.35960504673E+01  0.13759763764E+02  0.15298810149E+02  0.51100000000E-03 0.  1.
        -12    1    3    3    0    0 -0.11310087722E+02 -0.12731379064E+02 -0.38960129971E+02  0.42519381752E+02  0.00000000000E+00 0.  1.
</event>
<event>
 7    1  0.2593256E-015  0.9000776E+02  0.7816164E-02  0.1186339E+00
        -11   -1    0    0    0    0  0.00000000000E+00  0.00000000000E+00  0.45593999997E+02  0.45594000000E+02  0.51100000000E-03 0. -1.
         11   -1    0    0    0    0 -0.00000000000E+00 -0.00000000000E+00 -0.45593999997E+02  0.45594000000E+02  0.51100000000E-03 0.  1.
    9900012    2    1    2    0    0  0.11580380496E+01  0.22709555471E+00  0.18771130813E-01  0.90007755589E+02  0.90000017162E+02 0.  0.
        -12    1    1    2    0    0 -0.11580380496E+01 -0.22709555471E+00 -0.18771130813E-01  0.11802444114E+01  0.00000000000E+00 0.  1.
         11    1    3    3    0    0 -0.98171603652E+01 -0.32529024249E+01  0.63018699925E+00  0.10361232926E+02  0.51100000000E-03 0. -1.
        -11    1    3    3    0    0 -0.33178463078E+02  0.71684755117E+01 -0.76182988465E+01  0.34788445366E+02  0.51100000000E-03 0.  1.
         12    1    3    3    0    0  0.44153661493E+02 -0.36884775321E+01  0.70068829781E+01  0.44858077297E+02  0.00000000000E+00 0. -1.
</event>
<event>
 7    1  0.2593256E-015  0.9000772E+02  0.7816164E-02  0.1186339E+00
        -11   -1    0    0    0    0  0.00000000000E+00  0.00000000000E+00  0.45593999997E+02  0.45594000000E+02  0.51100000000E-03 0. -1.
         11   -1    0    0    0    0 -0.00000000000E+00 -0.00000000000E+00 -0.45593999997E+02  0.45594000000E+02  0.51100000000E-03 0.  1.
    9900012    2    1    2    0    0 -0.51825855331E+00 -0.10229917095E+01 -0.27922844280E+00  0.90007715081E+02  0.89999976120E+02 0.  0.
        -12    1    1    2    0    0  0.51825855331E+00  0.10229917095E+01  0.27922844280E+00  0.11802849186E+01  0.00000000000E+00 0.  1.
         11    1    3    3    0    0 -0.39621616934E+02 -0.83992679657E+01 -0.13927736364E+02  0.42829920282E+02  0.51100000000E-03 0. -1.
        -11    1    3    3    0    0  0.18576106089E+01  0.75024403789E+01  0.39985097470E+01  0.87020347776E+01  0.51100000000E-03 0.  1.
        -12    1    3    3    0    0  0.37245747772E+02 -0.12616412273E+00  0.96499981746E+01  0.38475760022E+02  0.00000000000E+00 0.  1.
</event>
<event>
 7    1  0.2593256E-015  0.9000716E+02  0.7816164E-02  0.1186340E+00
        -11   -1    0    0    0    0  0.00000000000E+00  0.00000000000E+00  0.45593999997E+02  0.45594000000E+02  0.51100000000E-03 0.  1.
         11   -1    0    0    0    0 -0.00000000000E+00 -0.00000000000E+00 -0.45593999997E+02  0.45594000000E+02  0.51100000000E-03 0. -1.
    9900012    2    1    2    0    0  0.35528266851E+00 -0.11117517357E+01 -0.17932475261E+00  0.90007163405E+02  0.89999417160E+02 0.  0.
        -12    1    1    2    0    0 -0.35528266851E+00  0.11117517357E+01  0.17932475261E+00  0.11808365946E+01  0.00000000000E+00 0.  1.
         11    1    3    3    0    0 -0.19661443082E+02 -0.22015118216E+02  0.30649643352E+01  0.29675440701E+02  0.51100000000E-03 0. -1.
        -11    1    3    3    0    0 -0.11147915046E+02 -0.35519182828E+01  0.13023489580E+02  0.17507238917E+02  0.51100000000E-03 0.  1.
        -12    1    3    3    0    0  0.31164640797E+02  0.24455284763E+02 -0.16267778668E+02  0.42824483788E+02  0.00000000000E+00 0.  1.
</event>
<event>
 7    1  0.2593256E-015  0.9000771E+02  0.7816164E-02  0.1186339E+00
        -11   -1    0    0    0    0  0.00000000000E+00  0.00000000000E+00  0.45593999997E+02  0.45594000000E+02  0.51100000000E-03 0. -1.
         11   -1    0    0    0    0 -0.00000000000E+00 -0.00000000000E+00 -0.45593999997E+02  0.45594000000E+02  0.51100000000E-03 0.  1.
    9900012    2    1    2    0    0  0.42436208116E+00  0.60965253593E+00  0.91723840734E+00  0.90007709491E+02  0.89999970456E+02 0.  0.
        -12    1    1    2    0    0 -0.42436208116E+00 -0.60965253593E+00 -0.91723840734E+00  0.11802905093E+01  0.00000000000E+00 0.  1.
         11    1    3    3    0    0 -0.31159487922E+02  0.97649370198E+01 -0.17967332630E+02  0.37270534268E+02  0.51100000000E-03 0. -1.
        -11    1    3    3    0    0 -0.82911486042E+01 -0.31966785809E+01  0.26406078156E+01  0.92700975736E+01  0.51100000000E-03 0.  1.
        -12    1    3    3    0    0  0.39874998607E+02 -0.59586059030E+01  0.16243963221E+02  0.43467077649E+02  0.00000000000E+00 0.  1.
</event>
<event>
 7    1  0.2593256E-015  0.9000776E+02  0.7816164E-02  0.1186339E+00
        -11   -1    0    0    0    0  0.00000000000E+00  0.00000000000E+00  0.45593999997E+02  0.45594000000E+02  0.51100000000E-03 0.  1.
         11   -1    0    0    0    0 -0.00000000000E+00 -0.00000000000E+00 -0.45593999997E+02  0.45594000000E+02  0.51100000000E-03 0. -1.
    9900012    2    1    2    0    0  0.22464346345E-02  0.73883961043E+00 -0.92036176967E+00  0.90007764937E+02  0.90000026634E+02 0.  0.
        -12    1    1    2    0    0 -0.22464346345E-02 -0.73883961043E+00  0.92036176967E+00  0.11802350628E+01  0.00000000000E+00 0.  1.
         11    1    3    3    0    0 -0.17652133980E+02  0.34733354534E+02 -0.18270998809E+02  0.43032930983E+02  0.51100000000E-03 0. -1.
        -11    1    3    3    0    0  0.87125917646E+01 -0.29672006947E+01 -0.18771783099E+01  0.93934729407E+01  0.51100000000E-03 0.  1.
        -12    1    3    3    0    0  0.89417886499E+01 -0.31027314229E+02  0.19227815349E+02  0.37581361014E+02  0.00000000000E+00 0.  1.
</event>
<event>
 7    1  0.2593256E-015  0.9000775E+02  0.7816164E-02  0.1186339E+00
        -11   -1    0    0    0    0  0.00000000000E+00  0.00000000000E+00  0.45593999997E+02  0.45594000000E+02  0.51100000000E-03 0. -1.
         11   -1    0    0    0    0 -0.00000000000E+00 -0.00000000000E+00 -0.45593999997E+02  0.45594000000E+02  0.51100000000E-03 0.  1.
    9900012    2    1    2    0    0  0.10793732964E+00  0.10967515471E+01  0.42247253970E+00  0.90007746862E+02  0.90000008320E+02 0.  0.
        -12    1    1    2    0    0 -0.10793732964E+00 -0.10967515471E+01 -0.42247253970E+00  0.11802531381E+01  0.00000000000E+00 0.  1.
         11    1    3    3    0    0  0.11824122744E+02 -0.14185448713E+00  0.17574245747E+01  0.11954854360E+02  0.51100000000E-03 0. -1.
        -11    1    3    3    0    0 -0.21470794915E+02 -0.93460765365E+01  0.33206280675E+02  0.40632514781E+02  0.51100000000E-03 0.  1.
         12    1    3    3    0    0  0.97546095002E+01  0.10584682571E+02 -0.34541232710E+02  0.37420377721E+02  0.00000000000E+00 0. -1.
</event>
<event>
 7    1  0.2593256E-015  0.9000765E+02  0.7816164E-02  0.1186339E+00
        -11   -1    0    0    0    0  0.00000000000E+00  0.00000000000E+00  0.45593999997E+02  0.45594000000E+02  0.51100000000E-03 0.  1.
         11   -1    0    0    0    0 -0.00000000000E+00 -0.00000000000E+00 -0.45593999997E+02  0.45594000000E+02  0.51100000000E-03 0. -1.
    9900012    2    1    2    0    0  0.64162716440E-01 -0.10607424513E+01 -0.51373538962E+00  0.90007654520E+02  0.89999914759E+02 0.  0.
        -12    1    1    2    0    0 -0.64162716440E-01  0.10607424513E+01  0.51373538962E+00  0.11803454803E+01  0.00000000000E+00 0.  1.
         11    1    3    3    0    0  0.54903602315E+01 -0.40480824822E+00  0.66587673364E+01  0.86398557795E+01  0.51100000000E-03 0. -1.
        -11    1    3    3    0    0 -0.22256932644E+02  0.98269542159E+01  0.30368198630E+02  0.38912306128E+02  0.51100000000E-03 0.  1.
         12    1    3    3    0    0  0.16830735129E+02 -0.10482888419E+02 -0.37540701356E+02  0.42455492612E+02  0.00000000000E+00 0. -1.
</event>
<event>
 7    1  0.2593256E-015  0.9000776E+02  0.7816164E-02  0.1186339E+00
        -11   -1    0    0    0    0  0.00000000000E+00  0.00000000000E+00  0.45593999997E+02  0.45594000000E+02  0.51100000000E-03 0.  1.
         11   -1    0    0    0    0 -0.00000000000E+00 -0.00000000000E+00 -0.45593999997E+02  0.45594000000E+02  0.51100000000E-03 0. -1.
    9900012    2    1    2    0    0  0.61196152349E+00  0.84101883236E+00 -0.55781906616E+00  0.90007757782E+02  0.90000019385E+02 0.  0.
        -12    1    1    2    0    0 -0.61196152349E+00 -0.84101883236E+00  0.55781906616E+00  0.11802422180E+01  0.00000000000E+00 0.  1.
         11    1    3    3    0    0 -0.75846210741E+01 -0.62569435090E+01  0.82055089027E+01  0.12806490367E+02  0.51100000000E-03 0. -1.
        -11    1    3    3    0    0 -0.31677270341E+02  0.14072406201E+02  0.36686553411E+01  0.34856005291E+02  0.51100000000E-03 0.  1.
         12    1    3    3    0    0  0.39873852939E+02 -0.69744438599E+01 -0.12431983310E+02  0.42345262124E+02  0.00000000000E+00 0. -1.
</event>
<event>
 7    1  0.2593256E-015  0.9000772E+02  0.7816164E-02  0.1186339E+00
        -11   -1    0    0    0    0  0.00000000000E+00  0.00000000000E+00  0.45593999997E+02  0.45594000000E+02  0.51100000000E-03 0. -1.
         11   -1    0    0    0    0 -0.00000000000E+00 -0.00000000000E+00 -0.45593999997E+02  0.45594000000E+02  0.51100000000E-03 0.  1.
    9900012    2    1    2    0    0  0.14195220862E+00 -0.10135463429E+00  0.11673240115E+01  0.90007716755E+02  0.89999977816E+02 0.  0.
        -12    1    1    2    0    0 -0.14195220862E+00  0.10135463429E+00 -0.11673240115E+01  0.11802832454E+01  0.00000000000E+00 0.  1.
         11    1    3    3    0    0 -0.79824689039E+00 -0.30544208403E+01 -0.75040613840E+01  0.81411069446E+01  0.51100000000E-03 0. -1.
        -11    1    3    3    0    0  0.22898288341E+02  0.31049674677E+02 -0.12305637112E+02  0.40494970200E+02  0.51100000000E-03 0.  1.
         12    1    3    3    0    0 -0.21958089242E+02 -0.28096608471E+02  0.20977022507E+02  0.41371639610E+02  0.00000000000E+00 0. -1.
</event>
<event>
 7    1  0.2593256E-015  0.9000773E+02  0.7816164E-02  0.1186339E+00
        -11   -1    0    0    0    0  0.00000000000E+00  0.00000000000E+00  0.45593999997E+02  0.45594000000E+02  0.51100000000E-03 0. -1.
         11   -1    0    0    0    0 -0.00000000000E+00 -0.00000000000E+00 -0.45593999997E+02  0.45594000000E+02  0.51100000000E-03 0.  1.
    9900012    2    1    2    0    0 -0.60281366468E+00  0.69037089420E+00  0.74366438900E+00  0.90007731806E+02  0.89999993066E+02 0.  0.
        -12    1    1    2    0    0  0.60281366468E+00 -0.69037089420E+00 -0.74366438900E+00  0.11802681938E+01  0.00000000000E+00 0.  1.
         11    1    3    3    0    0 -0.41679249587E+01 -0.36159158299E+02  0.56654847155E+01  0.36836857150E+02  0.51100000000E-03 0. -1.
        -11    1    3    3    0    0 -0.76443103440E+01 -0.45077688955E+01  0.34315242234E+01  0.95147685105E+01  0.51100000000E-03 0.  1.
        -12    1    3    3    0    0  0.11209421638E+02  0.41357298089E+02 -0.83533445499E+01  0.43656106146E+02  0.00000000000E+00 0.  1.
</event>
<event>
 7    1  0.2593256E-015  0.9000799E+02  0.7816164E-02  0.1186339E+00
        -11   -1    0    0    0    0  0.00000000000E+00  0.00000000000E+00  0.45593999997E+02  0.45594000000E+02  0.51100000000E-03 0. -1.
         11   -1    0    0    0    0 -0.00000000000E+00 -0.00000000000E+00 -0.45593999997E+02  0.45594000000E+02  0.51100000000E-03 0.  1.
    9900012    2    1    2    0    0  0.70429587802E+00  0.65420752845E+00  0.68439915865E+00  0.90007990516E+02  0.90000255190E+02 0.  0.
        -12    1    1    2    0    0 -0.70429587802E+00 -0.65420752845E+00 -0.68439915865E+00  0.11800094840E+01  0.00000000000E+00 0.  1.
         11    1    3    3    0    0 -0.48318141745E+01  0.56957462472E+01 -0.32812406399E+01  0.81580937680E+01  0.51100000000E-03 0. -1.
        -11    1    3    3    0    0 -0.65057525234E+01 -0.39552792435E+01 -0.37702212278E+02  0.38463305379E+02  0.51100000000E-03 0.  1.
         12    1    3    3    0    0  0.12041862576E+02 -0.10862594752E+01  0.41667852076E+02  0.43386591369E+02  0.00000000000E+00 0. -1.
</event>
<event>
 7    1  0.2912111E-015  0.9000778E+02  0.7816164E-02  0.1186339E+00
        -11   -1    0    0    0    0  0.00000000000E+00  0.00000000000E+00  0.45593999997E+02  0.45594000000E+02  0.51100000000E-03 0. -1.
         11   -1    0    0    0    0 -0.00000000000E+00 -0.00000000000E+00 -0.45593999997E+02  0.45594000000E+02  0.51100000000E-03 0.  1.
    9900012    2    1    2    0    0 -0.10357022057E+01 -0.43096468001E+00  0.36676821582E+00  0.90007776064E+02  0.90000037908E+02 0.  0.
        -12    1    1    2    0    0  0.10357022057E+01  0.43096468001E+00 -0.36676821582E+00  0.11802239357E+01  0.00000000000E+00 0.  1.
         11    1    3    3    0    0  0.47405617341E+01 -0.26739806953E+02  0.23951345021E+02  0.36209903756E+02  0.51100000000E-03 0. -1.
        -11    1    3    3    0    0  0.83699509210E+01 -0.53214847836E+01  0.27316601925E+01  0.10287674489E+02  0.51100000000E-03 0.  1.
        -12    1    3    3    0    0 -0.14146214861E+02  0.31630327056E+02 -0.26316236998E+02  0.43510197820E+02  0.00000000000E+00 0.  1.
</event>
<event>
 7    1  0.2593256E-015  0.9000773E+02  0.7816164E-02  0.1186339E+00
        -11   -1    0    0    0    0  0.00000000000E+00  0.00000000000E+00  0.45593999997E+02  0.45594000000E+02  0.51100000000E-03 0. -1.
         11   -1    0    0    0    0 -0.00000000000E+00 -0.00000000000E+00 -0.45593999997E+02  0.45594000000E+02  0.51100000000E-03 0.  1.
    9900012    2    1    2    0    0  0.89186629155E+00 -0.35690145292E+00  0.68573870370E+00  0.90007728125E+02  0.89999989336E+02 0.  0.
        -12    1    1    2    0    0 -0.89186629155E+00  0.35690145292E+00 -0.68573870370E+00  0.11802718750E+01  0.00000000000E+00 0.  1.
         11    1    3    3    0    0 -0.79179042770E+01  0.42228474027E+01 -0.43698674146E+01  0.99810515382E+01  0.51100000000E-03 0. -1.
        -11    1    3    3    0    0 -0.99302583508E+01  0.32250242633E+02 -0.11296921999E+02  0.35585230472E+02  0.51100000000E-03 0.  1.
         12    1    3    3    0    0  0.18740028919E+02 -0.36829991489E+02  0.16352528117E+02  0.44441446115E+02  0.00000000000E+00 0. -1.
</event>
<event>
 7    1  0.2593256E-015  0.9000772E+02  0.7816164E-02  0.1186339E+00
        -11   -1    0    0    0    0  0.00000000000E+00  0.00000000000E+00  0.45593999997E+02  0.45594000000E+02  0.51100000000E-03 0. -1.
         11   -1    0    0    0    0 -0.00000000000E+00 -0.00000000000E+00 -0.45593999997E+02  0.45594000000E+02  0.51100000000E-03 0.  1.
    9900012    2    1    2    0    0  0.81036051263E-01  0.45187631413E+00  0.10873323174E+01  0.90007724349E+02  0.89999985510E+02 0.  0.
        -12    1    1    2    0    0 -0.81036051263E-01 -0.45187631413E+00 -0.10873323174E+01  0.11802756515E+01  0.00000000000E+00 0.  1.
         11    1    3    3    0    0 -0.28826498685E+02  0.19770665298E+01  0.18993985020E+02  0.34578133057E+02  0.51100000000E-03 0. -1.
        -11    1    3    3    0    0 -0.48895001638E+01  0.17105782184E+01  0.10143474313E+02  0.11389616371E+02  0.51100000000E-03 0.  1.
        -12    1    3    3    0    0  0.33797034900E+02 -0.32357684340E+01 -0.28050127015E+02  0.44039974920E+02  0.00000000000E+00 0.  1.
</event>
<event>
 7    1  0.2593256E-015  0.9000771E+02  0.7816164E-02  0.1186339E+00
        -11   -1    0    0    0    0  0.00000000000E+00  0.00000000000E+00  0.45593999997E+02  0.45594000000E+02  0.51100000000E-03 0. -1.
         11   -1    0    0    0    0 -0.00000000000E+00 -0.00000000000E+00 -0.45593999997E+02  0.45594000000E+02  0.51100000000E-03 0.  1.
    9900012    2    1    2    0    0 -0.62871054529E+00 -0.96273883037E+00 -0.26633086247E+00  0.90007713961E+02  0.89999974985E+02 0.  0.
        -12    1    1    2    0    0  0.62871054529E+00  0.96273883037E+00  0.26633086247E+00  0.11802860389E+01  0.00000000000E+00 0.  1.
         11    1    3    3    0    0  0.72512041280E+01 -0.26164046753E+02  0.18826635153E+02  0.33039060145E+02  0.51100000000E-03 0. -1.
        -11    1    3    3    0    0 -0.65762106476E+01 -0.13454540017E+02 -0.60365053883E+01  0.16146534957E+02  0.51100000000E-03 0.  1.
        -12    1    3    3    0    0 -0.13037040257E+01  0.38655847939E+02 -0.13056460627E+02  0.40822118860E+02  0.00000000000E+00 0.  1.
</event>
<event>
 7    1  0.2593256E-015  0.9000776E+02  0.7816164E-02  0.1186339E+00
        -11   -1    0    0    0    0  0.00000000000E+00  0.00000000000E+00  0.45593999997E+02  0.45594000000E+02  0.51100000000E-03 0.  1.
         11   -1    0    0    0    0 -0.00000000000E+00 -0.00000000000E+00 -0.45593999997E+02  0.45594000000E+02  0.51100000000E-03 0. -1.
    9900012    2    1    2    0    0  0.89650992825E+00 -0.50050663612E+00 -0.58200217059E+00  0.90007761265E+02  0.90000022914E+02 0.  0.
        -12    1    1    2    0    0 -0.89650992825E+00  0.50050663612E+00  0.58200217059E+00  0.11802387347E+01  0.00000000000E+00 0.  1.
         11    1    3    3    0    0  0.38377342517E+02 -0.17809787368E+02 -0.30708086755E+01  0.42419792679E+02  0.51100000000E-03 0. -1.
        -11    1    3    3    0    0 -0.86103742556E-01  0.75421717550E+01  0.46801316132E+01  0.88766773522E+01  0.51100000000E-03 0.  1.
        -12    1    3    3    0    0 -0.37394728846E+02  0.97671089770E+01 -0.21913251083E+01  0.38711291234E+02  0.00000000000E+00 0.  1.
</event>
<event>
 7    1  0.2593256E-015  0.9000767E+02  0.7816164E-02  0.1186339E+00
        -11   -1    0    0    0    0  0.00000000000E+00  0.00000000000E+00  0.45593999997E+02  0.45594000000E+02  0.51100000000E-03 0.  1.
         11   -1    0    0    0    0 -0.00000000000E+00 -0.00000000000E+00 -0.45593999997E+02  0.45594000000E+02  0.51100000000E-03 0. -1.
    9900012    2    1    2    0    0  0.42352496855E+00 -0.52125213279E+00  0.97062300595E+00  0.90007666909E+02  0.89999927313E+02 0.  0.
        -12    1    1    2    0    0 -0.42352496855E+00  0.52125213279E+00 -0.97062300595E+00  0.11803330905E+01  0.00000000000E+00 0.  1.
         11    1    3    3    0    0  0.62778466017E+01  0.13315326421E+02 -0.61142628372E+01  0.15940310096E+02  0.51100000000E-03 0. -1.
        -11    1    3    3    0    0 -0.22066915158E+02 -0.26414238032E+02  0.28294815536E+02  0.44556226298E+02  0.51100000000E-03 0.  1.
         12    1    3    3    0    0  0.16212593525E+02  0.12577659478E+02 -0.21209929693E+02  0.29511130516E+02  0.00000000000E+00 0. -1.
</event>
<event>
 7    1  0.2593256E-015  0.9000756E+02  0.7816164E-02  0.1186339E+00
        -11   -1    0    0    0    0  0.00000000000E+00  0.00000000000E+00  0.45593999997E+02  0.45594000000E+02  0.51100000000E-03 0.  1.
         11   -1    0    0    0    0 -0.00000000000E+00 -0.00000000000E+00 -0.45593999997E+02  0.45594000000E+02  0.51100000000E-03 0. -1.
    9900012    2    1    2    0    0 -0.77357395276E+00  0.52709418829E+00  0.71915973231E+00  0.90007561241E+02  0.89999820249E+02 0.  0.
        -12    1    1    2    0    0  0.77357395276E+00 -0.52709418829E+00 -0.71915973231E+00  0.11804387592E+01  0.00000000000E+00 0.  1.
         11    1    3    3    0    0 -0.29565807277E+02 -0.19343930454E+02 -0.15782003183E+02  0.38696204337E+02  0.51100000000E-03 0. -1.
        -11    1    3    3    0    0  0.96926875916E+00 -0.84864759443E+01  0.52316281388E+01  0.10016470892E+02  0.51100000000E-03 0.  1.
        -12    1    3    3    0    0  0.27822964565E+02  0.28357500586E+02  0.11269534777E+02  0.41294886012E+02  0.00000000000E+00 0.  1.
</event>
<event>
 7    1  0.2593256E-015  0.9000897E+02  0.7816164E-02  0.1186337E+00
        -11   -1    0    0    0    0  0.00000000000E+00  0.00000000000E+00  0.45593999997E+02  0.45594000000E+02  0.51100000000E-03 0. -1.
         11   -1    0    0    0    0 -0.00000000000E+00 -0.00000000000E+00 -0.45593999997E+02  0.45594000000E+02  0.51100000000E-03 0.  1.
    9900012    2    1    2    0    0 -0.47993984078E+00 -0.55509516616E+00 -0.92284306829E+00  0.90008969796E+02  0.90001247388E+02 0.  0.
        -12    1    1    2    0    0  0.47993984078E+00  0.55509516616E+00  0.92284306829E+00  0.11790302044E+01  0.00000000000E+00 0.  1.
         11    1    3    3    0    0  0.10551372182E+02 -0.57905666997E+01 -0.55040627193E+01  0.13234682629E+02  0.51100000000E-03 0. -1.
        -11    1    3    3    0    0 -0.25250724729E+02  0.28101854773E+02 -0.17797369004E+02  0.41761940625E+02  0.51100000000E-03 0.  1.
         12    1    3    3    0    0  0.14219412706E+02 -0.22866383240E+02  0.22378588655E+02  0.35012346542E+02  0.00000000000E+00 0. -1.
</event>
<event>
 7    1  0.2593256E-015  0.9000779E+02  0.7816164E-02  0.1186339E+00
        -11   -1    0    0    0    0  0.00000000000E+00  0.00000000000E+00  0.45593999997E+02  0.45594000000E+02  0.51100000000E-03 0.  1.
         11   -1    0    0    0    0 -0.00000000000E+00 -0.00000000000E+00 -0.45593999997E+02  0.45594000000E+02  0.51100000000E-03 0. -1.
    9900012    2    1    2    0    0 -0.56209285650E+00  0.93383164652E+00 -0.45266682115E+00  0.90007789352E+02  0.90000051371E+02 0.  0.
        -12    1    1    2    0    0  0.56209285650E+00 -0.93383164652E+00  0.45266682115E+00  0.11802106483E+01  0.00000000000E+00 0.  1.
         11    1    3    3    0    0  0.11332108908E+02  0.53396274984E+01 -0.18523353995E+01  0.12663311605E+02  0.51100000000E-03 0. -1.
        -11    1    3    3    0    0  0.30604804513E+02 -0.35073069219E+00  0.12770393210E+02  0.33164137473E+02  0.51100000000E-03 0.  1.
         12    1    3    3    0    0 -0.42499006278E+02 -0.40550651597E+01 -0.11370724632E+02  0.44180340274E+02  0.00000000000E+00 0. -1.
</event>
<event>
 7    1  0.2593256E-015  0.9000772E+02  0.7816164E-02  0.1186339E+00
        -11   -1    0    0    0    0  0.00000000000E+00  0.00000000000E+00  0.45593999997E+02  0.45594000000E+02  0.51100000000E-03 0. -1.
         11   -1    0    0    0    0 -0.00000000000E+00 -0.00000000000E+00 -0.45593999997E+02  0.45594000000E+02  0.51100000000E-03 0.  1.
    9900012    2    1    2    0    0 -0.68455315367E+00  0.91374695243E+00 -0.29919325403E+00  0.90007719052E+02  0.89999980143E+02 0.  0.
        -12    1    1    2    0    0  0.68455315367E+00 -0.91374695243E+00  0.29919325403E+00  0.11802809481E+01  0.00000000000E+00 0.  1.
         11    1    3    3    0    0 -0.84483466478E+00 -0.17278798057E+01 -0.85607800051E+01  0.87741819443E+01  0.51100000000E-03 0. -1.
        -11    1    3    3    0    0 -0.10012000244E+02 -0.29486225675E+02 -0.20204555389E+02  0.37120098493E+02  0.51100000000E-03 0.  1.
         12    1    3    3    0    0  0.10172281755E+02  0.32127852433E+02  0.28466142140E+02  0.44113438614E+02  0.00000000000E+00 0. -1.
</event>
<event>
 7    1  0.2593256E-015  0.9000772E+02  0.7816164E-02  0.1186339E+00
        -11   -1    0    0    0    0  0.00000000000E+00  0.00000000000E+00  0.45593999997E+02  0.45594000000E+02  0.51100000000E-03 0. -1.
         11   -1    0    0    0    0 -0.00000000000E+00 -0.00000000000E+00 -0.45593999997E+02  0.45594000000E+02  0.51100000000E-03 0.  1.
    9900012    2    1    2    0    0  0.25059270683E+00  0.65623284913E+00  0.94848120371E+00  0.90007722553E+02  0.89999983691E+02 0.  0.
        -12    1    1    2    0    0 -0.25059270683E+00 -0.65623284913E+00 -0.94848120371E+00  0.11802774465E+01  0.00000000000E+00 0.  1.
         11    1    3    3    0    0  0.28405092912E+01 -0.40188642951E+02 -0.25352621534E+01  0.40368590138E+02  0.51100000000E-03 0. -1.
        -11    1    3    3    0    0  0.61907637662E+01  0.10894329167E+01  0.62077714966E+01  0.88345258676E+01  0.51100000000E-03 0.  1.
        -12    1    3    3    0    0 -0.87806803506E+01  0.39755442883E+02 -0.27240281395E+01  0.40804606548E+02  0.00000000000E+00 0.  1.
</event>
<event>
 7    1  0.2593256E-015  0.9000764E+02  0.7816164E-02  0.1186339E+00
        -11   -1    0    0    0    0  0.00000000000E+00  0.00000000000E+00  0.45593999997E+02  0.45594000000E+02  0.51100000000E-03 0.  1.
         11   -1    0    0    0    0 -0.00000000000E+00 -0.00000000000E+00 -0.45593999997E+02  0.45594000000E+02  0.51100000000E-03 0. -1.
    9900012    2    1    2    0    0  0.68530507904E+00  0.81338252109E+00  0.51188432173E+00  0.90007635761E+02  0.89999895753E+02 0.  0.
        -12    1    1    2    0    0 -0.68530507904E+00 -0.81338252109E+00 -0.51188432173E+00  0.11803642386E+01  0.00000000000E+00 0.  1.
         11    1    3    3    0    0 -0.58150819324E+01 -0.13373796607E+02 -0.40273470106E+02  0.42832534459E+02  0.51100000000E-03 0. -1.
        -11    1    3    3    0    0 -0.94456081550E+00  0.82801953582E+01  0.41173095462E+01  0.92954864566E+01  0.51100000000E-03 0.  1.
        -12    1    3    3    0    0  0.74449478270E+01  0.59069837699E+01  0.36668044882E+02  0.37879614845E+02  0.00000000000E+00 0.  1.
</event>
<event>
 7    1  0.2593256E-015  0.9000775E+02  0.7816164E-02  0.1186339E+00
        -11   -1    0    0    0    0  0.00000000000E+00  0.00000000000E+00  0.45593999997E+02  0.45594000000E+02  0.51100000000E-03 0.  1.
         11   -1    0    0    0    0 -0.00000000000E+00 -0.00000000000E+00 -0.45593999997E+02  0.45594000000E+02  0.51100000000E-03 0. -1.
    9900012    2    1    2    0    0 -0.43521222896E+00 -0.10264100845E+01 -0.38738999264E+00  0.90007746488E+02  0.90000007942E+02 0.  0.
        -12    1    1    2    0    0  0.43521222896E+00  0.10264100845E+01  0.38738999264E+00  0.11802535119E+01  0.00000000000E+00 0.  1.
         11    1    3    3    0    0 -0.24743782545E+02 -0.20487339073E+02  0.13896259863E+02  0.35001312481E+02  0.51100000000E-03 0. -1.
        -11    1    3    3    0    0 -0.30073433059E+01 -0.67678431034E+01  0.81328035812E+01  0.10999559463E+02  0.51100000000E-03 0.  1.
        -12    1    3    3    0    0  0.27315913622E+02  0.26228772092E+02 -0.22416453437E+02  0.44006874544E+02  0.00000000000E+00 0.  1.
</event>
<event>
 7    1  0.2593256E-015  0.9000773E+02  0.7816164E-02  0.1186339E+00
        -11   -1    0    0    0    0  0.00000000000E+00  0.00000000000E+00  0.45593999997E+02  0.45594000000E+02  0.51100000000E-03 0. -1.
         11   -1    0    0    0    0 -0.00000000000E+00 -0.00000000000E+00 -0.45593999997E+02  0.45594000000E+02  0.51100000000E-03 0.  1.
    9900012    2    1    2    0    0  0.38430811737E+00  0.66014669370E+00  0.89975254310E+00  0.90007728410E+02  0.89999989625E+02 0.  0.
        -12    1    1    2    0    0 -0.38430811737E+00 -0.66014669370E+00 -0.89975254310E+00  0.11802715895E+01  0.00000000000E+00 0.  1.
         11    1    3    3    0    0 -0.21181288251E+02 -0.14865557950E+02  0.13949334236E+02  0.29397546004E+02  0.51100000000E-03 0. -1.
        -11    1    3    3    0    0 -0.11922146570E+01 -0.15283673765E+02  0.75834048399E+01  0.17103218667E+02  0.51100000000E-03 0.  1.
        -12    1    3    3    0    0  0.22757811025E+02  0.30809378409E+02 -0.20632986533E+02  0.43506963740E+02  0.00000000000E+00 0.  1.
</event>
<event>
 7    1  0.2593256E-015  0.9000756E+02  0.7816164E-02  0.1186339E+00
        -11   -1    0    0    0    0  0.00000000000E+00  0.00000000000E+00  0.45593999997E+02  0.45594000000E+02  0.51100000000E-03 0.  1.
         11   -1    0    0    0    0 -0.00000000000E+00 -0.00000000000E+00 -0.45593999997E+02  0.45594000000E+02  0.51100000000E-03 0. -1.
    9900012    2    1    2    0    0  0.94008219903E+00  0.15684116156E+00  0.69647626836E+00  0.90007562419E+02  0.89999821442E+02 0.  0.
        -12    1    1    2    0    0 -0.94008219903E+00 -0.15684116156E+00 -0.69647626836E+00  0.11804375813E+01  0.00000000000E+00 0.  1.
         11    1    3    3    0    0 -0.20131858893E+02 -0.27796552211E+02  0.17206801923E+02  0.38392891138E+02  0.51100000000E-03 0. -1.
        -11    1    3    3    0    0  0.23278804408E+01 -0.77539475930E+01 -0.15795587844E+00  0.80973872911E+01  0.51100000000E-03 0.  1.
        -12    1    3    3    0    0  0.18744060652E+02  0.35707340965E+02 -0.16352369776E+02  0.43517283989E+02  0.00000000000E+00 0.  1.
</event>
<event>
 7    1  0.2593256E-015  0.9000776E+02  0.7816164E-02  0.1186339E+00
        -11   -1    0    0    0    0  0.00000000000E+00  0.00000000000E+00  0.45593999997E+02  0.45594000000E+02  0.51100000000E-03 0. -1.
         11   -1    0    0    0    0 -0.00000000000E+00 -0.00000000000E+00 -0.45593999997E+02  0.45594000000E+02  0.51100000000E-03 0.  1.
    9900012    2    1    2    0    0 -0.62843467487E+00  0.93706390368E+00 -0.34635102561E+00  0.90007755138E+02  0.90000016706E+02 0.  0.
        -12    1    1    2    0    0  0.62843467487E+00 -0.93706390368E+00  0.34635102561E+00  0.11802448615E+01  0.00000000000E+00 0.  1.
         11    1    3    3    0    0 -0.10639208859E+02 -0.12453838308E+02 -0.55821900989E+01  0.17304672788E+02  0.51100000000E-03 0. -1.
        -11    1    3    3    0    0 -0.36700060471E+01  0.23276049625E+02 -0.27292048754E+02  0.36056890548E+02  0.51100000000E-03 0.  1.
         12    1    3    3    0    0  0.13680780231E+02 -0.98851474134E+01  0.32527887827E+02  0.36646191802E+02  0.00000000000E+00 0. -1.
</event>
<event>
 7    1  0.2593256E-015  0.9000771E+02  0.7816164E-02  0.1186339E+00
        -11   -1    0    0    0    0  0.00000000000E+00  0.00000000000E+00  0.45593999997E+02  0.45594000000E+02  0.51100000000E-03 0. -1.
         11   -1    0    0    0    0 -0.00000000000E+00 -0.00000000000E+00 -0.45593999997E+02  0.45594000000E+02  0.51100000000E-03 0.  1.
    9900012    2    1    2    0    0 -0.19699318641E+00  0.11038177579E+01 -0.36859123335E+00  0.90007712130E+02  0.89999973130E+02 0.  0.
        -12    1    1    2    0    0  0.19699318641E+00 -0.11038177579E+01  0.36859123335E+00  0.11802878697E+01  0.00000000000E+00 0.  1.
         11    1    3    3    0    0  0.23210627723E+02  0.71331385310E+01  0.22014180482E+02  0.32775586145E+02  0.51100000000E-03 0. -1.
        -11    1    3    3    0    0  0.34567028031E+01  0.15346742485E+02 -0.15760674962E+02  0.22268142597E+02  0.51100000000E-03 0.  1.
        -12    1    3    3    0    0 -0.26864323713E+02 -0.21376063259E+02 -0.66220967536E+01  0.34963983388E+02  0.00000000000E+00 0.  1.
</event>
<event>
 7    1  0.2593256E-015  0.9000767E+02  0.7816164E-02  0.1186339E+00
        -11   -1    0    0    0    0  0.00000000000E+00  0.00000000000E+00  0.45593999997E+02  0.45594000000E+02  0.51100000000E-03 0.  1.
         11   -1    0    0    0    0 -0.00000000000E+00 -0.00000000000E+00 -0.45593999997E+02  0.45594000000E+02  0.51100000000E-03 0. -1.
    9900012    2    1    2    0    0  0.99966192992E+00  0.27550362568E+00 -0.56386562289E+00  0.90007673493E+02  0.89999933983E+02 0.  0.
        -12    1    1    2    0    0 -0.99966192992E+00 -0.27550362568E+00  0.56386562289E+00  0.11803265068E+01  0.00000000000E+00 0.  1.
         11    1    3    3    0    0 -0.17777743879E+02  0.15431394727E+02 -0.30750162880E+02  0.38726588257E+02  0.51100000000E-03 0. -1.
        -11    1    3    3    0    0  0.59219928145E+01  0.38424368470E+01 -0.54374657115E+01  0.89106875965E+01  0.51100000000E-03 0.  1.
        -12    1    3    3    0    0  0.12855412994E+02 -0.18998327948E+02  0.35623762969E+02  0.42370397639E+02  0.00000000000E+00 0.  1.
</event>
<event>
 7    1  0.2593256E-015  0.9000776E+02  0.7816164E-02  0.1186339E+00
        -11   -1    0    0    0    0  0.00000000000E+00  0.00000000000E+00  0.45593999997E+02  0.45594000000E+02  0.51100000000E-03 0.  1.
         11   -1    0    0    0    0 -0.00000000000E+00 -0.00000000000E+00 -0.45593999997E+02  0.45594000000E+02  0.51100000000E-03 0. -1.
    9900012    2    1    2    0    0  0.10287959278E+01 -0.53743688593E+00  0.21377555568E+00  0.90007762966E+02  0.90000024637E+02 0.  0.
        -12    1    1    2    0    0 -0.10287959278E+01  0.53743688593E+00 -0.21377555568E+00  0.11802370337E+01  0.00000000000E+00 0.  1.
         11    1    3    3    0    0 -0.14743632795E+02  0.29638069243E+02 -0.12642678194E+02  0.35434829880E+02  0.51100000000E-03 0. -1.
        -11    1    3    3    0    0 -0.44844407045E+01  0.29776047415E+01 -0.86331861002E+01  0.10173899986E+02  0.51100000000E-03 0.  1.
        -12    1    3    3    0    0  0.20256869427E+02 -0.33153110870E+02  0.21489639849E+02  0.44399033100E+02  0.00000000000E+00 0.  1.
</event>
<event>
 7    1  0.2593256E-015  0.9000761E+02  0.7816164E-02  0.1186339E+00
        -11   -1    0    0    0    0  0.00000000000E+00  0.00000000000E+00  0.45593999997E+02  0.45594000000E+02  0.51100000000E-03 0.  1.
         11   -1    0    0    0    0 -0.00000000000E+00 -0.00000000000E+00 -0.45593999997E+02  0.45594000000E+02  0.51100000000E-03 0. -1.
    9900012    2    1    2    0    0  0.41643504808E+00  0.14365111387E+00 -0.10951127253E+01  0.90007607831E+02  0.89999867454E+02 0.  0.
        -12    1    1    2    0    0 -0.41643504808E+00 -0.14365111387E+00  0.10951127253E+01  0.11803921691E+01  0.00000000000E+00 0.  1.
         11    1    3    3    0    0  0.71660371167E+01 -0.68699652530E+01  0.27428570573E+01  0.10299115284E+02  0.51100000000E-03 0. -1.
        -11    1    3    3    0    0  0.53196910259E+00  0.24889234882E+01  0.37451775638E+02  0.37538156987E+02  0.51100000000E-03 0.  1.
         12    1    3    3    0    0 -0.72815711712E+01  0.45246928787E+01 -0.41289745421E+02  0.42170335560E+02  0.00000000000E+00 0. -1.
</event>
<event>
 7    1  0.2593256E-015  0.9000771E+02  0.7816164E-02  0.1186339E+00
        -11   -1    0    0    0    0  0.00000000000E+00  0.00000000000E+00  0.45593999997E+02  0.45594000000E+02  0.51100000000E-03 0.  1.
         11   -1    0    0    0    0 -0.00000000000E+00 -0.00000000000E+00 -0.45593999997E+02  0.45594000000E+02  0.51100000000E-03 0. -1.
    9900012    2    1    2    0    0 -0.16482799125E+00 -0.91119128129E+00 -0.73188318927E+00  0.90007707316E+02  0.89999968252E+02 0.  0.
        -12    1    1    2    0    0  0.16482799125E+00  0.91119128129E+00  0.73188318927E+00  0.11802926843E+01  0.00000000000E+00 0.  1.
         11    1    3    3    0    0 -0.23876653209E+01  0.87890647548E+01  0.17186288687E+01  0.92683488496E+01  0.51100000000E-03 0. -1.
        -11    1    3    3    0    0  0.91218726263E+00  0.99906783938E+01  0.36080136757E+02  0.37448925338E+02  0.51100000000E-03 0.  1.
         12    1    3    3    0    0  0.13106500670E+01 -0.19690934430E+02 -0.38530648814E+02  0.43290433128E+02  0.00000000000E+00 0. -1.
</event>
<event>
 7    1  0.2593256E-015  0.9000684E+02  0.7816164E-02  0.1186341E+00
        -11   -1    0    0    0    0  0.00000000000E+00  0.00000000000E+00  0.45593999997E+02  0.45594000000E+02  0.51100000000E-03 0. -1.
         11   -1    0    0    0    0 -0.00000000000E+00 -0.00000000000E+00 -0.45593999997E+02  0.45594000000E+02  0.51100000000E-03 0.  1.
    9900012    2    1    2    0    0  0.78724160362E+00  0.17327283753E+00 -0.86334090628E+00  0.90006843643E+02  0.89999093175E+02 0.  0.
        -12    1    1    2    0    0 -0.78724160362E+00 -0.17327283753E+00  0.86334090628E+00  0.11811563568E+01  0.00000000000E+00 0.  1.
         11    1    3    3    0    0  0.38402185999E+02 -0.45000102335E+01 -0.15310656107E+01  0.38695247044E+02  0.51100000000E-03 0. -1.
        -11    1    3    3    0    0  0.21421897063E+01 -0.74257919585E+01  0.54832171004E+01  0.94761296414E+01  0.51100000000E-03 0.  1.
        -12    1    3    3    0    0 -0.39757134102E+02  0.12099075030E+02 -0.48154923959E+01  0.41835466958E+02  0.00000000000E+00 0.  1.
</event>
<event>
 7    1  0.2593256E-015  0.9000788E+02  0.7816164E-02  0.1186339E+00
        -11   -1    0    0    0    0  0.00000000000E+00  0.00000000000E+00  0.45593999997E+02  0.45594000000E+02  0.51100000000E-03 0. -1.
         11   -1    0    0    0    0 -0.00000000000E+00 -0.00000000000E+00 -0.45593999997E+02  0.45594000000E+02  0.51100000000E-03 0.  1.
    9900012    2    1    2    0    0  0.10732130127E+01 -0.39789106235E+00 -0.28735617663E+00  0.90007882616E+02  0.90000145866E+02 0.  0.
        -12    1    1    2    0    0 -0.10732130127E+01  0.39789106235E+00  0.28735617663E+00  0.11801173841E+01  0.00000000000E+00 0.  1.
         11    1    3    3    0    0 -0.82534046644E+01 -0.10752397699E+02 -0.19906637523E+01  0.13700200264E+02  0.51100000000E-03 0. -1.
        -11    1    3    3    0    0 -0.32421461343E+02 -0.10541159425E+01 -0.38814627423E+01  0.32669987287E+02  0.51100000000E-03 0.  1.
         12    1    3    3    0    0  0.41748079021E+02  0.11408622579E+02  0.55847703180E+01  0.43637695065E+02  0.00000000000E+00 0. -1.
</event>
<event>
 7    1  0.2593256E-015  0.9000771E+02  0.7816164E-02  0.1186339E+00
        -11   -1    0    0    0    0  0.00000000000E+00  0.00000000000E+00  0.45593999997E+02  0.45594000000E+02  0.51100000000E-03 0.  1.
         11   -1    0    0    0    0 -0.00000000000E+00 -0.00000000000E+00 -0.45593999997E+02  0.45594000000E+02  0.51100000000E-03 0. -1.
    9900012    2    1    2    0    0  0.47233808422E+00  0.29753854491E+00 -0.10399315446E+01  0.90007707634E+02  0.89999968575E+02 0.  0.
        -12    1    1    2    0    0 -0.47233808422E+00 -0.29753854491E+00  0.10399315446E+01  0.11802923659E+01  0.00000000000E+00 0.  1.
         11    1    3    3    0    0  0.14461365059E+02 -0.16937492942E+02  0.78791516350E+01  0.23623944998E+02  0.51100000000E-03 0. -1.
        -11    1    3    3    0    0  0.23253504884E+02 -0.15263774535E+01  0.16565918075E+01  0.23362354638E+02  0.51100000000E-03 0.  1.
         12    1    3    3    0    0 -0.37242531859E+02  0.18761408941E+02 -0.10575674987E+02  0.43021407998E+02  0.00000000000E+00 0. -1.
</event>
<event>
 7    1  0.2593256E-015  0.9000772E+02  0.7816164E-02  0.1186339E+00
        -11   -1    0    0    0    0  0.00000000000E+00  0.00000000000E+00  0.45593999997E+02  0.45594000000E+02  0.51100000000E-03 0. -1.
         11   -1    0    0    0    0 -0.00000000000E+00 -0.00000000000E+00 -0.45593999997E+02  0.45594000000E+02  0.51100000000E-03 0.  1.
    9900012    2    1    2    0    0  0.11650406300E+00  0.10762568705E+01 -0.47027213140E+00  0.90007721251E+02  0.89999982371E+02 0.  0.
        -12    1    1    2    0    0 -0.11650406300E+00 -0.10762568705E+01  0.47027213140E+00  0.11802787491E+01  0.00000000000E+00 0.  1.
         11    1    3    3    0    0 -0.10653652148E+02  0.22774283794E+01  0.31117930880E+01  0.11330059161E+02  0.51100000000E-03 0. -1.
        -11    1    3    3    0    0 -0.14842153119E+02 -0.32597281804E+02 -0.11037871538E+02  0.37479419667E+02  0.51100000000E-03 0.  1.
         12    1    3    3    0    0  0.25612309330E+02  0.31396110295E+02  0.74558063190E+01  0.41198242423E+02  0.00000000000E+00 0. -1.
</event>
<event>
 7    1  0.2593256E-015  0.9000763E+02  0.7816164E-02  0.1186339E+00
        -11   -1    0    0    0    0  0.00000000000E+00  0.00000000000E+00  0.45593999997E+02  0.45594000000E+02  0.51100000000E-03 0. -1.
         11   -1    0    0    0    0 -0.00000000000E+00 -0.00000000000E+00 -0.45593999997E+02  0.45594000000E+02  0.51100000000E-03 0.  1.
    9900012    2    1    2    0    0  0.75562368014E+00 -0.11162541115E+00  0.89991946132E+00  0.90007626154E+02  0.89999886020E+02 0.  0.
        -12    1    1    2    0    0 -0.75562368014E+00  0.11162541115E+00 -0.89991946132E+00  0.11803738456E+01  0.00000000000E+00 0.  1.
         11    1    3    3    0    0  0.62411685017E+01 -0.54216968464E+01 -0.53696461082E+01  0.98579957673E+01  0.51100000000E-03 0. -1.
        -11    1    3    3    0    0  0.44923853558E+01 -0.45169282483E+01 -0.35514359761E+02  0.36081212791E+02  0.51100000000E-03 0.  1.
         12    1    3    3    0    0 -0.99779301773E+01  0.98269996835E+01  0.41783925330E+02  0.44068417596E+02  0.00000000000E+00 0. -1.
</event>
<event>
 7    1  0.2593256E-015  0.9000777E+02  0.7816164E-02  0.1186339E+00
        -11   -1    0    0    0    0  0.00000000000E+00  0.00000000000E+00  0.45593999997E+02  0.45594000000E+02  0.51100000000E-03 0.  1.
         11   -1    0    0    0    0 -0.00000000000E+00 -0.00000000000E+00 -0.45593999997E+02  0.45594000000E+02  0.51100000000E-03 0. -1.
    9900012    2    1    2    0    0 -0.88712738677E+00 -0.58460044075E-01  0.77623221941E+00  0.90007767381E+02  0.90000029110E+02 0.  0.
        -12    1    1    2    0    0  0.88712738677E+00  0.58460044075E-01 -0.77623221941E+00  0.11802326193E+01  0.00000000000E+00 0.  1.
         11    1    3    3    0    0 -0.67040423375E+01 -0.47764911035E+01 -0.63859941572E+00  0.82563224500E+01  0.51100000000E-03 0. -1.
        -11    1    3    3    0    0 -0.22573138657E+02 -0.23480991095E+02  0.19366771921E+02  0.37894265879E+02  0.51100000000E-03 0.  1.
         12    1    3    3    0    0  0.28390053608E+02  0.28199022154E+02 -0.17951940286E+02  0.43857179051E+02  0.00000000000E+00 0. -1.
</event>
<event>
 7    1  0.2593256E-015  0.9000785E+02  0.7816164E-02  0.1186339E+00
        -11   -1    0    0    0    0  0.00000000000E+00  0.00000000000E+00  0.45593999997E+02  0.45594000000E+02  0.51100000000E-03 0.  1.
         11   -1    0    0    0    0 -0.00000000000E+00 -0.00000000000E+00 -0.45593999997E+02  0.45594000000E+02  0.51100000000E-03 0. -1.
    9900012    2    1    2    0    0  0.11114461017E+01 -0.25534905787E-01 -0.39595627689E+00  0.90007853466E+02  0.90000116332E+02 0.  0.
        -12    1    1    2    0    0 -0.11114461017E+01  0.25534905787E-01  0.39595627689E+00  0.11801465340E+01  0.00000000000E+00 0.  1.
         11    1    3    3    0    0 -0.45121635103E+01 -0.76089401056E+01 -0.41220514584E+01  0.97594517039E+01  0.51100000000E-03 0. -1.
        -11    1    3    3    0    0 -0.28813633367E+02  0.29050532906E+01 -0.22530104089E+02  0.36691557516E+02  0.51100000000E-03 0.  1.
         12    1    3    3    0    0  0.34437242979E+02  0.46783519092E+01  0.26256199270E+02  0.43556844246E+02  0.00000000000E+00 0. -1.
</event>
<event>
 7    1  0.2593256E-015  0.9000768E+02  0.7816164E-02  0.1186339E+00
        -11   -1    0    0    0    0  0.00000000000E+00  0.00000000000E+00  0.45593999997E+02  0.45594000000E+02  0.51100000000E-03 0.  1.
         11   -1    0    0    0    0 -0.00000000000E+00 -0.00000000000E+00 -0.45593999997E+02  0.45594000000E+02  0.51100000000E-03 0. -1.
    9900012    2    1    2    0    0  0.21063192762E+00  0.10864629554E+01  0.41036278450E+00  0.90007675817E+02  0.89999936338E+02 0.  0.
        -12    1    1    2    0    0 -0.21063192762E+00 -0.10864629554E+01 -0.41036278450E+00  0.11803241831E+01  0.00000000000E+00 0.  1.
         11    1    3    3    0    0 -0.61212712253E+01 -0.38339365107E+01 -0.36609703332E+02  0.37315404445E+02  0.51100000000E-03 0. -1.
        -11    1    3    3    0    0  0.73259447371E+01  0.10691477870E+02 -0.21058251081E+01  0.13130562249E+02  0.51100000000E-03 0.  1.
        -12    1    3    3    0    0 -0.99404158422E+00 -0.57710784034E+01  0.39125891225E+02  0.39561709123E+02  0.00000000000E+00 0.  1.
</event>
<event>
 7    1  0.2593256E-015  0.9000771E+02  0.7816164E-02  0.1186339E+00
        -11   -1    0    0    0    0  0.00000000000E+00  0.00000000000E+00  0.45593999997E+02  0.45594000000E+02  0.51100000000E-03 0. -1.
         11   -1    0    0    0    0 -0.00000000000E+00 -0.00000000000E+00 -0.45593999997E+02  0.45594000000E+02  0.51100000000E-03 0.  1.
    9900012    2    1    2    0    0 -0.54917389429E+00  0.98889518698E+00  0.33701447248E+00  0.90007710031E+02  0.89999971003E+02 0.  0.
        -12    1    1    2    0    0  0.54917389429E+00 -0.98889518698E+00 -0.33701447248E+00  0.11802899693E+01  0.00000000000E+00 0.  1.
         11    1    3    3    0    0  0.35475629941E+00 -0.44596047195E+01  0.83407831968E+01  0.94648080214E+01  0.51100000000E-03 0. -1.
        -11    1    3    3    0    0  0.29874381886E+02  0.24118829764E+02  0.10859823120E+02  0.39901533814E+02  0.51100000000E-03 0.  1.
         12    1    3    3    0    0 -0.30778312080E+02 -0.18670329858E+02 -0.18863591844E+02  0.40641368195E+02  0.00000000000E+00 0. -1.
</event>
<event>
 7    1  0.2593256E-015  0.9000781E+02  0.7816164E-02  0.1186339E+00
        -11   -1    0    0    0    0  0.00000000000E+00  0.00000000000E+00  0.45593999997E+02  0.45594000000E+02  0.51100000000E-03 0. -1.
         11   -1    0    0    0    0 -0.00000000000E+00 -0.00000000000E+00 -0.45593999997E+02  0.45594000000E+02  0.51100000000E-03 0.  1.
    9900012    2    1    2    0    0 -0.80351311852E-01 -0.11763266861E+01  0.51558561032E-01  0.90007805486E+02  0.90000067718E+02 0.  0.
        -12    1    1    2    0    0  0.80351311852E-01  0.11763266861E+01 -0.51558561032E-01  0.11801945140E+01  0.00000000000E+00 0.  1.
         11    1    3    3    0    0 -0.33334417711E+02 -0.16675750699E+02  0.14271923336E+02  0.39911801031E+02  0.51100000000E-03 0. -1.
        -11    1    3    3    0    0 -0.30620582191E+01  0.10422229375E+02 -0.63803800544E+01  0.12597948864E+02  0.51100000000E-03 0.  1.
        -12    1    3    3    0    0  0.36316124619E+02  0.50771946382E+01 -0.78399847206E+01  0.37498055591E+02  0.00000000000E+00 0.  1.
</event>
<event>
 7    1  0.2593256E-015  0.9000784E+02  0.7816164E-02  0.1186339E+00
        -11   -1    0    0    0    0  0.00000000000E+00  0.00000000000E+00  0.45593999997E+02  0.45594000000E+02  0.51100000000E-03 0. -1.
         11   -1    0    0    0    0 -0.00000000000E+00 -0.00000000000E+00 -0.45593999997E+02  0.45594000000E+02  0.51100000000E-03 0.  1.
    9900012    2    1    2    0    0  0.90287291230E+00 -0.45393831640E+00  0.60954104364E+00  0.90007839089E+02  0.90000101765E+02 0.  0.
        -12    1    1    2    0    0 -0.90287291230E+00  0.45393831640E+00 -0.60954104364E+00  0.11801609105E+01  0.00000000000E+00 0.  1.
         11    1    3    3    0    0  0.19083791350E+02  0.33724901086E+02 -0.26557053161E+01  0.38840865291E+02  0.51100000000E-03 0. -1.
        -11    1    3    3    0    0 -0.10981644229E+02  0.26280385027E+00 -0.86888221659E+01  0.14005756200E+02  0.51100000000E-03 0.  1.
        -12    1    3    3    0    0 -0.71992742092E+01 -0.34441643253E+02  0.11954068526E+02  0.37161217599E+02  0.00000000000E+00 0.  1.
</event>
<event>
 7    1  0.2593256E-015  0.9000856E+02  0.7816164E-02  0.1186337E+00
        -11   -1    0    0    0    0  0.00000000000E+00  0.00000000000E+00  0.45593999997E+02  0.45594000000E+02  0.51100000000E-03 0. -1.
         11   -1    0    0    0    0 -0.00000000000E+00 -0.00000000000E+00 -0.45593999997E+02  0.45594000000E+02  0.51100000000E-03 0.  1.
    9900012    2    1    2    0    0  0.90702335251E+00 -0.74107342574E+00 -0.13857434959E+00  0.90008557744E+02  0.90000829903E+02 0.  0.
        -12    1    1    2    0    0 -0.90702335251E+00  0.74107342574E+00  0.13857434959E+00  0.11794422558E+01  0.00000000000E+00 0.  1.
         11    1    3    3    0    0  0.29144121325E+01  0.69066419055E+01  0.41483605579E+01  0.85676365509E+01  0.51100000000E-03 0. -1.
        -11    1    3    3    0    0  0.20661285154E+02 -0.36644747879E+02 -0.12184148016E+02  0.43797028603E+02  0.51100000000E-03 0.  1.
         12    1    3    3    0    0 -0.22668673934E+02  0.28997032547E+02  0.78972131087E+01  0.37643892590E+02  0.00000000000E+00 0. -1.
</event>
<event>
 7    1  0.2593256E-015  0.9000774E+02  0.7816164E-02  0.1186339E+00
        -11   -1    0    0    0    0  0.00000000000E+00  0.00000000000E+00  0.45593999997E+02  0.45594000000E+02  0.51100000000E-03 0.  1.
         11   -1    0    0    0    0 -0.00000000000E+00 -0.00000000000E+00 -0.45593999997E+02  0.45594000000E+02  0.51100000000E-03 0. -1.
    9900012    2    1    2    0    0 -0.11014114872E+01  0.20649690787E+00  0.37049864315E+00  0.90007738384E+02  0.89999999731E+02 0.  0.
        -12    1    1    2    0    0  0.11014114872E+01 -0.20649690787E+00 -0.37049864315E+00  0.11802616158E+01  0.00000000000E+00 0.  1.
         11    1    3    3    0    0 -0.40408747367E+01 -0.21057970601E+01 -0.13033075238E+01  0.47393734458E+01  0.51100000000E-03 0. -1.
        -11    1    3    3    0    0  0.71057042188E+01 -0.37810959523E+02  0.17071815517E+02  0.42090457087E+02  0.51100000000E-03 0.  1.
         12    1    3    3    0    0 -0.41662409693E+01  0.40123253491E+02 -0.15398009350E+02  0.43177907852E+02  0.00000000000E+00 0. -1.
</event>
<event>
 7    1  0.2593256E-015  0.9000733E+02  0.7816164E-02  0.1186340E+00
        -11   -1    0    0    0    0  0.00000000000E+00  0.00000000000E+00  0.45593999997E+02  0.45594000000E+02  0.51100000000E-03 0.  1.
         11   -1    0    0    0    0 -0.00000000000E+00 -0.00000000000E+00 -0.45593999997E+02  0.45594000000E+02  0.51100000000E-03 0. -1.
    9900012    2    1    2    0    0  0.81642549266E+00 -0.49711101384E+00 -0.69305119108E+00  0.90007326506E+02  0.89999582415E+02 0.  0.
        -12    1    1    2    0    0 -0.81642549266E+00  0.49711101384E+00  0.69305119108E+00  0.11806734937E+01  0.00000000000E+00 0.  1.
         11    1    3    3    0    0  0.42368390442E+01 -0.38692017239E+01 -0.65369383466E+01  0.86978784928E+01  0.51100000000E-03 0. -1.
        -11    1    3    3    0    0 -0.15894333320E+02 -0.35615965107E+02  0.97105858687E+01  0.40192316186E+02  0.51100000000E-03 0.  1.
         12    1    3    3    0    0  0.12473919768E+02  0.38988055817E+02 -0.38666987132E+01  0.41117131828E+02  0.00000000000E+00 0. -1.
</event>
<event>
 7    1  0.2593256E-015  0.9000767E+02  0.7816164E-02  0.1186339E+00
        -11   -1    0    0    0    0  0.00000000000E+00  0.00000000000E+00  0.45593999997E+02  0.45594000000E+02  0.51100000000E-03 0.  1.
         11   -1    0    0    0    0 -0.00000000000E+00 -0.00000000000E+00 -0.45593999997E+02  0.45594000000E+02  0.51100000000E-03 0. -1.
    9900012    2    1    2    0    0 -0.30475958858E+00 -0.62194766509E+00 -0.95575949442E+00  0.90007672284E+02  0.89999932759E+02 0.  0.
        -12    1    1    2    0    0  0.30475958858E+00  0.62194766509E+00  0.95575949442E+00  0.11803277156E+01  0.00000000000E+00 0.  1.
         11    1    3    3    0    0  0.92087985589E+01 -0.27741330117E+01 -0.40442510895E+02  0.41570355695E+02  0.51100000000E-03 0. -1.
        -11    1    3    3    0    0 -0.36404458147E+01  0.62290818895E+01 -0.10358584238E+01  0.72888483213E+01  0.51100000000E-03 0.  1.
        -12    1    3    3    0    0 -0.58731123328E+01 -0.40768965429E+01  0.40522609824E+02  0.41148468268E+02  0.00000000000E+00 0.  1.
</event>
<event>
 7    1  0.2593256E-015  0.9000772E+02  0.7816164E-02  0.1186339E+00
        -11   -1    0    0    0    0  0.00000000000E+00  0.00000000000E+00  0.45593999997E+02  0.45594000000E+02  0.51100000000E-03 0. -1.
         11   -1    0    0    0    0 -0.00000000000E+00 -0.00000000000E+00 -0.45593999997E+02  0.45594000000E+02  0.51100000000E-03 0.  1.
    9900012    2    1    2    0    0 -0.13637072132E+00  0.82051544927E+00 -0.83738356474E+00  0.90007722994E+02  0.89999984138E+02 0.  0.
        -12    1    1    2    0    0  0.13637072132E+00 -0.82051544927E+00  0.83738356474E+00  0.11802770059E+01  0.00000000000E+00 0.  1.
         11    1    3    3    0    0  0.26845322679E+01 -0.34766264104E+01 -0.75486197151E+01  0.87335734130E+01  0.51100000000E-03 0. -1.
        -11    1    3    3    0    0 -0.31592358035E+02  0.28648115420E+02  0.87119450438E+01  0.43528032233E+02  0.51100000000E-03 0.  1.
         12    1    3    3    0    0  0.28771455046E+02 -0.24350973561E+02 -0.20007088934E+01  0.37746117348E+02  0.00000000000E+00 0. -1.
</event>
<event>
 7    1  0.2593256E-015  0.9000776E+02  0.7816164E-02  0.1186339E+00
        -11   -1    0    0    0    0  0.00000000000E+00  0.00000000000E+00  0.45593999997E+02  0.45594000000E+02  0.51100000000E-03 0. -1.
         11   -1    0    0    0    0 -0.00000000000E+00 -0.00000000000E+00 -0.45593999997E+02  0.45594000000E+02  0.51100000000E-03 0.  1.
    9900012    2    1    2    0    0  0.93868730672E+00 -0.59223997926E+00  0.40135845611E+00  0.90007758218E+02  0.90000019827E+02 0.  0.
        -12    1    1    2    0    0 -0.93868730672E+00  0.59223997926E+00 -0.40135845611E+00  0.11802417816E+01  0.00000000000E+00 0.  1.
         11    1    3    3    0    0  0.24110730929E+02  0.87518842849E+01  0.24316990921E+02  0.35344573447E+02  0.51100000000E-03 0. -1.
        -11    1    3    3    0    0  0.88071900195E+01 -0.10532333195E+02  0.14807943844E+01  0.13809032944E+02  0.51100000000E-03 0.  1.
        -12    1    3    3    0    0 -0.31979233642E+02  0.11882089311E+01 -0.25396426849E+02  0.40854151827E+02  0.00000000000E+00 0.  1.
</event>
<event>
 7    1  0.2593256E-015  0.9000769E+02  0.7816164E-02  0.1186339E+00
        -11   -1    0    0    0    0  0.00000000000E+00  0.00000000000E+00  0.45593999997E+02  0.45594000000E+02  0.51100000000E-03 0. -1.
         11   -1    0    0    0    0 -0.00000000000E+00 -0.00000000000E+00 -0.45593999997E+02  0.45594000000E+02  0.51100000000E-03 0.  1.
    9900012    2    1    2    0    0 -0.52229113431E+00  0.56147748965E+00  0.89726529090E+00  0.90007690717E+02  0.89999951435E+02 0.  0.
        -12    1    1    2    0    0  0.52229113431E+00 -0.56147748965E+00 -0.89726529090E+00  0.11803092826E+01  0.00000000000E+00 0.  1.
         11    1    3    3    0    0 -0.16841249199E+01  0.80261475362E+01  0.42834086083E+01  0.92521840982E+01  0.51100000000E-03 0. -1.
        -11    1    3    3    0    0 -0.14317062900E+02 -0.33340296764E+02  0.21046962979E+02  0.41946732045E+02  0.51100000000E-03 0.  1.
         12    1    3    3    0    0  0.15478896685E+02  0.25875626717E+02 -0.24433106297E+02  0.38808774574E+02  0.00000000000E+00 0. -1.
</event>
<event>
 7    1  0.2593256E-015  0.9000784E+02  0.7816164E-02  0.1186339E+00
        -11   -1    0    0    0    0  0.00000000000E+00  0.00000000000E+00  0.45593999997E+02  0.45594000000E+02  0.51100000000E-03 0.  1.
         11   -1    0    0    0    0 -0.00000000000E+00 -0.00000000000E+00 -0.45593999997E+02  0.45594000000E+02  0.51100000000E-03 0. -1.
    9900012    2    1    2    0    0 -0.10923343565E+01 -0.42483279596E+00  0.13817435069E+00  0.90007843484E+02  0.90000106218E+02 0.  0.
        -12    1    1    2    0    0  0.10923343565E+01  0.42483279596E+00 -0.13817435069E+00  0.11801565159E+01  0.00000000000E+00 0.  1.
         11    1    3    3    0    0 -0.45517305657E+01 -0.44327239987E+01  0.82088093319E+01  0.10380358573E+02  0.51100000000E-03 0. -1.
        -11    1    3    3    0    0 -0.10142568035E+02 -0.22116713748E+02  0.25311161340E+02  0.35109480230E+02  0.51100000000E-03 0.  1.
         12    1    3    3    0    0  0.13601964245E+02  0.26124604951E+02 -0.33381796321E+02  0.44518004681E+02  0.00000000000E+00 0. -1.
</event>
<event>
 7    1  0.2593256E-015  0.9000772E+02  0.7816164E-02  0.1186339E+00
        -11   -1    0    0    0    0  0.00000000000E+00  0.00000000000E+00  0.45593999997E+02  0.45594000000E+02  0.51100000000E-03 0. -1.
         11   -1    0    0    0    0 -0.00000000000E+00 -0.00000000000E+00 -0.45593999997E+02  0.45594000000E+02  0.51100000000E-03 0.  1.
    9900012    2    1    2    0    0 -0.22799431240E+00 -0.11471364381E+01 -0.15858855875E+00  0.90007723022E+02  0.89999984166E+02 0.  0.
        -12    1    1    2    0    0  0.22799431240E+00  0.11471364381E+01  0.15858855875E+00  0.11802769781E+01  0.00000000000E+00 0.  1.
         11    1    3    3    0    0  0.49292790757E-01 -0.81011599214E+01  0.32255494406E+01  0.87198274815E+01  0.51100000000E-03 0. -1.
        -11    1    3    3    0    0 -0.32620656093E+02 -0.18773542446E+01  0.21865769962E+02  0.39315945356E+02  0.51100000000E-03 0.  1.
         12    1    3    3    0    0  0.32343368990E+02  0.88313777280E+01 -0.25249907962E+02  0.41971950184E+02  0.00000000000E+00 0. -1.
</event>
<event>
 7    1  0.2593256E-015  0.9000781E+02  0.7816164E-02  0.1186339E+00
        -11   -1    0    0    0    0  0.00000000000E+00  0.00000000000E+00  0.45593999997E+02  0.45594000000E+02  0.51100000000E-03 0.  1.
         11   -1    0    0    0    0 -0.00000000000E+00 -0.00000000000E+00 -0.45593999997E+02  0.45594000000E+02  0.51100000000E-03 0. -1.
    9900012    2    1    2    0    0 -0.68366144599E+00  0.23925255922E+00 -0.93177935029E+00  0.90007810389E+02  0.90000072686E+02 0.  0.
        -12    1    1    2    0    0  0.68366144599E+00 -0.23925255922E+00  0.93177935029E+00  0.11801896108E+01  0.00000000000E+00 0.  1.
         11    1    3    3    0    0 -0.26779286616E+01 -0.89181177512E+01  0.11226205858E+01  0.93789340216E+01  0.51100000000E-03 0. -1.
        -11    1    3    3    0    0 -0.29982489870E+02 -0.53128062387E+01 -0.24401035686E+02  0.39020329980E+02  0.51100000000E-03 0.  1.
         12    1    3    3    0    0  0.31976757086E+02  0.14470176549E+02  0.22346635750E+02  0.41608546387E+02  0.00000000000E+00 0. -1.
</event>
<event>
 7    1  0.2593256E-015  0.9000791E+02  0.7816164E-02  0.1186339E+00
        -11   -1    0    0    0    0  0.00000000000E+00  0.00000000000E+00  0.45593999997E+02  0.45594000000E+02  0.51100000000E-03 0.  1.
         11   -1    0    0    0    0 -0.00000000000E+00 -0.00000000000E+00 -0.45593999997E+02  0.45594000000E+02  0.51100000000E-03 0. -1.
    9900012    2    1    2    0    0  0.32331040497E+00  0.74195066644E+00 -0.85882753362E+00  0.90007913079E+02  0.90000176731E+02 0.  0.
        -12    1    1    2    0    0 -0.32331040497E+00 -0.74195066644E+00  0.85882753362E+00  0.11800869213E+01  0.00000000000E+00 0.  1.
         11    1    3    3    0    0  0.41935612276E+01  0.77266100494E+01 -0.13665829435E+01  0.88968538162E+01  0.51100000000E-03 0. -1.
        -11    1    3    3    0    0 -0.22943032282E+01  0.36655439048E+02  0.55810643933E+01  0.37148799699E+02  0.51100000000E-03 0.  1.
         12    1    3    3    0    0 -0.15759475945E+01 -0.43640098431E+02 -0.50733089834E+01  0.43962259563E+02  0.00000000000E+00 0. -1.
</event>
<event>
 7    1  0.2593256E-015  0.9000774E+02  0.7816164E-02  0.1186339E+00
        -11   -1    0    0    0    0  0.00000000000E+00  0.00000000000E+00  0.45593999997E+02  0.45594000000E+02  0.51100000000E-03 0.  1.
         11   -1    0    0    0    0 -0.00000000000E+00 -0.00000000000E+00 -0.45593999997E+02  0.45594000000E+02  0.51100000000E-03 0. -1.
    9900012    2    1    2    0    0  0.28795245580E+00 -0.42398823885E+00 -0.10631726487E+01  0.90007737858E+02  0.89999999197E+02 0.  0.
        -12    1    1    2    0    0 -0.28795245580E+00  0.42398823885E+00  0.10631726487E+01  0.11802621422E+01  0.00000000000E+00 0.  1.
         11    1    3    3    0    0 -0.31490928536E+02  0.37221916262E+01  0.68788184576E+01  0.32447672246E+02  0.51100000000E-03 0. -1.
        -11    1    3    3    0    0 -0.12369813076E+02 -0.86657265135E-01 -0.42159860569E+01  0.13068830235E+02  0.51100000000E-03 0.  1.
        -12    1    3    3    0    0  0.44148694068E+02 -0.40595225999E+01 -0.37260050493E+01  0.44491235376E+02  0.00000000000E+00 0.  1.
</event>
<event>
 7    1  0.2593256E-015  0.9000785E+02  0.7816164E-02  0.1186339E+00
        -11   -1    0    0    0    0  0.00000000000E+00  0.00000000000E+00  0.45593999997E+02  0.45594000000E+02  0.51100000000E-03 0. -1.
         11   -1    0    0    0    0 -0.00000000000E+00 -0.00000000000E+00 -0.45593999997E+02  0.45594000000E+02  0.51100000000E-03 0.  1.
    9900012    2    1    2    0    0 -0.52558570074E+00  0.44266846228E+00  0.95945474068E+00  0.90007852087E+02  0.90000114935E+02 0.  0.
        -12    1    1    2    0    0  0.52558570074E+00 -0.44266846228E+00 -0.95945474068E+00  0.11801479126E+01  0.00000000000E+00 0.  1.
         11    1    3    3    0    0  0.65670369704E+01 -0.76579527396E+01 -0.21594203094E+01  0.10316652125E+02  0.51100000000E-03 0. -1.
        -11    1    3    3    0    0  0.15410426676E+02  0.16032160227E+02 -0.30942376877E+02  0.38104358004E+02  0.51100000000E-03 0.  1.
         12    1    3    3    0    0 -0.22503049347E+02 -0.79315390250E+01  0.34061251927E+02  0.41586841958E+02  0.00000000000E+00 0. -1.
</event>
<event>
 7    1  0.2964554E-015  0.9000767E+02  0.7816164E-02  0.1186339E+00
        -11   -1    0    0    0    0  0.00000000000E+00  0.00000000000E+00  0.45593999997E+02  0.45594000000E+02  0.51100000000E-03 0. -1.
         11   -1    0    0    0    0 -0.00000000000E+00 -0.00000000000E+00 -0.45593999997E+02  0.45594000000E+02  0.51100000000E-03 0.  1.
    9900012    2    1    2    0    0 -0.67084122435E+00 -0.30530174718E+00  0.92191675328E+00  0.90007674788E+02  0.89999935296E+02 0.  0.
        -12    1    1    2    0    0  0.67084122435E+00  0.30530174718E+00 -0.92191675328E+00  0.11803252116E+01  0.00000000000E+00 0.  1.
         11    1    3    3    0    0 -0.24304319088E+02  0.37906668785E+01  0.35144931236E+02  0.42897963513E+02  0.51100000000E-03 0. -1.
        -11    1    3    3    0    0  0.31778466048E+00  0.66712890634E+01 -0.76299008829E+01  0.10140141646E+02  0.51100000000E-03 0.  1.
        -12    1    3    3    0    0  0.23315693203E+02 -0.10767257689E+02 -0.26593113599E+02  0.36969569630E+02  0.00000000000E+00 0.  1.
</event>
<event>
 7    1  0.2593256E-015  0.9000774E+02  0.7816164E-02  0.1186339E+00
        -11   -1    0    0    0    0  0.00000000000E+00  0.00000000000E+00  0.45593999997E+02  0.45594000000E+02  0.51100000000E-03 0.  1.
         11   -1    0    0    0    0 -0.00000000000E+00 -0.00000000000E+00 -0.45593999997E+02  0.45594000000E+02  0.51100000000E-03 0. -1.
    9900012    2    1    2    0    0  0.18878739200E+00  0.10666885697E+01 -0.46855490067E+00  0.90007742029E+02  0.90000003423E+02 0.  0.
        -12    1    1    2    0    0 -0.18878739200E+00 -0.10666885697E+01  0.46855490067E+00  0.11802579714E+01  0.00000000000E+00 0.  1.
         11    1    3    3    0    0 -0.11085565766E+01  0.74823246653E+01  0.61023348797E+00  0.75885746521E+01  0.51100000000E-03 0. -1.
        -11    1    3    3    0    0 -0.21192877849E+02 -0.54585588519E+01  0.34180874196E+02  0.40586526056E+02  0.51100000000E-03 0.  1.
         12    1    3    3    0    0  0.22490221818E+02 -0.95707724368E+00 -0.35259662584E+02  0.41832641320E+02  0.00000000000E+00 0. -1.
</event>
<event>
 7    1  0.2593256E-015  0.9000776E+02  0.7816164E-02  0.1186339E+00
        -11   -1    0    0    0    0  0.00000000000E+00  0.00000000000E+00  0.45593999997E+02  0.45594000000E+02  0.51100000000E-03 0. -1.
         11   -1    0    0    0    0 -0.00000000000E+00 -0.00000000000E+00 -0.45593999997E+02  0.45594000000E+02  0.51100000000E-03 0.  1.
    9900012    2    1    2    0    0  0.64723775528E-01 -0.11124516573E+01  0.38887863181E+00  0.90007760852E+02  0.90000022495E+02 0.  0.
        -12    1    1    2    0    0 -0.64723775528E-01  0.11124516573E+01 -0.38887863181E+00  0.11802391484E+01  0.00000000000E+00 0.  1.
         11    1    3    3    0    0 -0.46396417246E+01 -0.20132843605E+01  0.71694707485E+01  0.87738760148E+01  0.51100000000E-03 0. -1.
        -11    1    3    3    0    0  0.18931530271E+02  0.29225683616E+01  0.33431862403E+02  0.38530944294E+02  0.51100000000E-03 0.  1.
         12    1    3    3    0    0 -0.14227164771E+02 -0.20217356585E+01 -0.40212454519E+02  0.42702940542E+02  0.00000000000E+00 0. -1.
</event>
<event>
 7    1  0.2593256E-015  0.9000769E+02  0.7816164E-02  0.1186339E+00
        -11   -1    0    0    0    0  0.00000000000E+00  0.00000000000E+00  0.45593999997E+02  0.45594000000E+02  0.51100000000E-03 0. -1.
         11   -1    0    0    0    0 -0.00000000000E+00 -0.00000000000E+00 -0.45593999997E+02  0.45594000000E+02  0.51100000000E-03 0.  1.
    9900012    2    1    2    0    0  0.74864239804E+00  0.76372810203E+00  0.49939668743E+00  0.90007685167E+02  0.89999945811E+02 0.  0.
        -12    1    1    2    0    0 -0.74864239804E+00 -0.76372810203E+00 -0.49939668743E+00  0.11803148332E+01  0.00000000000E+00 0.  1.
         11    1    3    3    0    0  0.33758240818E+02 -0.11969984284E+02 -0.97288960534E+01  0.37115371015E+02  0.51100000000E-03 0. -1.
        -11    1    3    3    0    0  0.21999964972E+01 -0.98036433729E+01  0.11498193834E+01  0.10113035788E+02  0.51100000000E-03 0.  1.
        -12    1    3    3    0    0 -0.35209594917E+02  0.22537355759E+02  0.90784733574E+01  0.42779278364E+02  0.00000000000E+00 0.  1.
</event>
<event>
 7    1  0.2593256E-015  0.9000772E+02  0.7816164E-02  0.1186339E+00
        -11   -1    0    0    0    0  0.00000000000E+00  0.00000000000E+00  0.45593999997E+02  0.45594000000E+02  0.51100000000E-03 0. -1.
         11   -1    0    0    0    0 -0.00000000000E+00 -0.00000000000E+00 -0.45593999997E+02  0.45594000000E+02  0.51100000000E-03 0.  1.
    9900012    2    1    2    0    0 -0.75210984016E+00  0.64896137475E+00 -0.63737627096E+00  0.90007716734E+02  0.89999977795E+02 0.  0.
        -12    1    1    2    0    0  0.75210984016E+00 -0.64896137475E+00  0.63737627096E+00  0.11802832662E+01  0.00000000000E+00 0.  1.
         11    1    3    3    0    0 -0.18869605959E+02 -0.14184825986E+02  0.31847126108E+02  0.39642284985E+02  0.51100000000E-03 0. -1.
        -11    1    3    3    0    0 -0.67212579790E+01  0.71532197744E+01 -0.15186292434E+01  0.99322755198E+01  0.51100000000E-03 0.  1.
        -12    1    3    3    0    0  0.24838754097E+02  0.76805675859E+01 -0.30965873136E+02  0.40433156229E+02  0.00000000000E+00 0.  1.
</event>
<event>
 7    1  0.2593256E-015  0.9000780E+02  0.7816164E-02  0.1186339E+00
        -11   -1    0    0    0    0  0.00000000000E+00  0.00000000000E+00  0.45593999997E+02  0.45594000000E+02  0.51100000000E-03 0. -1.
         11   -1    0    0    0    0 -0.00000000000E+00 -0.00000000000E+00 -0.45593999997E+02  0.45594000000E+02  0.51100000000E-03 0.  1.
    9900012    2    1    2    0    0 -0.59433645995E+00  0.98833969794E+00 -0.25063897963E+00  0.90007800405E+02  0.90000062570E+02 0.  0.
        -12    1    1    2    0    0  0.59433645995E+00 -0.98833969794E+00  0.25063897963E+00  0.11801995951E+01  0.00000000000E+00 0.  1.
         11    1    3    3    0    0  0.31109643257E+02  0.50575919351E+01 -0.20821910547E+02  0.37774873909E+02  0.51100000000E-03 0. -1.
        -11    1    3    3    0    0 -0.34906197477E+01  0.70533433494E+01 -0.75272434490E+01  0.10890063031E+02  0.51100000000E-03 0.  1.
        -12    1    3    3    0    0 -0.28213359969E+02 -0.11122595587E+02  0.28098515016E+02  0.41342863465E+02  0.00000000000E+00 0.  1.
</event>
<event>
 7    1  0.2593256E-015  0.9000779E+02  0.7816164E-02  0.1186339E+00
        -11   -1    0    0    0    0  0.00000000000E+00  0.00000000000E+00  0.45593999997E+02  0.45594000000E+02  0.51100000000E-03 0.  1.
         11   -1    0    0    0    0 -0.00000000000E+00 -0.00000000000E+00 -0.45593999997E+02  0.45594000000E+02  0.51100000000E-03 0. -1.
    9900012    2    1    2    0    0  0.84184506957E+00 -0.42385655789E+00 -0.71031361132E+00  0.90007786914E+02  0.90000048901E+02 0.  0.
        -12    1    1    2    0    0 -0.84184506957E+00  0.42385655789E+00  0.71031361132E+00  0.11802130864E+01  0.00000000000E+00 0.  1.
         11    1    3    3    0    0  0.25974028044E+02 -0.19991982088E+02 -0.18025034399E+02  0.37406300886E+02  0.51100000000E-03 0. -1.
        -11    1    3    3    0    0  0.10087207310E+02  0.69854927117E+01  0.43952409058E+01  0.13033303596E+02  0.51100000000E-03 0.  1.
        -12    1    3    3    0    0 -0.35219390284E+02  0.12582632818E+02  0.12919479882E+02  0.39568182432E+02  0.00000000000E+00 0.  1.
</event>
<event>
 7    1  0.2593256E-015  0.9000761E+02  0.7816164E-02  0.1186339E+00
        -11   -1    0    0    0    0  0.00000000000E+00  0.00000000000E+00  0.45593999997E+02  0.45594000000E+02  0.51100000000E-03 0.  1.
         11   -1    0    0    0    0 -0.00000000000E+00 -0.00000000000E+00 -0.45593999997E+02  0.45594000000E+02  0.51100000000E-03 0. -1.
    9900012    2    1    2    0    0  0.54107020443E+00 -0.10116396453E+01 -0.27775918115E+00  0.90007609429E+02  0.89999869073E+02 0.  0.
        -12    1    1    2    0    0 -0.54107020443E+00  0.10116396453E+01  0.27775918115E+00  0.11803905713E+01  0.00000000000E+00 0.  1.
         11    1    3    3    0    0  0.57562864788E+01 -0.37979001274E+02 -0.34758327890E+01  0.38569687394E+02  0.51100000000E-03 0. -1.
        -11    1    3    3    0    0 -0.14075078045E+01 -0.58962540543E+01  0.57160969278E+01  0.83319058109E+01  0.51100000000E-03 0.  1.
        -12    1    3    3    0    0 -0.38077084699E+01  0.42863615683E+02 -0.25180233200E+01  0.43106016224E+02  0.00000000000E+00 0.  1.
</event>
<event>
 7    1  0.2593256E-015  0.9000774E+02  0.7816164E-02  0.1186339E+00
        -11   -1    0    0    0    0  0.00000000000E+00  0.00000000000E+00  0.45593999997E+02  0.45594000000E+02  0.51100000000E-03 0.  1.
         11   -1    0    0    0    0 -0.00000000000E+00 -0.00000000000E+00 -0.45593999997E+02  0.45594000000E+02  0.51100000000E-03 0. -1.
    9900012    2    1    2    0    0 -0.88504220386E+00  0.37694393272E+00 -0.68382795212E+00  0.90007742783E+02  0.90000004187E+02 0.  0.
        -12    1    1    2    0    0  0.88504220386E+00 -0.37694393272E+00  0.68382795212E+00  0.11802572174E+01  0.00000000000E+00 0.  1.
         11    1    3    3    0    0 -0.22990571189E+02 -0.22090456476E+01 -0.20802494019E+02  0.31083597024E+02  0.51100000000E-03 0. -1.
        -11    1    3    3    0    0 -0.51290937196E+01  0.23777270914E+01 -0.14099260331E+02  0.15190468414E+02  0.51100000000E-03 0.  1.
        -12    1    3    3    0    0  0.27234622705E+02  0.20826248891E+00  0.34217926397E+02  0.43733677345E+02  0.00000000000E+00 0.  1.
</event>
<event>
 7    1  0.2593256E-015  0.9000761E+02  0.7816164E-02  0.1186339E+00
        -11   -1    0    0    0    0  0.00000000000E+00  0.00000000000E+00  0.45593999997E+02  0.45594000000E+02  0.51100000000E-03 0.  1.
         11   -1    0    0    0    0 -0.00000000000E+00 -0.00000000000E+00 -0.45593999997E+02  0.45594000000E+02  0.51100000000E-03 0. -1.
    9900012    2    1    2    0    0  0.26385673547E+00 -0.47888120171E-01 -0.11495250337E+01  0.90007609619E+02  0.89999869266E+02 0.  0.
        -12    1    1    2    0    0 -0.26385673547E+00  0.47888120171E-01  0.11495250337E+01  0.11803903812E+01  0.00000000000E+00 0.  1.
         11    1    3    3    0    0 -0.12022615611E+02 -0.33848855760E+02  0.11436802411E+02  0.37697331099E+02  0.51100000000E-03 0. -1.
        -11    1    3    3    0    0  0.40077529170E+01  0.26005110711E+01  0.11224156390E+02  0.12198624029E+02  0.51100000000E-03 0.  1.
        -12    1    3    3    0    0  0.82787194291E+01  0.31200456568E+02 -0.23810483835E+02  0.40111654490E+02  0.00000000000E+00 0.  1.
</event>
<event>
 7    1  0.2593256E-015  0.9000764E+02  0.7816164E-02  0.1186339E+00
        -11   -1    0    0    0    0  0.00000000000E+00  0.00000000000E+00  0.45593999997E+02  0.45594000000E+02  0.51100000000E-03 0. -1.
         11   -1    0    0    0    0 -0.00000000000E+00 -0.00000000000E+00 -0.45593999997E+02  0.45594000000E+02  0.51100000000E-03 0.  1.
    9900012    2    1    2    0    0  0.68244729425E+00  0.95776123347E+00 -0.10104721192E+00  0.90007639280E+02  0.89999899319E+02 0.  0.
        -12    1    1    2    0    0 -0.68244729425E+00 -0.95776123347E+00  0.10104721192E+00  0.11803607198E+01  0.00000000000E+00 0.  1.
         11    1    3    3    0    0  0.15581065103E+02  0.31663203532E+02  0.15313411048E+02  0.38468540470E+02  0.51100000000E-03 0. -1.
        -11    1    3    3    0    0  0.31108043440E+00  0.18448589657E+01  0.82879860467E+01  0.84965280327E+01  0.51100000000E-03 0.  1.
        -12    1    3    3    0    0 -0.15209698243E+02 -0.32550301265E+02 -0.23702444306E+02  0.43042570778E+02  0.00000000000E+00 0.  1.
</event>
<event>
 7    1  0.2593256E-015  0.9000766E+02  0.7816164E-02  0.1186339E+00
        -11   -1    0    0    0    0  0.00000000000E+00  0.00000000000E+00  0.45593999997E+02  0.45594000000E+02  0.51100000000E-03 0. -1.
         11   -1    0    0    0    0 -0.00000000000E+00 -0.00000000000E+00 -0.45593999997E+02  0.45594000000E+02  0.51100000000E-03 0.  1.
    9900012    2    1    2    0    0  0.28772075613E+00 -0.10599244543E+01 -0.43240671075E+00  0.90007661639E+02  0.89999921973E+02 0.  0.
        -12    1    1    2    0    0 -0.28772075613E+00  0.10599244543E+01  0.43240671075E+00  0.11803383608E+01  0.00000000000E+00 0.  1.
         11    1    3    3    0    0 -0.29046556784E+02 -0.24221293074E+02 -0.79373147781E+01  0.38644203515E+02  0.51100000000E-03 0. -1.
        -11    1    3    3    0    0  0.13671354092E+01  0.27040884328E+01 -0.11465977643E+02  0.11859586715E+02  0.51100000000E-03 0.  1.
        -12    1    3    3    0    0  0.27967142131E+02  0.20457280186E+02  0.18970885711E+02  0.39503871409E+02  0.00000000000E+00 0.  1.
</event>
<event>
 7    1  0.2593256E-015  0.9000778E+02  0.7816164E-02  0.1186339E+00
        -11   -1    0    0    0    0  0.00000000000E+00  0.00000000000E+00  0.45593999997E+02  0.45594000000E+02  0.51100000000E-03 0. -1.
         11   -1    0    0    0    0 -0.00000000000E+00 -0.00000000000E+00 -0.45593999997E+02  0.45594000000E+02  0.51100000000E-03 0.  1.
    9900012    2    1    2    0    0  0.13595153088E+00 -0.44344470922E+00  0.10852633601E+01  0.90007778584E+02  0.90000040462E+02 0.  0.
        -12    1    1    2    0    0 -0.13595153088E+00  0.44344470922E+00 -0.10852633601E+01  0.11802214156E+01  0.00000000000E+00 0.  1.
         11    1    3    3    0    0  0.75689937601E+01  0.60623927769E+01  0.45749801404E+00  0.97083251601E+01  0.51100000000E-03 0. -1.
        -11    1    3    3    0    0 -0.15658886516E+02  0.14393298061E+02 -0.33358718790E+02  0.39562253167E+02  0.51100000000E-03 0.  1.
         12    1    3    3    0    0  0.82258442873E+01 -0.20899135548E+02  0.33986484137E+02  0.40737200258E+02  0.00000000000E+00 0. -1.
</event>
<event>
 7    1  0.2593256E-015  0.9000777E+02  0.7816164E-02  0.1186339E+00
        -11   -1    0    0    0    0  0.00000000000E+00  0.00000000000E+00  0.45593999997E+02  0.45594000000E+02  0.51100000000E-03 0.  1.
         11   -1    0    0    0    0 -0.00000000000E+00 -0.00000000000E+00 -0.45593999997E+02  0.45594000000E+02  0.51100000000E-03 0. -1.
    9900012    2    1    2    0    0 -0.84393082829E+00  0.64576557592E+00 -0.51351725469E+00  0.90007774431E+02  0.90000036254E+02 0.  0.
        -12    1    1    2    0    0  0.84393082829E+00 -0.64576557592E+00  0.51351725469E+00  0.11802255686E+01  0.00000000000E+00 0.  1.
         11    1    3    3    0    0 -0.70653375294E+01 -0.37316984460E+00  0.77162407761E+00  0.71171380565E+01  0.51100000000E-03 0. -1.
        -11    1    3    3    0    0 -0.82751334574E+00  0.26216782871E+02  0.31470009849E+02  0.40967865487E+02  0.51100000000E-03 0.  1.
         12    1    3    3    0    0  0.70489200468E+01 -0.25197847451E+02 -0.32755151181E+02  0.41922770887E+02  0.00000000000E+00 0. -1.
</event>
<event>
 7    1  0.2593256E-015  0.9000772E+02  0.7816164E-02  0.1186339E+00
        -11   -1    0    0    0    0  0.00000000000E+00  0.00000000000E+00  0.45593999997E+02  0.45594000000E+02  0.51100000000E-03 0. -1.
         11   -1    0    0    0    0 -0.00000000000E+00 -0.00000000000E+00 -0.45593999997E+02  0.45594000000E+02  0.51100000000E-03 0.  1.
    9900012    2    1    2    0    0 -0.82294325259E+00 -0.84563242904E-01  0.84183107214E+00  0.90007717791E+02  0.89999978866E+02 0.  0.
        -12    1    1    2    0    0  0.82294325259E+00  0.84563242904E-01 -0.84183107214E+00  0.11802822091E+01  0.00000000000E+00 0.  1.
         11    1    3    3    0    0  0.53968716008E+01  0.63900036839E+01  0.30182496117E+02  0.31319984711E+02  0.51100000000E-03 0. -1.
        -11    1    3    3    0    0 -0.68339587321E+01 -0.19363065327E+02  0.57304704768E+01  0.21318292215E+02  0.51100000000E-03 0.  1.
        -12    1    3    3    0    0  0.61414387873E+00  0.12888498401E+02 -0.35071135522E+02  0.37369440865E+02  0.00000000000E+00 0.  1.
</event>
<event>
 7    1  0.2593256E-015  0.9000770E+02  0.7816164E-02  0.1186339E+00
        -11   -1    0    0    0    0  0.00000000000E+00  0.00000000000E+00  0.45593999997E+02  0.45594000000E+02  0.51100000000E-03 0.  1.
         11   -1    0    0    0    0 -0.00000000000E+00 -0.00000000000E+00 -0.45593999997E+02  0.45594000000E+02  0.51100000000E-03 0. -1.
    9900012    2    1    2    0    0 -0.76882175370E+00  0.17986412725E+00 -0.87731203907E+00  0.90007697324E+02  0.89999958129E+02 0.  0.
        -12    1    1    2    0    0  0.76882175370E+00 -0.17986412725E+00  0.87731203907E+00  0.11803026761E+01  0.00000000000E+00 0.  1.
         11    1    3    3    0    0  0.16525621538E+01  0.88311355426E+01  0.10529107302E+01  0.90459127737E+01  0.51100000000E-03 0. -1.
        -11    1    3    3    0    0  0.28465335756E+02  0.15945891896E+02  0.17424769979E+02  0.36988774205E+02  0.51100000000E-03 0.  1.
         12    1    3    3    0    0 -0.30886719664E+02 -0.24597163312E+02 -0.19354992748E+02  0.43973010346E+02  0.00000000000E+00 0. -1.
</event>
<event>
 7    1  0.2593256E-015  0.9000807E+02  0.7816164E-02  0.1186338E+00
        -11   -1    0    0    0    0  0.00000000000E+00  0.00000000000E+00  0.45593999997E+02  0.45594000000E+02  0.51100000000E-03 0.  1.
         11   -1    0    0    0    0 -0.00000000000E+00 -0.00000000000E+00 -0.45593999997E+02  0.45594000000E+02  0.51100000000E-03 0. -1.
    9900012    2    1    2    0    0 -0.52746529806E+00  0.10962056438E-01 -0.10554130898E+01  0.90008069240E+02  0.90000334954E+02 0.  0.
        -12    1    1    2    0    0  0.52746529806E+00 -0.10962056438E-01  0.10554130898E+01  0.11799307596E+01  0.00000000000E+00 0.  1.
         11    1    3    3    0    0 -0.19956783354E+01 -0.58592385313E+01  0.57720347708E+01  0.84634386535E+01  0.51100000000E-03 0. -1.
        -11    1    3    3    0    0  0.42276756248E+01  0.36833901290E+02  0.18510835720E+02  0.41439842721E+02  0.51100000000E-03 0.  1.
         12    1    3    3    0    0 -0.27594625874E+01 -0.30963700703E+02 -0.25338283580E+02  0.40104787866E+02  0.00000000000E+00 0. -1.
</event>
<event>
 7    1  0.2593256E-015  0.9000791E+02  0.7816164E-02  0.1186339E+00
        -11   -1    0    0    0    0  0.00000000000E+00  0.00000000000E+00  0.45593999997E+02  0.45594000000E+02  0.51100000000E-03 0. -1.
         11   -1    0    0    0    0 -0.00000000000E+00 -0.00000000000E+00 -0.45593999997E+02  0.45594000000E+02  0.51100000000E-03 0.  1.
    9900012    2    1    2    0    0  0.98969965225E+00  0.39639642530E+00  0.50593951562E+00  0.90007910884E+02  0.90000174508E+02 0.  0.
        -12    1    1    2    0    0 -0.98969965225E+00 -0.39639642530E+00 -0.50593951562E+00  0.11800891158E+01  0.00000000000E+00 0.  1.
         11    1    3    3    0    0  0.23262004287E+02 -0.19074355738E+02  0.12327712984E+02  0.32510373698E+02  0.51100000000E-03 0. -1.
        -11    1    3    3    0    0  0.69000725861E+01 -0.34208467946E+01  0.11390525029E+02  0.13749809278E+02  0.51100000000E-03 0.  1.
        -12    1    3    3    0    0 -0.29172377221E+02  0.22891598958E+02 -0.23212298498E+02  0.43747727908E+02  0.00000000000E+00 0.  1.
</event>
<event>
 7    1  0.2593256E-015  0.9000773E+02  0.7816164E-02  0.1186339E+00
        -11   -1    0    0    0    0  0.00000000000E+00  0.00000000000E+00  0.45593999997E+02  0.45594000000E+02  0.51100000000E-03 0. -1.
         11   -1    0    0    0    0 -0.00000000000E+00 -0.00000000000E+00 -0.45593999997E+02  0.45594000000E+02  0.51100000000E-03 0.  1.
    9900012    2    1    2    0    0  0.55097048344E+00 -0.20766246828E+00  0.10229116032E+01  0.90007728708E+02  0.89999989927E+02 0.  0.
        -12    1    1    2    0    0 -0.55097048344E+00  0.20766246828E+00 -0.10229116032E+01  0.11802712918E+01  0.00000000000E+00 0.  1.
         11    1    3    3    0    0 -0.16299101394E+01 -0.87879244569E+01 -0.33153293374E+01  0.95328711415E+01  0.51100000000E-03 0. -1.
        -11    1    3    3    0    0  0.13528157487E+02 -0.22592670261E+02 -0.24910049085E+02  0.36248452935E+02  0.51100000000E-03 0.  1.
         12    1    3    3    0    0 -0.11347276864E+02  0.31172932249E+02  0.29248290025E+02  0.44226404632E+02  0.00000000000E+00 0. -1.
</event>
<event>
 7    1  0.2593256E-015  0.9000770E+02  0.7816164E-02  0.1186339E+00
        -11   -1    0    0    0    0  0.00000000000E+00  0.00000000000E+00  0.45593999997E+02  0.45594000000E+02  0.51100000000E-03 0. -1.
         11   -1    0    0    0    0 -0.00000000000E+00 -0.00000000000E+00 -0.45593999997E+02  0.45594000000E+02  0.51100000000E-03 0.  1.
    9900012    2    1    2    0    0  0.92519331537E-01  0.10124512213E+01  0.59957339477E+00  0.90007701073E+02  0.89999961927E+02 0.  0.
        -12    1    1    2    0    0 -0.92519331537E-01 -0.10124512213E+01 -0.59957339477E+00  0.11802989274E+01  0.00000000000E+00 0.  1.
         11    1    3    3    0    0  0.10908880033E+02  0.46963720058E+01  0.25890767527E+01  0.12155776088E+02  0.51100000000E-03 0. -1.
        -11    1    3    3    0    0  0.10068938875E+02 -0.34525843849E+02 -0.14181619509E+02  0.38659226010E+02  0.51100000000E-03 0.  1.
         12    1    3    3    0    0 -0.20885299577E+02  0.30841923064E+02  0.12192116151E+02  0.39192698975E+02  0.00000000000E+00 0. -1.
</event>
<event>
 7    1  0.2593256E-015  0.9000767E+02  0.7816164E-02  0.1186339E+00
        -11   -1    0    0    0    0  0.00000000000E+00  0.00000000000E+00  0.45593999997E+02  0.45594000000E+02  0.51100000000E-03 0.  1.
         11   -1    0    0    0    0 -0.00000000000E+00 -0.00000000000E+00 -0.45593999997E+02  0.45594000000E+02  0.51100000000E-03 0. -1.
    9900012    2    1    2    0    0  0.28440118052E+00  0.87641228476E+00  0.73770201254E+00  0.90007666664E+02  0.89999927064E+02 0.  0.
        -12    1    1    2    0    0 -0.28440118052E+00 -0.87641228476E+00 -0.73770201254E+00  0.11803333358E+01  0.00000000000E+00 0.  1.
         11    1    3    3    0    0  0.12287922514E+01 -0.88129801216E+01 -0.24395432466E+01  0.92265876972E+01  0.51100000000E-03 0. -1.
        -11    1    3    3    0    0  0.37294485164E+02 -0.64247961214E+01  0.89449836658E+01  0.38886621888E+02  0.51100000000E-03 0.  1.
         12    1    3    3    0    0 -0.38238876235E+02  0.16114188528E+02 -0.57677384067E+01  0.41894457079E+02  0.00000000000E+00 0. -1.
</event>
<event>
 7    1  0.2593256E-015  0.9000791E+02  0.7816164E-02  0.1186339E+00
        -11   -1    0    0    0    0  0.00000000000E+00  0.00000000000E+00  0.45593999997E+02  0.45594000000E+02  0.51100000000E-03 0.  1.
         11   -1    0    0    0    0 -0.00000000000E+00 -0.00000000000E+00 -0.45593999997E+02  0.45594000000E+02  0.51100000000E-03 0. -1.
    9900012    2    1    2    0    0  0.40517430262E+00 -0.95507428771E+00 -0.56239453482E+00  0.90007906477E+02  0.90000170042E+02 0.  0.
        -12    1    1    2    0    0 -0.40517430262E+00  0.95507428771E+00  0.56239453482E+00  0.11800935231E+01  0.00000000000E+00 0.  1.
         11    1    3    3    0    0  0.72126539841E+01  0.80624689936E+01 -0.42236451762E+02  0.43599812402E+02  0.51100000000E-03 0. -1.
        -11    1    3    3    0    0 -0.26069613962E+01  0.49206693945E+01  0.82729870312E+01  0.99725397814E+01  0.51100000000E-03 0.  1.
        -12    1    3    3    0    0 -0.42005182853E+01 -0.13938212676E+02  0.33401070196E+02  0.36435554294E+02  0.00000000000E+00 0.  1.
</event>
<event>
 7    1  0.2593256E-015  0.9000777E+02  0.7816164E-02  0.1186339E+00
        -11   -1    0    0    0    0  0.00000000000E+00  0.00000000000E+00  0.45593999997E+02  0.45594000000E+02  0.51100000000E-03 0.  1.
         11   -1    0    0    0    0 -0.00000000000E+00 -0.00000000000E+00 -0.45593999997E+02  0.45594000000E+02  0.51100000000E-03 0. -1.
    9900012    2    1    2    0    0  0.39765146601E+00 -0.11040290382E+01  0.12624544069E+00  0.90007769210E+02  0.90000030964E+02 0.  0.
        -12    1    1    2    0    0 -0.39765146601E+00  0.11040290382E+01 -0.12624544069E+00  0.11802307897E+01  0.00000000000E+00 0.  1.
         11    1    3    3    0    0 -0.30746480842E+02  0.18146676506E+02 -0.20744723719E+02  0.41291542897E+02  0.51100000000E-03 0. -1.
        -11    1    3    3    0    0  0.80407230739E+01  0.34099857918E-01 -0.46229205771E+01  0.92750086402E+01  0.51100000000E-03 0.  1.
        -12    1    3    3    0    0  0.23103409234E+02 -0.19284805402E+02  0.25493889737E+02  0.39441217673E+02  0.00000000000E+00 0.  1.
</event>
<event>
 7    1  0.2593256E-015  0.9000776E+02  0.7816164E-02  0.1186339E+00
        -11   -1    0    0    0    0  0.00000000000E+00  0.00000000000E+00  0.45593999997E+02  0.45594000000E+02  0.51100000000E-03 0.  1.
         11   -1    0    0    0    0 -0.00000000000E+00 -0.00000000000E+00 -0.45593999997E+02  0.45594000000E+02  0.51100000000E-03 0. -1.
    9900012    2    1    2    0    0 -0.17185666638E-01 -0.97085116356E+00 -0.67091515225E+00  0.90007756605E+02  0.90000018193E+02 0.  0.
        -12    1    1    2    0    0  0.17185666638E-01  0.97085116356E+00  0.67091515225E+00  0.11802433946E+01  0.00000000000E+00 0.  1.
         11    1    3    3    0    0  0.12882887341E+02  0.89728523364E+00 -0.33031833444E+02  0.35466546603E+02  0.51100000000E-03 0. -1.
        -11    1    3    3    0    0  0.70533073415E+01  0.49965111947E+01 -0.61636392160E+01  0.10616247794E+02  0.51100000000E-03 0.  1.
        -12    1    3    3    0    0 -0.19953380349E+02 -0.68646475920E+01  0.38524557507E+02  0.43924962209E+02  0.00000000000E+00 0.  1.
</event>
<event>
 7    1  0.2593256E-015  0.9000756E+02  0.7816164E-02  0.1186339E+00
        -11   -1    0    0    0    0  0.00000000000E+00  0.00000000000E+00  0.45593999997E+02  0.45594000000E+02  0.51100000000E-03 0. -1.
         11   -1    0    0    0    0 -0.00000000000E+00 -0.00000000000E+00 -0.45593999997E+02  0.45594000000E+02  0.51100000000E-03 0.  1.
    9900012    2    1    2    0    0 -0.69984510444E+00 -0.76572977073E+00  0.56329905962E+00  0.90007563181E+02  0.89999822215E+02 0.  0.
        -12    1    1    2    0    0  0.69984510444E+00  0.76572977073E+00 -0.56329905962E+00  0.11804368185E+01  0.00000000000E+00 0.  1.
         11    1    3    3    0    0  0.54204213936E+01 -0.37827303072E+01  0.77204674519E+01  0.10163446000E+02  0.51100000000E-03 0. -1.
        -11    1    3    3    0    0 -0.11720912646E+02  0.39205470389E+02 -0.12614843764E+02  0.42820357134E+02  0.51100000000E-03 0.  1.
         12    1    3    3    0    0  0.56006461476E+01 -0.36188469853E+02  0.54576753713E+01  0.37023760047E+02  0.00000000000E+00 0. -1.
</event>
<event>
 7    1  0.2593256E-015  0.9000774E+02  0.7816164E-02  0.1186339E+00
        -11   -1    0    0    0    0  0.00000000000E+00  0.00000000000E+00  0.45593999997E+02  0.45594000000E+02  0.51100000000E-03 0. -1.
         11   -1    0    0    0    0 -0.00000000000E+00 -0.00000000000E+00 -0.45593999997E+02  0.45594000000E+02  0.51100000000E-03 0.  1.
    9900012    2    1    2    0    0  0.74920258381E+00 -0.89337113230E+00  0.18332154212E+00  0.90007735928E+02  0.89999997242E+02 0.  0.
        -12    1    1    2    0    0 -0.74920258381E+00  0.89337113230E+00 -0.18332154212E+00  0.11802640719E+01  0.00000000000E+00 0.  1.
         11    1    3    3    0    0  0.20882130422E+02 -0.15743507242E+02  0.26278384463E+02  0.37073911063E+02  0.51100000000E-03 0. -1.
        -11    1    3    3    0    0  0.73012298242E+01  0.10215021104E+02  0.27535133147E+01  0.12854433046E+02  0.51100000000E-03 0.  1.
        -12    1    3    3    0    0 -0.27434157662E+02  0.46351150057E+01 -0.28848576236E+02  0.40079391819E+02  0.00000000000E+00 0.  1.
</event>
<event>
 7    1  0.2593256E-015  0.9000766E+02  0.7816164E-02  0.1186339E+00
        -11   -1    0    0    0    0  0.00000000000E+00  0.00000000000E+00  0.45593999997E+02  0.45594000000E+02  0.51100000000E-03 0.  1.
         11   -1    0    0    0    0 -0.00000000000E+00 -0.00000000000E+00 -0.45593999997E+02  0.45594000000E+02  0.51100000000E-03 0. -1.
    9900012    2    1    2    0    0  0.41010684038E+00 -0.11067763657E+01 -0.75824986157E-02  0.90007661473E+02  0.89999921804E+02 0.  0.
        -12    1    1    2    0    0 -0.41010684038E+00  0.11067763657E+01  0.75824986157E-02  0.11803385270E+01  0.00000000000E+00 0.  1.
         11    1    3    3    0    0 -0.31227241104E+02  0.16107234661E+02  0.97909137780E+01  0.36475273655E+02  0.51100000000E-03 0. -1.
        -11    1    3    3    0    0  0.57648216115E+01  0.10963817423E+02  0.37622892909E+01  0.12945782390E+02  0.51100000000E-03 0.  1.
        -12    1    3    3    0    0  0.25872526332E+02 -0.28177828450E+02 -0.13560785567E+02  0.40586605428E+02  0.00000000000E+00 0.  1.
</event>
<event>
 7    1  0.2593256E-015  0.9000779E+02  0.7816164E-02  0.1186339E+00
        -11   -1    0    0    0    0  0.00000000000E+00  0.00000000000E+00  0.45593999997E+02  0.45594000000E+02  0.51100000000E-03 0.  1.
         11   -1    0    0    0    0 -0.00000000000E+00 -0.00000000000E+00 -0.45593999997E+02  0.45594000000E+02  0.51100000000E-03 0. -1.
    9900012    2    1    2    0    0 -0.12774791878E+00 -0.23319695593E+00 -0.11498623817E+01  0.90007794998E+02  0.90000057092E+02 0.  0.
        -12    1    1    2    0    0  0.12774791878E+00  0.23319695593E+00  0.11498623817E+01  0.11802050024E+01  0.00000000000E+00 0.  1.
         11    1    3    3    0    0 -0.18710401577E+02  0.28561567345E+02 -0.27104586110E+02  0.43594734141E+02  0.51100000000E-03 0. -1.
        -11    1    3    3    0    0  0.84211256143E+01 -0.64444088186E+01 -0.11151138605E+00  0.10604630907E+02  0.51100000000E-03 0.  1.
        -12    1    3    3    0    0  0.10161528044E+02 -0.22350355482E+02  0.26066235115E+02  0.35808429949E+02  0.00000000000E+00 0.  1.
</event>
<event>
 7    1  0.2593256E-015  0.9000783E+02  0.7816164E-02  0.1186339E+00
        -11   -1    0    0    0    0  0.00000000000E+00  0.00000000000E+00  0.45593999997E+02  0.45594000000E+02  0.51100000000E-03 0. -1.
         11   -1    0    0    0    0 -0.00000000000E+00 -0.00000000000E+00 -0.45593999997E+02  0.45594000000E+02  0.51100000000E-03 0.  1.
    9900012    2    1    2    0    0  0.83049579648E-01  0.37697093421E+00  0.11152513767E+01  0.90007834778E+02  0.90000097397E+02 0.  0.
        -12    1    1    2    0    0 -0.83049579648E-01 -0.37697093421E+00 -0.11152513767E+01  0.11801652219E+01  0.00000000000E+00 0.  1.
         11    1    3    3    0    0  0.10573297712E+01  0.82841844218E+01  0.68673027770E+01  0.10812284933E+02  0.51100000000E-03 0. -1.
        -11    1    3    3    0    0 -0.33951172106E+02  0.76760167044E+01  0.14233121463E+02  0.37605652058E+02  0.51100000000E-03 0.  1.
         12    1    3    3    0    0  0.32976891915E+02 -0.15583230192E+02 -0.19985172863E+02  0.41589897787E+02  0.00000000000E+00 0. -1.
</event>
<event>
 7    1  0.2593256E-015  0.9000773E+02  0.7816164E-02  0.1186339E+00
        -11   -1    0    0    0    0  0.00000000000E+00  0.00000000000E+00  0.45593999997E+02  0.45594000000E+02  0.51100000000E-03 0.  1.
         11   -1    0    0    0    0 -0.00000000000E+00 -0.00000000000E+00 -0.45593999997E+02  0.45594000000E+02  0.51100000000E-03 0. -1.
    9900012    2    1    2    0    0  0.76422111767E-02  0.11103847424E+01  0.40002534746E+00  0.90007731828E+02  0.89999993088E+02 0.  0.
        -12    1    1    2    0    0 -0.76422111767E-02 -0.11103847424E+01 -0.40002534746E+00  0.11802681722E+01  0.00000000000E+00 0.  1.
         11    1    3    3    0    0 -0.86641869326E+01  0.19108247630E+01 -0.42341081638E+01  0.98309235925E+01  0.51100000000E-03 0. -1.
        -11    1    3    3    0    0 -0.16540180950E+02  0.32646031361E+02  0.10028976484E+02  0.37946295196E+02  0.51100000000E-03 0.  1.
         12    1    3    3    0    0  0.25212010094E+02 -0.33446471382E+02 -0.53948429726E+01  0.42230513040E+02  0.00000000000E+00 0. -1.
</event>
<event>
 7    1  0.2593256E-015  0.9000772E+02  0.7816164E-02  0.1186339E+00
        -11   -1    0    0    0    0  0.00000000000E+00  0.00000000000E+00  0.45593999997E+02  0.45594000000E+02  0.51100000000E-03 0. -1.
         11   -1    0    0    0    0 -0.00000000000E+00 -0.00000000000E+00 -0.45593999997E+02  0.45594000000E+02  0.51100000000E-03 0.  1.
    9900012    2    1    2    0    0 -0.92433339837E+00 -0.15830416626E+00  0.71666056627E+00  0.90007722572E+02  0.89999983710E+02 0.  0.
        -12    1    1    2    0    0  0.92433339837E+00  0.15830416626E+00 -0.71666056627E+00  0.11802774282E+01  0.00000000000E+00 0.  1.
         11    1    3    3    0    0 -0.41884931377E+00  0.39908821135E+02 -0.99930875547E+00  0.39923527617E+02  0.51100000000E-03 0. -1.
        -11    1    3    3    0    0  0.71809194988E+01 -0.30173339939E+01 -0.78462732240E+01  0.11055944693E+02  0.51100000000E-03 0.  1.
        -12    1    3    3    0    0 -0.76864035834E+01 -0.37049791308E+02  0.95622425458E+01  0.39028250262E+02  0.00000000000E+00 0.  1.
</event>
<event>
 7    1  0.2593256E-015  0.9000779E+02  0.7816164E-02  0.1186339E+00
        -11   -1    0    0    0    0  0.00000000000E+00  0.00000000000E+00  0.45593999997E+02  0.45594000000E+02  0.51100000000E-03 0. -1.
         11   -1    0    0    0    0 -0.00000000000E+00 -0.00000000000E+00 -0.45593999997E+02  0.45594000000E+02  0.51100000000E-03 0.  1.
    9900012    2    1    2    0    0 -0.98365587089E+00  0.30274911999E-01  0.65146079788E+00  0.90007789589E+02  0.90000051612E+02 0.  0.
        -12    1    1    2    0    0  0.98365587089E+00 -0.30274911999E-01 -0.65146079788E+00  0.11802104108E+01  0.00000000000E+00 0.  1.
         11    1    3    3    0    0 -0.77117670390E+01  0.55573880636E+01 -0.26538949225E+00  0.95092767758E+01  0.51100000000E-03 0. -1.
        -11    1    3    3    0    0  0.76909106515E+01 -0.35583393997E+02 -0.22136571894E+02  0.42606992977E+02  0.51100000000E-03 0.  1.
         12    1    3    3    0    0 -0.96279948331E+00  0.30056280846E+02  0.23053422184E+02  0.37891519837E+02  0.00000000000E+00 0. -1.
</event>
<event>
 7    1  0.2593256E-015  0.9000767E+02  0.7816164E-02  0.1186339E+00
        -11   -1    0    0    0    0  0.00000000000E+00  0.00000000000E+00  0.45593999997E+02  0.45594000000E+02  0.51100000000E-03 0. -1.
         11   -1    0    0    0    0 -0.00000000000E+00 -0.00000000000E+00 -0.45593999997E+02  0.45594000000E+02  0.51100000000E-03 0.  1.
    9900012    2    1    2    0    0 -0.28583831620E+00  0.45909265183E+00 -0.10491467924E+01  0.90007670132E+02  0.89999930577E+02 0.  0.
        -12    1    1    2    0    0  0.28583831620E+00 -0.45909265183E+00  0.10491467924E+01  0.11803298683E+01  0.00000000000E+00 0.  1.
         11    1    3    3    0    0 -0.59461284642E+01  0.33470558144E+01 -0.89024113546E+01  0.11216601737E+02  0.51100000000E-03 0. -1.
        -11    1    3    3    0    0  0.40166443664E+01 -0.36211340222E+02 -0.13863503350E+02  0.38981935791E+02  0.51100000000E-03 0.  1.
         12    1    3    3    0    0  0.16436457816E+01  0.33323377059E+02  0.21716767913E+02  0.39809132604E+02  0.00000000000E+00 0. -1.
</event>
<event>
 7    1  0.2593256E-015  0.9000761E+02  0.7816164E-02  0.1186339E+00
        -11   -1    0    0    0    0  0.00000000000E+00  0.00000000000E+00  0.45593999997E+02  0.45594000000E+02  0.51100000000E-03 0. -1.
         11   -1    0    0    0    0 -0.00000000000E+00 -0.00000000000E+00 -0.45593999997E+02  0.45594000000E+02  0.51100000000E-03 0.  1.
    9900012    2    1    2    0    0  0.85270827860E+00 -0.40297871909E+00  0.70979751836E+00  0.90007612024E+02  0.89999871703E+02 0.  0.
        -12    1    1    2    0    0 -0.85270827860E+00  0.40297871909E+00 -0.70979751836E+00  0.11803879758E+01  0.00000000000E+00 0.  1.
         11    1    3    3    0    0  0.96746934902E+01 -0.87775202725E+01  0.10221094988E+01  0.13103025008E+02  0.51100000000E-03 0. -1.
        -11    1    3    3    0    0  0.44215245442E+01 -0.16220763276E+02 -0.31087287042E+02  0.35342360652E+02  0.51100000000E-03 0.  1.
         12    1    3    3    0    0 -0.13243509756E+02  0.24595304830E+02  0.30774975062E+02  0.41562226364E+02  0.00000000000E+00 0. -1.
</event>
<event>
 7    1  0.2593256E-015  0.9000756E+02  0.7816164E-02  0.1186339E+00
        -11   -1    0    0    0    0  0.00000000000E+00  0.00000000000E+00  0.45593999997E+02  0.45594000000E+02  0.51100000000E-03 0.  1.
         11   -1    0    0    0    0 -0.00000000000E+00 -0.00000000000E+00 -0.45593999997E+02  0.45594000000E+02  0.51100000000E-03 0. -1.
    9900012    2    1    2    0    0 -0.58989053198E+00  0.91443889435E+00  0.45745314455E+00  0.90007562492E+02  0.89999821517E+02 0.  0.
        -12    1    1    2    0    0  0.58989053198E+00 -0.91443889435E+00 -0.45745314455E+00  0.11804375082E+01  0.00000000000E+00 0.  1.
         11    1    3    3    0    0  0.56182173355E+00 -0.49027000944E+01 -0.14964490234E+02  0.15757159646E+02  0.51100000000E-03 0. -1.
        -11    1    3    3    0    0 -0.16401527470E+02  0.22402217772E+02  0.34809934160E+02  0.44526407681E+02  0.51100000000E-03 0.  1.
         12    1    3    3    0    0  0.15249815205E+02 -0.16585078783E+02 -0.19387990782E+02  0.29723995165E+02  0.00000000000E+00 0. -1.
</event>
<event>
 7    1  0.2593256E-015  0.9000764E+02  0.7816164E-02  0.1186339E+00
        -11   -1    0    0    0    0  0.00000000000E+00  0.00000000000E+00  0.45593999997E+02  0.45594000000E+02  0.51100000000E-03 0. -1.
         11   -1    0    0    0    0 -0.00000000000E+00 -0.00000000000E+00 -0.45593999997E+02  0.45594000000E+02  0.51100000000E-03 0.  1.
    9900012    2    1    2    0    0  0.11577234107E+00 -0.61766719982E+00  0.99916706713E+00  0.90007639533E+02  0.89999899574E+02 0.  0.
        -12    1    1    2    0    0 -0.11577234107E+00  0.61766719982E+00 -0.99916706713E+00  0.11803604673E+01  0.00000000000E+00 0.  1.
         11    1    3    3    0    0 -0.29570982075E+02 -0.43624492095E+01  0.26227024852E+02  0.39765949967E+02  0.51100000000E-03 0. -1.
        -11    1    3    3    0    0 -0.15780527054E+01 -0.35152475319E+01  0.48909735458E+01  0.62264627228E+01  0.51100000000E-03 0.  1.
        -12    1    3    3    0    0  0.31264807121E+02  0.72600295416E+01 -0.30118831330E+02  0.44015226842E+02  0.00000000000E+00 0.  1.
</event>
<event>
 7    1  0.2593256E-015  0.9000755E+02  0.7816164E-02  0.1186339E+00
        -11   -1    0    0    0    0  0.00000000000E+00  0.00000000000E+00  0.45593999997E+02  0.45594000000E+02  0.51100000000E-03 0.  1.
         11   -1    0    0    0    0 -0.00000000000E+00 -0.00000000000E+00 -0.45593999997E+02  0.45594000000E+02  0.51100000000E-03 0. -1.
    9900012    2    1    2    0    0 -0.10213494406E+01  0.58999693973E+00  0.46967128626E-01  0.90007552212E+02  0.89999811101E+02 0.  0.
        -12    1    1    2    0    0  0.10213494406E+01 -0.58999693973E+00 -0.46967128626E-01  0.11804477879E+01  0.00000000000E+00 0.  1.
         11    1    3    3    0    0 -0.77374729183E+01  0.24950669863E+02  0.24654333663E+02  0.35919919020E+02  0.51100000000E-03 0. -1.
        -11    1    3    3    0    0  0.11325776044E+02  0.34800805389E+01  0.52898257920E+01  0.12975608684E+02  0.51100000000E-03 0.  1.
        -12    1    3    3    0    0 -0.46096525663E+01 -0.27840753462E+02 -0.29897192327E+02  0.41112024508E+02  0.00000000000E+00 0.  1.
</event>
<event>
 7    1  0.2593256E-015  0.9000770E+02  0.7816164E-02  0.1186339E+00
        -11   -1    0    0    0    0  0.00000000000E+00  0.00000000000E+00  0.45593999997E+02  0.45594000000E+02  0.51100000000E-03 0.  1.
         11   -1    0    0    0    0 -0.00000000000E+00 -0.00000000000E+00 -0.45593999997E+02  0.45594000000E+02  0.51100000000E-03 0. -1.
    9900012    2    1    2    0    0 -0.57018257733E+00  0.82989012126E+00 -0.61586823351E+00  0.90007695181E+02  0.89999955957E+02 0.  0.
        -12    1    1    2    0    0  0.57018257733E+00 -0.82989012126E+00  0.61586823351E+00  0.11803048191E+01  0.00000000000E+00 0.  1.
         11    1    3    3    0    0 -0.13461815503E+02 -0.32125836204E+02 -0.16760931327E+02  0.38655124468E+02  0.51100000000E-03 0. -1.
        -11    1    3    3    0    0 -0.22059206739E+01 -0.51279496225E+01  0.77221397156E+01  0.95285568372E+01  0.51100000000E-03 0.  1.
        -12    1    3    3    0    0  0.15097553599E+02  0.38083675948E+02  0.84229233777E+01  0.41824013875E+02  0.00000000000E+00 0.  1.
</event>
<event>
 7    1  0.2593256E-015  0.9000777E+02  0.7816164E-02  0.1186339E+00
        -11   -1    0    0    0    0  0.00000000000E+00  0.00000000000E+00  0.45593999997E+02  0.45594000000E+02  0.51100000000E-03 0.  1.
         11   -1    0    0    0    0 -0.00000000000E+00 -0.00000000000E+00 -0.45593999997E+02  0.45594000000E+02  0.51100000000E-03 0. -1.
    9900012    2    1    2    0    0  0.61926924480E-01 -0.37258195167E+00 -0.11181636267E+01  0.90007770297E+02  0.90000032065E+02 0.  0.
        -12    1    1    2    0    0 -0.61926924480E-01  0.37258195167E+00  0.11181636267E+01  0.11802297025E+01  0.00000000000E+00 0.  1.
         11    1    3    3    0    0 -0.37759752942E+01 -0.71922274185E+01  0.13386878411E+02  0.15658692107E+02  0.51100000000E-03 0. -1.
        -11    1    3    3    0    0  0.81376497601E+01  0.19489906202E+02  0.24948780688E+02  0.32688215697E+02  0.51100000000E-03 0.  1.
         12    1    3    3    0    0 -0.42997475414E+01 -0.12670260735E+02 -0.39453822726E+02  0.41660862493E+02  0.00000000000E+00 0. -1.
</event>
<event>
 7    1  0.3694335E-015  0.9000764E+02  0.7816164E-02  0.1186339E+00
        -11   -1    0    0    0    0  0.00000000000E+00  0.00000000000E+00  0.45593999997E+02  0.45594000000E+02  0.51100000000E-03 0. -1.
         11   -1    0    0    0    0 -0.00000000000E+00 -0.00000000000E+00 -0.45593999997E+02  0.45594000000E+02  0.51100000000E-03 0.  1.
    9900012    2    1    2    0    0 -0.23842394460E+00 -0.11343578193E+01  0.22279251266E+00  0.90007639825E+02  0.89999899870E+02 0.  0.
        -12    1    1    2    0    0  0.23842394460E+00  0.11343578193E+01 -0.22279251266E+00  0.11803601752E+01  0.00000000000E+00 0.  1.
         11    1    3    3    0    0  0.22794963188E+02 -0.13736702451E+02  0.27665829998E+02  0.38388871964E+02  0.51100000000E-03 0. -1.
        -11    1    3    3    0    0 -0.58208710883E+01 -0.14588545458E+01  0.78679525136E+01  0.98952247993E+01  0.51100000000E-03 0.  1.
        -12    1    3    3    0    0 -0.17212516044E+02  0.14061199178E+02 -0.35310989999E+02  0.41723543061E+02  0.00000000000E+00 0.  1.
</event>
<event>
 7    1  0.2593256E-015  0.9000777E+02  0.7816164E-02  0.1186339E+00
        -11   -1    0    0    0    0  0.00000000000E+00  0.00000000000E+00  0.45593999997E+02  0.45594000000E+02  0.51100000000E-03 0.  1.
         11   -1    0    0    0    0 -0.00000000000E+00 -0.00000000000E+00 -0.45593999997E+02  0.45594000000E+02  0.51100000000E-03 0. -1.
    9900012    2    1    2    0    0 -0.50836047318E+00 -0.85989125891E+00 -0.62856885532E+00  0.90007770296E+02  0.90000032064E+02 0.  0.
        -12    1    1    2    0    0  0.50836047318E+00  0.85989125891E+00  0.62856885532E+00  0.11802297038E+01  0.00000000000E+00 0.  1.
         11    1    3    3    0    0  0.10522547983E+02 -0.21253927509E+02 -0.29843895608E+02  0.38119700365E+02  0.51100000000E-03 0. -1.
        -11    1    3    3    0    0  0.18018285655E+01 -0.94099189102E+01  0.26202939537E+01  0.99327287661E+01  0.51100000000E-03 0.  1.
        -12    1    3    3    0    0 -0.12832737022E+02  0.29803955160E+02  0.26595032799E+02  0.41955341165E+02  0.00000000000E+00 0.  1.
</event>
<event>
 7    1  0.2593256E-015  0.9000780E+02  0.7816164E-02  0.1186339E+00
        -11   -1    0    0    0    0  0.00000000000E+00  0.00000000000E+00  0.45593999997E+02  0.45594000000E+02  0.51100000000E-03 0.  1.
         11   -1    0    0    0    0 -0.00000000000E+00 -0.00000000000E+00 -0.45593999997E+02  0.45594000000E+02  0.51100000000E-03 0. -1.
    9900012    2    1    2    0    0 -0.21313207021E+00 -0.37786079551E+00 -0.10975779285E+01  0.90007796048E+02  0.90000058155E+02 0.  0.
        -12    1    1    2    0    0  0.21313207021E+00  0.37786079551E+00  0.10975779285E+01  0.11802039524E+01  0.00000000000E+00 0.  1.
         11    1    3    3    0    0 -0.84056609142E+00  0.84315423488E+01 -0.35861854546E+01  0.92009882138E+01  0.51100000000E-03 0. -1.
        -11    1    3    3    0    0  0.92667209897E+01  0.34367275723E+02  0.78472119867E+01  0.36449423791E+02  0.51100000000E-03 0.  1.
         12    1    3    3    0    0 -0.86392869685E+01 -0.43176678867E+02 -0.53586044606E+01  0.44357384042E+02  0.00000000000E+00 0. -1.
</event>
<event>
 7    1  0.2593256E-015  0.9000769E+02  0.7816164E-02  0.1186339E+00
        -11   -1    0    0    0    0  0.00000000000E+00  0.00000000000E+00  0.45593999997E+02  0.45594000000E+02  0.51100000000E-03 0.  1.
         11   -1    0    0    0    0 -0.00000000000E+00 -0.00000000000E+00 -0.45593999997E+02  0.45594000000E+02  0.51100000000E-03 0. -1.
    9900012    2    1    2    0    0 -0.77044197791E-01  0.88664548528E+00 -0.77528535722E+00  0.90007685038E+02  0.89999945680E+02 0.  0.
        -12    1    1    2    0    0  0.77044197791E-01 -0.88664548528E+00  0.77528535722E+00  0.11803149622E+01  0.00000000000E+00 0.  1.
         11    1    3    3    0    0 -0.45153452639E+01 -0.21911875944E+02 -0.32871940499E+02  0.39762835948E+02  0.51100000000E-03 0. -1.
        -11    1    3    3    0    0  0.10186535736E+02  0.19063786528E+01 -0.12895495727E+01  0.10443310215E+02  0.51100000000E-03 0.  1.
        -12    1    3    3    0    0 -0.57482346702E+01  0.20892142776E+02  0.33386204714E+02  0.39801538875E+02  0.00000000000E+00 0.  1.
</event>
<event>
 7    1  0.2593256E-015  0.9000773E+02  0.7816164E-02  0.1186339E+00
        -11   -1    0    0    0    0  0.00000000000E+00  0.00000000000E+00  0.45593999997E+02  0.45594000000E+02  0.51100000000E-03 0. -1.
         11   -1    0    0    0    0 -0.00000000000E+00 -0.00000000000E+00 -0.45593999997E+02  0.45594000000E+02  0.51100000000E-03 0.  1.
    9900012    2    1    2    0    0  0.62811046293E+00  0.71209309166E+00  0.70102791254E+00  0.90007729074E+02  0.89999990298E+02 0.  0.
        -12    1    1    2    0    0 -0.62811046293E+00 -0.71209309166E+00 -0.70102791254E+00  0.11802709261E+01  0.00000000000E+00 0.  1.
         11    1    3    3    0    0 -0.23172904986E+01  0.26444452563E+02  0.62988624065E+01  0.27282862285E+02  0.51100000000E-03 0. -1.
        -11    1    3    3    0    0 -0.25627236868E+02 -0.44653521150E+01  0.26982949352E+01  0.26152924020E+02  0.51100000000E-03 0.  1.
        -12    1    3    3    0    0  0.28572637829E+02 -0.21267007356E+02 -0.82961294292E+01  0.36571942769E+02  0.00000000000E+00 0.  1.
</event>
<event>
 7    1  0.2593256E-015  0.9000769E+02  0.7816164E-02  0.1186339E+00
        -11   -1    0    0    0    0  0.00000000000E+00  0.00000000000E+00  0.45593999997E+02  0.45594000000E+02  0.51100000000E-03 0.  1.
         11   -1    0    0    0    0 -0.00000000000E+00 -0.00000000000E+00 -0.45593999997E+02  0.45594000000E+02  0.51100000000E-03 0. -1.
    9900012    2    1    2    0    0 -0.11556624241E+00 -0.95376209364E+00  0.68563999736E+00  0.90007695000E+02  0.89999955774E+02 0.  0.
        -12    1    1    2    0    0  0.11556624241E+00  0.95376209364E+00 -0.68563999736E+00  0.11803050003E+01  0.00000000000E+00 0.  1.
         11    1    3    3    0    0 -0.39858154628E+01 -0.34715918076E+01 -0.71205875801E+01  0.88680010334E+01  0.51100000000E-03 0. -1.
        -11    1    3    3    0    0 -0.29976052454E+02 -0.18484205028E+02 -0.11267701668E+02  0.36975541340E+02  0.51100000000E-03 0.  1.
         12    1    3    3    0    0  0.33846301674E+02  0.21002034742E+02  0.19073929246E+02  0.44164152626E+02  0.00000000000E+00 0. -1.
</event>
<event>
 7    1  0.2593256E-015  0.9000774E+02  0.7816164E-02  0.1186339E+00
        -11   -1    0    0    0    0  0.00000000000E+00  0.00000000000E+00  0.45593999997E+02  0.45594000000E+02  0.51100000000E-03 0.  1.
         11   -1    0    0    0    0 -0.00000000000E+00 -0.00000000000E+00 -0.45593999997E+02  0.45594000000E+02  0.51100000000E-03 0. -1.
    9900012    2    1    2    0    0 -0.79196436623E+00 -0.87312086243E+00 -0.58894452645E-01  0.90007738947E+02  0.90000000301E+02 0.  0.
        -12    1    1    2    0    0  0.79196436623E+00  0.87312086243E+00  0.58894452645E-01  0.11802610535E+01  0.00000000000E+00 0.  1.
         11    1    3    3    0    0 -0.34386276277E+02 -0.91833513952E+01  0.54094759470E+01  0.36000171796E+02  0.51100000000E-03 0. -1.
        -11    1    3    3    0    0 -0.33207197404E+01  0.46733122293E+01  0.11779043444E+02  0.13100110362E+02  0.51100000000E-03 0.  1.
        -12    1    3    3    0    0  0.36915031651E+02  0.36369183035E+01 -0.17247413844E+02  0.40907456788E+02  0.00000000000E+00 0.  1.
</event>
<event>
 7    1  0.2593256E-015  0.9000729E+02  0.7816164E-02  0.1186340E+00
        -11   -1    0    0    0    0  0.00000000000E+00  0.00000000000E+00  0.45593999997E+02  0.45594000000E+02  0.51100000000E-03 0.  1.
         11   -1    0    0    0    0 -0.00000000000E+00 -0.00000000000E+00 -0.45593999997E+02  0.45594000000E+02  0.51100000000E-03 0. -1.
    9900012    2    1    2    0    0  0.27606972212E+00 -0.20684934216E+00 -0.11291948424E+01  0.90007287447E+02  0.89999542840E+02 0.  0.
        -12    1    1    2    0    0 -0.27606972212E+00  0.20684934216E+00  0.11291948424E+01  0.11807125535E+01  0.00000000000E+00 0.  1.
         11    1    3    3    0    0  0.31729010914E+01 -0.80006574354E+01  0.38106681980E+01  0.94127048775E+01  0.51100000000E-03 0. -1.
        -11    1    3    3    0    0 -0.58687200628E+01 -0.36000304595E+02 -0.39477999595E+01  0.36688539503E+02  0.51100000000E-03 0.  1.
         12    1    3    3    0    0  0.29718886936E+01  0.43794112688E+02 -0.99206308086E+00  0.43906043066E+02  0.00000000000E+00 0. -1.
</event>
<event>
 7    1  0.2593256E-015  0.9000778E+02  0.7816164E-02  0.1186339E+00
        -11   -1    0    0    0    0  0.00000000000E+00  0.00000000000E+00  0.45593999997E+02  0.45594000000E+02  0.51100000000E-03 0. -1.
         11   -1    0    0    0    0 -0.00000000000E+00 -0.00000000000E+00 -0.45593999997E+02  0.45594000000E+02  0.51100000000E-03 0.  1.
    9900012    2    1    2    0    0  0.28251330985E+00  0.20536881168E+00  0.11273559739E+01  0.90007778999E+02  0.90000040882E+02 0.  0.
        -12    1    1    2    0    0 -0.28251330985E+00 -0.20536881168E+00 -0.11273559739E+01  0.11802210008E+01  0.00000000000E+00 0.  1.
         11    1    3    3    0    0 -0.25003796560E+02 -0.17727003995E+02  0.19949817698E+02  0.36570913846E+02  0.51100000000E-03 0. -1.
        -11    1    3    3    0    0  0.10655122902E+01 -0.11570717972E+02 -0.65617606702E+01  0.13344419590E+02  0.51100000000E-03 0.  1.
        -12    1    3    3    0    0  0.24220797580E+02  0.29503090779E+02 -0.12260701054E+02  0.40092445563E+02  0.00000000000E+00 0.  1.
</event>
<event>
 7    1  0.2593256E-015  0.9000813E+02  0.7816164E-02  0.1186338E+00
        -11   -1    0    0    0    0  0.00000000000E+00  0.00000000000E+00  0.45593999997E+02  0.45594000000E+02  0.51100000000E-03 0. -1.
         11   -1    0    0    0    0 -0.00000000000E+00 -0.00000000000E+00 -0.45593999997E+02  0.45594000000E+02  0.51100000000E-03 0.  1.
    9900012    2    1    2    0    0 -0.14064118590E+00  0.95388273917E-01  0.11675697760E+01  0.90008127953E+02  0.90000394441E+02 0.  0.
        -12    1    1    2    0    0  0.14064118590E+00 -0.95388273917E-01 -0.11675697760E+01  0.11798720472E+01  0.00000000000E+00 0.  1.
         11    1    3    3    0    0  0.90738267219E+01  0.39251113536E+02 -0.11872915792E+02  0.41999409220E+02  0.51100000000E-03 0. -1.
        -11    1    3    3    0    0  0.18889857570E+01 -0.24874371031E+01  0.89489160229E+01  0.94783283747E+01  0.51100000000E-03 0.  1.
        -12    1    3    3    0    0 -0.11103453665E+02 -0.36668288159E+02  0.40915695446E+01  0.38530390358E+02  0.00000000000E+00 0.  1.
</event>
<event>
 7    1  0.2593256E-015  0.9000778E+02  0.7816164E-02  0.1186339E+00
        -11   -1    0    0    0    0  0.00000000000E+00  0.00000000000E+00  0.45593999997E+02  0.45594000000E+02  0.51100000000E-03 0.  1.
         11   -1    0    0    0    0 -0.00000000000E+00 -0.00000000000E+00 -0.45593999997E+02  0.45594000000E+02  0.51100000000E-03 0. -1.
    9900012    2    1    2    0    0 -0.64152364375E+00 -0.85931087794E+00  0.49290074241E+00  0.90007780142E+02  0.90000042040E+02 0.  0.
        -12    1    1    2    0    0  0.64152364375E+00  0.85931087794E+00 -0.49290074241E+00  0.11802198576E+01  0.00000000000E+00 0.  1.
         11    1    3    3    0    0  0.48916018138E+01  0.13372317609E+02 -0.35761656439E+02  0.38492112414E+02  0.51100000000E-03 0. -1.
        -11    1    3    3    0    0  0.48326214195E+01 -0.35591899880E+01 -0.49040552927E+01  0.77506013786E+01  0.51100000000E-03 0.  1.
        -12    1    3    3    0    0 -0.10365746877E+02 -0.10672438499E+02  0.41158612474E+02  0.43765066350E+02  0.00000000000E+00 0.  1.
</event>
<event>
 7    1  0.2593256E-015  0.9000754E+02  0.7816164E-02  0.1186339E+00
        -11   -1    0    0    0    0  0.00000000000E+00  0.00000000000E+00  0.45593999997E+02  0.45594000000E+02  0.51100000000E-03 0.  1.
         11   -1    0    0    0    0 -0.00000000000E+00 -0.00000000000E+00 -0.45593999997E+02  0.45594000000E+02  0.51100000000E-03 0. -1.
    9900012    2    1    2    0    0 -0.34885844156E+00  0.84677585123E+00 -0.74481566801E+00  0.90007541643E+02  0.89999800392E+02 0.  0.
        -12    1    1    2    0    0  0.34885844156E+00 -0.84677585123E+00  0.74481566801E+00  0.11804583575E+01  0.00000000000E+00 0.  1.
         11    1    3    3    0    0 -0.57011051085E+01 -0.10343219654E+00 -0.78929818335E+01  0.97371690014E+01  0.51100000000E-03 0. -1.
        -11    1    3    3    0    0  0.19597852592E+02  0.32124513079E+02  0.21240565223E+02  0.43211361678E+02  0.51100000000E-03 0.  1.
         12    1    3    3    0    0 -0.14245605926E+02 -0.31174305031E+02 -0.14092399058E+02  0.37059010963E+02  0.00000000000E+00 0. -1.
</event>
<event>
 7    1  0.2593256E-015  0.9000773E+02  0.7816164E-02  0.1186339E+00
        -11   -1    0    0    0    0  0.00000000000E+00  0.00000000000E+00  0.45593999997E+02  0.45594000000E+02  0.51100000000E-03 0.  1.
         11   -1    0    0    0    0 -0.00000000000E+00 -0.00000000000E+00 -0.45593999997E+02  0.45594000000E+02  0.51100000000E-03 0. -1.
    9900012    2    1    2    0    0 -0.99145008580E+00  0.10203329283E+00 -0.63217858489E+00  0.90007731459E+02  0.89999992714E+02 0.  0.
        -12    1    1    2    0    0  0.99145008580E+00 -0.10203329283E+00  0.63217858489E+00  0.11802685409E+01  0.00000000000E+00 0.  1.
         11    1    3    3    0    0 -0.53874620647E+00 -0.60697371973E-01  0.83216832887E+01  0.83393251924E+01  0.51100000000E-03 0. -1.
        -11    1    3    3    0    0 -0.26455708268E+02  0.11862707138E+02 -0.33315189422E+02  0.44164806884E+02  0.51100000000E-03 0.  1.
         12    1    3    3    0    0  0.26003004389E+02 -0.11699976474E+02  0.24361327549E+02  0.37503599383E+02  0.00000000000E+00 0. -1.
</event>
<event>
 7    1  0.2593256E-015  0.9000778E+02  0.7816164E-02  0.1186339E+00
        -11   -1    0    0    0    0  0.00000000000E+00  0.00000000000E+00  0.45593999997E+02  0.45594000000E+02  0.51100000000E-03 0. -1.
         11   -1    0    0    0    0 -0.00000000000E+00 -0.00000000000E+00 -0.45593999997E+02  0.45594000000E+02  0.51100000000E-03 0.  1.
    9900012    2    1    2    0    0 -0.40518998255E+00  0.66836030960E+00 -0.88433072250E+00  0.90007777457E+02  0.90000039319E+02 0.  0.
        -12    1    1    2    0    0  0.40518998255E+00 -0.66836030960E+00  0.88433072250E+00  0.11802225435E+01  0.00000000000E+00 0.  1.
         11    1    3    3    0    0  0.24714907506E+01  0.39541819967E+01  0.89121000168E+01  0.10058297508E+02  0.51100000000E-03 0. -1.
        -11    1    3    3    0    0 -0.40172566135E+01  0.37565031171E+02 -0.10007276894E+02  0.39082163562E+02  0.51100000000E-03 0.  1.
         12    1    3    3    0    0  0.11405758803E+01 -0.40850852858E+02  0.21084615442E+00  0.40867316387E+02  0.00000000000E+00 0. -1.
</event>
<event>
 7    1  0.2593256E-015  0.9000783E+02  0.7816164E-02  0.1186339E+00
        -11   -1    0    0    0    0  0.00000000000E+00  0.00000000000E+00  0.45593999997E+02  0.45594000000E+02  0.51100000000E-03 0. -1.
         11   -1    0    0    0    0 -0.00000000000E+00 -0.00000000000E+00 -0.45593999997E+02  0.45594000000E+02  0.51100000000E-03 0.  1.
    9900012    2    1    2    0    0  0.43531695683E+00 -0.98796516846E+00  0.47667089543E+00  0.90007834262E+02  0.90000096874E+02 0.  0.
        -12    1    1    2    0    0 -0.43531695683E+00  0.98796516846E+00 -0.47667089543E+00  0.11801657382E+01  0.00000000000E+00 0.  1.
         11    1    3    3    0    0 -0.35115745313E+02  0.16704444004E+02  0.34104564316E+01  0.39035691767E+02  0.51100000000E-03 0. -1.
        -11    1    3    3    0    0  0.22111337884E+00  0.19708465052E+00  0.94695386285E+01  0.94741699153E+01  0.51100000000E-03 0.  1.
        -12    1    3    3    0    0  0.35329948891E+02 -0.17889493823E+02 -0.12403324165E+02  0.41497972580E+02  0.00000000000E+00 0.  1.
</event>
<event>
 7    1  0.2593256E-015  0.9000788E+02  0.7816164E-02  0.1186339E+00
        -11   -1    0    0    0    0  0.00000000000E+00  0.00000000000E+00  0.45593999997E+02  0.45594000000E+02  0.51100000000E-03 0.  1.
         11   -1    0    0    0    0 -0.00000000000E+00 -0.00000000000E+00 -0.45593999997E+02  0.45594000000E+02  0.51100000000E-03 0. -1.
    9900012    2    1    2    0    0  0.14901478699E+00 -0.71375700231E+00 -0.92792198402E+00  0.90007875569E+02  0.90000138726E+02 0.  0.
        -12    1    1    2    0    0 -0.14901478699E+00  0.71375700231E+00  0.92792198402E+00  0.11801244314E+01  0.00000000000E+00 0.  1.
         11    1    3    3    0    0 -0.20975756029E+02 -0.23385622950E+02 -0.18850877157E+02  0.36636392721E+02  0.51100000000E-03 0. -1.
        -11    1    3    3    0    0  0.26460469223E+01 -0.34279066202E+01 -0.10012702233E+02  0.10909001530E+02  0.51100000000E-03 0.  1.
        -12    1    3    3    0    0  0.18478723894E+02  0.26099772568E+02  0.27935657407E+02  0.42462481317E+02  0.00000000000E+00 0.  1.
</event>
<event>
 7    1  0.2593256E-015  0.9000775E+02  0.7816164E-02  0.1186339E+00
        -11   -1    0    0    0    0  0.00000000000E+00  0.00000000000E+00  0.45593999997E+02  0.45594000000E+02  0.51100000000E-03 0. -1.
         11   -1    0    0    0    0 -0.00000000000E+00 -0.00000000000E+00 -0.45593999997E+02  0.45594000000E+02  0.51100000000E-03 0.  1.
    9900012    2    1    2    0    0  0.11363218902E+01 -0.27404760794E+00  0.16328540433E+00  0.90007749326E+02  0.90000010817E+02 0.  0.
        -12    1    1    2    0    0 -0.11363218902E+01  0.27404760794E+00 -0.16328540433E+00  0.11802506737E+01  0.00000000000E+00 0.  1.
         11    1    3    3    0    0 -0.84616801127E+01  0.34899108428E+02  0.84323951421E+01  0.36887031427E+02  0.51100000000E-03 0. -1.
        -11    1    3    3    0    0  0.70253170377E+01  0.24942783303E+01  0.89298561507E+01  0.11632662421E+02  0.51100000000E-03 0.  1.
        -12    1    3    3    0    0  0.25726849653E+01 -0.37667434367E+02 -0.17198965888E+02  0.41488055478E+02  0.00000000000E+00 0.  1.
</event>
<event>
 7    1  0.2593256E-015  0.9000776E+02  0.7816164E-02  0.1186339E+00
        -11   -1    0    0    0    0  0.00000000000E+00  0.00000000000E+00  0.45593999997E+02  0.45594000000E+02  0.51100000000E-03 0.  1.
         11   -1    0    0    0    0 -0.00000000000E+00 -0.00000000000E+00 -0.45593999997E+02  0.45594000000E+02  0.51100000000E-03 0. -1.
    9900012    2    1    2    0    0  0.96585240038E+00 -0.64173146966E+00  0.21970296948E+00  0.90007762933E+02  0.90000024604E+02 0.  0.
        -12    1    1    2    0    0 -0.96585240038E+00  0.64173146966E+00 -0.21970296948E+00  0.11802370665E+01  0.00000000000E+00 0.  1.
         11    1    3    3    0    0  0.51297364550E+01  0.71656389813E+01  0.90799371883E+00  0.88591777814E+01  0.51100000000E-03 0. -1.
        -11    1    3    3    0    0  0.71840731534E+00  0.22948176882E+02  0.29765861366E+02  0.37591773494E+02  0.51100000000E-03 0.  1.
         12    1    3    3    0    0 -0.48822913699E+01 -0.30755547333E+02 -0.30454152115E+02  0.43556811658E+02  0.00000000000E+00 0. -1.
</event>
<event>
 7    1  0.2593256E-015  0.9000817E+02  0.7816164E-02  0.1186338E+00
        -11   -1    0    0    0    0  0.00000000000E+00  0.00000000000E+00  0.45593999997E+02  0.45594000000E+02  0.51100000000E-03 0. -1.
         11   -1    0    0    0    0 -0.00000000000E+00 -0.00000000000E+00 -0.45593999997E+02  0.45594000000E+02  0.51100000000E-03 0.  1.
    9900012    2    1    2    0    0  0.41380520080E+00 -0.61652058848E+00  0.91687742173E+00  0.90008170950E+02  0.90000438006E+02 0.  0.
        -12    1    1    2    0    0 -0.41380520080E+00  0.61652058848E+00 -0.91687742173E+00  0.11798290498E+01  0.00000000000E+00 0.  1.
         11    1    3    3    0    0  0.36987098231E+02 -0.79641594693E+00  0.38792385553E+01  0.37198497362E+02  0.51100000000E-03 0. -1.
        -11    1    3    3    0    0  0.53026003929E+01  0.84383079314E+01 -0.16893540264E+01  0.10108240646E+02  0.51100000000E-03 0.  1.
        -12    1    3    3    0    0 -0.41875893423E+02 -0.82584125730E+01 -0.12730071072E+01  0.42701432942E+02  0.00000000000E+00 0.  1.
</event>
<event>
 7    1  0.2593256E-015  0.9000771E+02  0.7816164E-02  0.1186339E+00
        -11   -1    0    0    0    0  0.00000000000E+00  0.00000000000E+00  0.45593999997E+02  0.45594000000E+02  0.51100000000E-03 0.  1.
         11   -1    0    0    0    0 -0.00000000000E+00 -0.00000000000E+00 -0.45593999997E+02  0.45594000000E+02  0.51100000000E-03 0. -1.
    9900012    2    1    2    0    0 -0.85641972918E+00  0.48507907398E+00 -0.65140551621E+00  0.90007709524E+02  0.89999970490E+02 0.  0.
        -12    1    1    2    0    0  0.85641972918E+00 -0.48507907398E+00  0.65140551621E+00  0.11802904757E+01  0.00000000000E+00 0.  1.
         11    1    3    3    0    0 -0.17962340795E+01  0.26486328161E+00 -0.50123829590E+01  0.53310967554E+01  0.51100000000E-03 0. -1.
        -11    1    3    3    0    0 -0.34755009163E+02  0.69489257487E+01 -0.20231865887E+02  0.40810864099E+02  0.51100000000E-03 0.  1.
         12    1    3    3    0    0  0.35694823513E+02 -0.67287099564E+01  0.24592843329E+02  0.43865748670E+02  0.00000000000E+00 0. -1.
</event>
<event>
 7    1  0.2593256E-015  0.9000771E+02  0.7816164E-02  0.1186339E+00
        -11   -1    0    0    0    0  0.00000000000E+00  0.00000000000E+00  0.45593999997E+02  0.45594000000E+02  0.51100000000E-03 0. -1.
         11   -1    0    0    0    0 -0.00000000000E+00 -0.00000000000E+00 -0.45593999997E+02  0.45594000000E+02  0.51100000000E-03 0.  1.
    9900012    2    1    2    0    0 -0.28147684710E+00  0.11048676188E+01 -0.30514394904E+00  0.90007714229E+02  0.89999975257E+02 0.  0.
        -12    1    1    2    0    0  0.28147684710E+00 -0.11048676188E+01  0.30514394904E+00  0.11802857706E+01  0.00000000000E+00 0.  1.
         11    1    3    3    0    0  0.15785958344E+01 -0.49024180600E+01 -0.11168296863E+02  0.12298639060E+02  0.51100000000E-03 0. -1.
        -11    1    3    3    0    0 -0.28652962836E+02  0.60800810355E+01 -0.21027570489E+02  0.36057154431E+02  0.51100000000E-03 0.  1.
         12    1    3    3    0    0  0.26792890155E+02 -0.72795356655E-01  0.31890723404E+02  0.41651920739E+02  0.00000000000E+00 0. -1.
</event>
<event>
 7    1  0.2593256E-015  0.9000790E+02  0.7816164E-02  0.1186339E+00
        -11   -1    0    0    0    0  0.00000000000E+00  0.00000000000E+00  0.45593999997E+02  0.45594000000E+02  0.51100000000E-03 0.  1.
         11   -1    0    0    0    0 -0.00000000000E+00 -0.00000000000E+00 -0.45593999997E+02  0.45594000000E+02  0.51100000000E-03 0. -1.
    9900012    2    1    2    0    0 -0.68263610137E-01 -0.11725666398E+01 -0.11428571811E+00  0.90007900991E+02  0.90000164484E+02 0.  0.
        -12    1    1    2    0    0  0.68263610137E-01  0.11725666398E+01  0.11428571811E+00  0.11800990088E+01  0.00000000000E+00 0.  1.
         11    1    3    3    0    0 -0.94765852521E+01 -0.41929601360E+01 -0.46224863356E+01  0.11346980344E+02  0.51100000000E-03 0. -1.
        -11    1    3    3    0    0 -0.30739073173E+02  0.13299050153E+02  0.13742343517E+02  0.36202311530E+02  0.51100000000E-03 0.  1.
         12    1    3    3    0    0  0.40147394815E+02 -0.10278656656E+02 -0.92341428997E+01  0.42458609117E+02  0.00000000000E+00 0. -1.
</event>
<event>
 7    1  0.2593256E-015  0.9000770E+02  0.7816164E-02  0.1186339E+00
        -11   -1    0    0    0    0  0.00000000000E+00  0.00000000000E+00  0.45593999997E+02  0.45594000000E+02  0.51100000000E-03 0. -1.
         11   -1    0    0    0    0 -0.00000000000E+00 -0.00000000000E+00 -0.45593999997E+02  0.45594000000E+02  0.51100000000E-03 0.  1.
    9900012    2    1    2    0    0 -0.45366758214E+00  0.53116588363E+00 -0.95139843895E+00  0.90007698996E+02  0.89999959822E+02 0.  0.
        -12    1    1    2    0    0  0.45366758214E+00 -0.53116588363E+00  0.95139843895E+00  0.11803010043E+01  0.00000000000E+00 0.  1.
         11    1    3    3    0    0 -0.86953804656E+01 -0.12545378541E+01 -0.47206026833E+01  0.99733443049E+01  0.51100000000E-03 0. -1.
        -11    1    3    3    0    0 -0.13393144644E+02  0.28317714995E+02 -0.21057569145E+02  0.37745072851E+02  0.51100000000E-03 0.  1.
         12    1    3    3    0    0  0.21634857528E+02 -0.26532011257E+02  0.24826773389E+02  0.42289281840E+02  0.00000000000E+00 0. -1.
</event>
<event>
 7    1  0.2593256E-015  0.9000771E+02  0.7816164E-02  0.1186339E+00
        -11   -1    0    0    0    0  0.00000000000E+00  0.00000000000E+00  0.45593999997E+02  0.45594000000E+02  0.51100000000E-03 0.  1.
         11   -1    0    0    0    0 -0.00000000000E+00 -0.00000000000E+00 -0.45593999997E+02  0.45594000000E+02  0.51100000000E-03 0. -1.
    9900012    2    1    2    0    0  0.11068886502E+01  0.22080920561E+00 -0.34512955714E+00  0.90007714611E+02  0.89999975643E+02 0.  0.
        -12    1    1    2    0    0 -0.11068886502E+01 -0.22080920561E+00  0.34512955714E+00  0.11802853894E+01  0.00000000000E+00 0.  1.
         11    1    3    3    0    0 -0.64159257570E+01 -0.33730878344E+01  0.50193210266E+01  0.88167686080E+01  0.51100000000E-03 0. -1.
        -11    1    3    3    0    0  0.40426348848E+00  0.20578359266E+02  0.32852956636E+02  0.38767886956E+02  0.51100000000E-03 0.  1.
         12    1    3    3    0    0  0.71185509187E+01 -0.16984462226E+02 -0.38217407219E+02  0.42423059047E+02  0.00000000000E+00 0. -1.
</event>
<event>
 7    1  0.2593256E-015  0.9000777E+02  0.7816164E-02  0.1186339E+00
        -11   -1    0    0    0    0  0.00000000000E+00  0.00000000000E+00  0.45593999997E+02  0.45594000000E+02  0.51100000000E-03 0.  1.
         11   -1    0    0    0    0 -0.00000000000E+00 -0.00000000000E+00 -0.45593999997E+02  0.45594000000E+02  0.51100000000E-03 0. -1.
    9900012    2    1    2    0    0 -0.52476113330E+00  0.95116591786E+00 -0.46136734781E+00  0.90007766684E+02  0.90000028404E+02 0.  0.
        -12    1    1    2    0    0  0.52476113330E+00 -0.95116591786E+00  0.46136734781E+00  0.11802333159E+01  0.00000000000E+00 0.  1.
         11    1    3    3    0    0  0.28760077689E+02  0.22695574866E+02  0.12779365824E+02  0.38801332171E+02  0.51100000000E-03 0. -1.
        -11    1    3    3    0    0  0.53267679261E+00  0.62589959273E+01  0.32849682507E+01  0.70887087155E+01  0.51100000000E-03 0.  1.
        -12    1    3    3    0    0 -0.29817515615E+02 -0.28003404875E+02 -0.16525701422E+02  0.44117725797E+02  0.00000000000E+00 0.  1.
</event>
<event>
 7    1  0.2593256E-015  0.9000762E+02  0.7816164E-02  0.1186339E+00
        -11   -1    0    0    0    0  0.00000000000E+00  0.00000000000E+00  0.45593999997E+02  0.45594000000E+02  0.51100000000E-03 0. -1.
         11   -1    0    0    0    0 -0.00000000000E+00 -0.00000000000E+00 -0.45593999997E+02  0.45594000000E+02  0.51100000000E-03 0.  1.
    9900012    2    1    2    0    0  0.29757668475E+00  0.53757390338E+00  0.10078468953E+01  0.90007621692E+02  0.89999881499E+02 0.  0.
        -12    1    1    2    0    0 -0.29757668475E+00 -0.53757390338E+00 -0.10078468953E+01  0.11803783077E+01  0.00000000000E+00 0.  1.
         11    1    3    3    0    0  0.35364698579E+02  0.17850730862E+02  0.39294925435E+01  0.39808936306E+02  0.51100000000E-03 0. -1.
        -11    1    3    3    0    0 -0.34399622939E+01 -0.29762144391E+00  0.11115198002E+02  0.11639138542E+02  0.51100000000E-03 0.  1.
        -12    1    3    3    0    0 -0.31627159600E+02 -0.17015535515E+02 -0.14036843650E+02  0.38559546845E+02  0.00000000000E+00 0.  1.
</event>
<event>
 7    1  0.2593256E-015  0.9000778E+02  0.7816164E-02  0.1186339E+00
        -11   -1    0    0    0    0  0.00000000000E+00  0.00000000000E+00  0.45593999997E+02  0.45594000000E+02  0.51100000000E-03 0.  1.
         11   -1    0    0    0    0 -0.00000000000E+00 -0.00000000000E+00 -0.45593999997E+02  0.45594000000E+02  0.51100000000E-03 0. -1.
    9900012    2    1    2    0    0  0.18468531781E+00 -0.94530443831E+00  0.68206245822E+00  0.90007780383E+02  0.90000042284E+02 0.  0.
        -12    1    1    2    0    0 -0.18468531781E+00  0.94530443831E+00 -0.68206245822E+00  0.11802196171E+01  0.00000000000E+00 0.  1.
         11    1    3    3    0    0 -0.20044497910E+02 -0.14022435394E+02 -0.32719917542E+02  0.40853440431E+02  0.51100000000E-03 0. -1.
        -11    1    3    3    0    0 -0.20552954219E+01 -0.62342201495E+01  0.65307316378E+01  0.92596002144E+01  0.51100000000E-03 0.  1.
        -12    1    3    3    0    0  0.22284478650E+02  0.19311351105E+02  0.26871248362E+02  0.39894739738E+02  0.00000000000E+00 0.  1.
</event>
<event>
 7    1  0.2593256E-015  0.9000780E+02  0.7816164E-02  0.1186339E+00
        -11   -1    0    0    0    0  0.00000000000E+00  0.00000000000E+00  0.45593999997E+02  0.45594000000E+02  0.51100000000E-03 0.  1.
         11   -1    0    0    0    0 -0.00000000000E+00 -0.00000000000E+00 -0.45593999997E+02  0.45594000000E+02  0.51100000000E-03 0. -1.
    9900012    2    1    2    0    0  0.10769137731E-01 -0.15159858019E+00 -0.11703763567E+01  0.90007797085E+02  0.90000059207E+02 0.  0.
        -12    1    1    2    0    0 -0.10769137731E-01  0.15159858019E+00  0.11703763567E+01  0.11802029148E+01  0.00000000000E+00 0.  1.
         11    1    3    3    0    0 -0.60384289971E+01  0.10420020295E+02 -0.56709829111E+01  0.13311630071E+02  0.51100000000E-03 0. -1.
        -11    1    3    3    0    0  0.26744526388E+02  0.15459419177E+02  0.23118457611E+02  0.38584017619E+02  0.51100000000E-03 0.  1.
         12    1    3    3    0    0 -0.20695328253E+02 -0.26031038053E+02 -0.18617851056E+02  0.38112149396E+02  0.00000000000E+00 0. -1.
</event>
<event>
 7    1  0.2593256E-015  0.9000783E+02  0.7816164E-02  0.1186339E+00
        -11   -1    0    0    0    0  0.00000000000E+00  0.00000000000E+00  0.45593999997E+02  0.45594000000E+02  0.51100000000E-03 0. -1.
         11   -1    0    0    0    0 -0.00000000000E+00 -0.00000000000E+00 -0.45593999997E+02  0.45594000000E+02  0.51100000000E-03 0.  1.
    9900012    2    1    2    0    0 -0.73890430474E+00  0.88593759427E+00  0.24884997377E+00  0.90007834206E+02  0.90000096817E+02 0.  0.
        -12    1    1    2    0    0  0.73890430474E+00 -0.88593759427E+00 -0.24884997377E+00  0.11801657943E+01  0.00000000000E+00 0.  1.
         11    1    3    3    0    0  0.59945259042E+01  0.82810325724E+01  0.28973457957E+00  0.10227110426E+02  0.51100000000E-03 0. -1.
        -11    1    3    3    0    0  0.43978072074E+01  0.32494456229E+02  0.14547517933E+02  0.35872840313E+02  0.51100000000E-03 0.  1.
         12    1    3    3    0    0 -0.11131237416E+02 -0.39889551207E+02 -0.14588402539E+02  0.43907883467E+02  0.00000000000E+00 0. -1.
</event>
<event>
 7    1  0.2593256E-015  0.9000774E+02  0.7816164E-02  0.1186339E+00
        -11   -1    0    0    0    0  0.00000000000E+00  0.00000000000E+00  0.45593999997E+02  0.45594000000E+02  0.51100000000E-03 0.  1.
         11   -1    0    0    0    0 -0.00000000000E+00 -0.00000000000E+00 -0.45593999997E+02  0.45594000000E+02  0.51100000000E-03 0. -1.
    9900012    2    1    2    0    0 -0.10442748197E+01 -0.32374813757E+00 -0.44461520389E+00  0.90007743488E+02  0.90000004902E+02 0.  0.
        -12    1    1    2    0    0  0.10442748197E+01  0.32374813757E+00  0.44461520389E+00  0.11802565125E+01  0.00000000000E+00 0.  1.
         11    1    3    3    0    0 -0.28348695479E+01 -0.11045897291E+02  0.25459948810E+01  0.11684623337E+02  0.51100000000E-03 0. -1.
        -11    1    3    3    0    0 -0.33046486343E+02 -0.13152806144E+02  0.28788791015E+01  0.35684093294E+02  0.51100000000E-03 0.  1.
         12    1    3    3    0    0  0.34837081071E+02  0.23874955298E+02 -0.58694891863E+01  0.42639026857E+02  0.00000000000E+00 0. -1.
</event>
<event>
 7    1  0.2593256E-015  0.9000772E+02  0.7816164E-02  0.1186339E+00
        -11   -1    0    0    0    0  0.00000000000E+00  0.00000000000E+00  0.45593999997E+02  0.45594000000E+02  0.51100000000E-03 0.  1.
         11   -1    0    0    0    0 -0.00000000000E+00 -0.00000000000E+00 -0.45593999997E+02  0.45594000000E+02  0.51100000000E-03 0. -1.
    9900012    2    1    2    0    0 -0.75151222815E+00 -0.80073889690E+00 -0.43255705824E+00  0.90007720788E+02  0.89999981902E+02 0.  0.
        -12    1    1    2    0    0  0.75151222815E+00  0.80073889690E+00  0.43255705824E+00  0.11802792122E+01  0.00000000000E+00 0.  1.
         11    1    3    3    0    0 -0.16503360859E+01 -0.60876839137E+01 -0.11966212675E+02  0.13526779020E+02  0.51100000000E-03 0. -1.
        -11    1    3    3    0    0 -0.15692119672E+02  0.24924664342E+02 -0.20145051370E+02  0.35683394000E+02  0.51100000000E-03 0.  1.
         12    1    3    3    0    0  0.16590943530E+02 -0.19637719325E+02  0.31678706987E+02  0.40797547768E+02  0.00000000000E+00 0. -1.
</event>
<event>
 7    1  0.2593256E-015  0.9000781E+02  0.7816164E-02  0.1186339E+00
        -11   -1    0    0    0    0  0.00000000000E+00  0.00000000000E+00  0.45593999997E+02  0.45594000000E+02  0.51100000000E-03 0.  1.
         11   -1    0    0    0    0 -0.00000000000E+00 -0.00000000000E+00 -0.45593999997E+02  0.45594000000E+02  0.51100000000E-03 0. -1.
    9900012    2    1    2    0    0  0.61451446737E+00 -0.57190979882E+00 -0.82953768880E+00  0.90007812885E+02  0.90000075215E+02 0.  0.
        -12    1    1    2    0    0 -0.61451446737E+00  0.57190979882E+00  0.82953768880E+00  0.11801871147E+01  0.00000000000E+00 0.  1.
         11    1    3    3    0    0 -0.46495490729E+01 -0.28725535252E+01  0.59603558358E+01  0.80867615451E+01  0.51100000000E-03 0. -1.
        -11    1    3    3    0    0  0.10253342013E+02 -0.38717472166E+02 -0.66495599416E+01  0.40600373410E+02  0.51100000000E-03 0.  1.
         12    1    3    3    0    0 -0.49892784723E+01  0.41018115893E+02 -0.14033358294E+00  0.41320677930E+02  0.00000000000E+00 0. -1.
</event>
<event>
 7    1  0.2593256E-015  0.9000773E+02  0.7816164E-02  0.1186339E+00
        -11   -1    0    0    0    0  0.00000000000E+00  0.00000000000E+00  0.45593999997E+02  0.45594000000E+02  0.51100000000E-03 0. -1.
         11   -1    0    0    0    0 -0.00000000000E+00 -0.00000000000E+00 -0.45593999997E+02  0.45594000000E+02  0.51100000000E-03 0.  1.
    9900012    2    1    2    0    0  0.58368092537E+00  0.29023504579E+00  0.98393353117E+00  0.90007726727E+02  0.89999987920E+02 0.  0.
        -12    1    1    2    0    0 -0.58368092537E+00 -0.29023504579E+00 -0.98393353117E+00  0.11802732727E+01  0.00000000000E+00 0.  1.
         11    1    3    3    0    0 -0.69920840965E+01 -0.74511641617E+01 -0.14803600336E+01  0.10324754402E+02  0.51100000000E-03 0. -1.
        -11    1    3    3    0    0 -0.58399961414E+01  0.21922862145E+02 -0.32501527618E+02  0.39636684237E+02  0.51100000000E-03 0.  1.
         12    1    3    3    0    0  0.13415761163E+02 -0.14181462938E+02  0.34965821183E+02  0.40046288088E+02  0.00000000000E+00 0. -1.
</event>
<event>
 7    1  0.2593256E-015  0.9000782E+02  0.7816164E-02  0.1186339E+00
        -11   -1    0    0    0    0  0.00000000000E+00  0.00000000000E+00  0.45593999997E+02  0.45594000000E+02  0.51100000000E-03 0. -1.
         11   -1    0    0    0    0 -0.00000000000E+00 -0.00000000000E+00 -0.45593999997E+02  0.45594000000E+02  0.51100000000E-03 0.  1.
    9900012    2    1    2    0    0  0.53232779091E+00 -0.47100906171E+00  0.94212715209E+00  0.90007819512E+02  0.90000081930E+02 0.  0.
        -12    1    1    2    0    0 -0.53232779091E+00  0.47100906171E+00 -0.94212715209E+00  0.11801804879E+01  0.00000000000E+00 0.  1.
         11    1    3    3    0    0 -0.45703818596E+01 -0.17713218332E+02 -0.24952447696E+02  0.30939798646E+02  0.51100000000E-03 0. -1.
        -11    1    3    3    0    0 -0.18707520298E+02 -0.33635224195E+01  0.18914952235E+02  0.26815294462E+02  0.51100000000E-03 0.  1.
        -12    1    3    3    0    0  0.23810229948E+02  0.20605731690E+02  0.69796226122E+01  0.32252726404E+02  0.00000000000E+00 0.  1.
</event>
<event>
 7    1  0.2593256E-015  0.9000777E+02  0.7816164E-02  0.1186339E+00
        -11   -1    0    0    0    0  0.00000000000E+00  0.00000000000E+00  0.45593999997E+02  0.45594000000E+02  0.51100000000E-03 0.  1.
         11   -1    0    0    0    0 -0.00000000000E+00 -0.00000000000E+00 -0.45593999997E+02  0.45594000000E+02  0.51100000000E-03 0. -1.
    9900012    2    1    2    0    0 -0.21568049353E+00  0.10341394957E+01 -0.52629820064E+00  0.90007765969E+02  0.90000027680E+02 0.  0.
        -12    1    1    2    0    0  0.21568049353E+00 -0.10341394957E+01  0.52629820064E+00  0.11802340310E+01  0.00000000000E+00 0.  1.
         11    1    3    3    0    0  0.12830968984E+02  0.32606668869E+02 -0.15638106403E+02  0.38371590949E+02  0.51100000000E-03 0. -1.
        -11    1    3    3    0    0 -0.52367855905E+00  0.77748134370E+01  0.45152460683E+01  0.90060763116E+01  0.51100000000E-03 0.  1.
        -12    1    3    3    0    0 -0.12522970918E+02 -0.39347342810E+02  0.10596562134E+02  0.42630098709E+02  0.00000000000E+00 0.  1.
</event>
<event>
 7    1  0.2593256E-015  0.9000775E+02  0.7816164E-02  0.1186339E+00
        -11   -1    0    0    0    0  0.00000000000E+00  0.00000000000E+00  0.45593999997E+02  0.45594000000E+02  0.51100000000E-03 0. -1.
         11   -1    0    0    0    0 -0.00000000000E+00 -0.00000000000E+00 -0.45593999997E+02  0.45594000000E+02  0.51100000000E-03 0.  1.
    9900012    2    1    2    0    0  0.49600016499E-01 -0.97481780627E+00  0.66352394028E+00  0.90007748359E+02  0.90000009837E+02 0.  0.
        -12    1    1    2    0    0 -0.49600016499E-01  0.97481780627E+00 -0.66352394028E+00  0.11802516411E+01  0.00000000000E+00 0.  1.
         11    1    3    3    0    0 -0.31291976087E+02 -0.21571357215E+02 -0.26917665225E+01  0.38101926812E+02  0.51100000000E-03 0. -1.
        -11    1    3    3    0    0  0.35920377348E+01 -0.95145944586E+01 -0.26761227617E+01  0.10516267213E+02  0.51100000000E-03 0.  1.
        -12    1    3    3    0    0  0.27749538369E+02  0.30111133868E+02  0.60314132245E+01  0.41389554334E+02  0.00000000000E+00 0.  1.
</event>
<event>
 7    1  0.2593256E-015  0.9000779E+02  0.7816164E-02  0.1186339E+00
        -11   -1    0    0    0    0  0.00000000000E+00  0.00000000000E+00  0.45593999997E+02  0.45594000000E+02  0.51100000000E-03 0.  1.
         11   -1    0    0    0    0 -0.00000000000E+00 -0.00000000000E+00 -0.45593999997E+02  0.45594000000E+02  0.51100000000E-03 0. -1.
    9900012    2    1    2    0    0 -0.33220506377E+00 -0.11254331122E+01 -0.12625863428E+00  0.90007787673E+02  0.90000049670E+02 0.  0.
        -12    1    1    2    0    0  0.33220506377E+00  0.11254331122E+01  0.12625863428E+00  0.11802123272E+01  0.00000000000E+00 0.  1.
         11    1    3    3    0    0  0.55022168703E+01 -0.96662157930E+01  0.16361406405E+01  0.11242200616E+02  0.51100000000E-03 0. -1.
        -11    1    3    3    0    0 -0.17100805755E+02 -0.13655980703E+02  0.30797164654E+02  0.37780798264E+02  0.51100000000E-03 0.  1.
         12    1    3    3    0    0  0.11266383821E+02  0.22196763384E+02 -0.32559563929E+02  0.40984788793E+02  0.00000000000E+00 0. -1.
</event>
<event>
 7    1  0.2593256E-015  0.9000775E+02  0.7816164E-02  0.1186339E+00
        -11   -1    0    0    0    0  0.00000000000E+00  0.00000000000E+00  0.45593999997E+02  0.45594000000E+02  0.51100000000E-03 0. -1.
         11   -1    0    0    0    0 -0.00000000000E+00 -0.00000000000E+00 -0.45593999997E+02  0.45594000000E+02  0.51100000000E-03 0.  1.
    9900012    2    1    2    0    0  0.16124113722E+00  0.10832231366E+00  0.11641571996E+01  0.90007748157E+02  0.90000009633E+02 0.  0.
        -12    1    1    2    0    0 -0.16124113722E+00 -0.10832231366E+00 -0.11641571996E+01  0.11802518432E+01  0.00000000000E+00 0.  1.
         11    1    3    3    0    0 -0.69356616211E+01  0.34123383299E+01  0.10283968584E+02  0.12864970466E+02  0.51100000000E-03 0. -1.
        -11    1    3    3    0    0  0.31168841085E+02  0.12820042465E+02  0.17343497267E+02  0.37903127062E+02  0.51100000000E-03 0.  1.
         12    1    3    3    0    0 -0.24071938327E+02 -0.16124058481E+02 -0.26463308651E+02  0.39239650629E+02  0.00000000000E+00 0. -1.
</event>
<event>
 7    1  0.2593256E-015  0.9000772E+02  0.7816164E-02  0.1186339E+00
        -11   -1    0    0    0    0  0.00000000000E+00  0.00000000000E+00  0.45593999997E+02  0.45594000000E+02  0.51100000000E-03 0.  1.
         11   -1    0    0    0    0 -0.00000000000E+00 -0.00000000000E+00 -0.45593999997E+02  0.45594000000E+02  0.51100000000E-03 0. -1.
    9900012    2    1    2    0    0 -0.42876287422E+00 -0.63383909226E+00 -0.89859858063E+00  0.90007716557E+02  0.89999977615E+02 0.  0.
        -12    1    1    2    0    0  0.42876287422E+00  0.63383909226E+00  0.89859858063E+00  0.11802834432E+01  0.00000000000E+00 0.  1.
         11    1    3    3    0    0  0.90030331521E+01 -0.71606225022E+01 -0.78862158803E+01  0.13947097251E+02  0.51100000000E-03 0. -1.
        -11    1    3    3    0    0 -0.24403027141E+02 -0.28096147814E+02  0.89956238652E+01  0.38286061493E+02  0.51100000000E-03 0.  1.
         12    1    3    3    0    0  0.14971231115E+02  0.34622931224E+02 -0.20080065656E+01  0.37774557813E+02  0.00000000000E+00 0. -1.
</event>
<event>
 7    1  0.2593256E-015  0.9000762E+02  0.7816164E-02  0.1186339E+00
        -11   -1    0    0    0    0  0.00000000000E+00  0.00000000000E+00  0.45593999997E+02  0.45594000000E+02  0.51100000000E-03 0.  1.
         11   -1    0    0    0    0 -0.00000000000E+00 -0.00000000000E+00 -0.45593999997E+02  0.45594000000E+02  0.51100000000E-03 0. -1.
    9900012    2    1    2    0    0 -0.16104780525E+00  0.61157253428E+00 -0.99666402005E+00  0.90007620176E+02  0.89999879962E+02 0.  0.
        -12    1    1    2    0    0  0.16104780525E+00 -0.61157253428E+00  0.99666402005E+00  0.11803798241E+01  0.00000000000E+00 0.  1.
         11    1    3    3    0    0  0.93811807813E+01  0.11824325788E+02 -0.36065890133E+02  0.39096926536E+02  0.51100000000E-03 0. -1.
        -11    1    3    3    0    0 -0.93989343582E+01  0.59708854028E+01 -0.77300056522E+00  0.11161942918E+02  0.51100000000E-03 0.  1.
        -12    1    3    3    0    0 -0.14329422833E+00 -0.17183638656E+02  0.35842226678E+02  0.39748750722E+02  0.00000000000E+00 0.  1.
</event>
<event>
 7    1  0.2593256E-015  0.9000772E+02  0.7816164E-02  0.1186339E+00
        -11   -1    0    0    0    0  0.00000000000E+00  0.00000000000E+00  0.45593999997E+02  0.45594000000E+02  0.51100000000E-03 0.  1.
         11   -1    0    0    0    0 -0.00000000000E+00 -0.00000000000E+00 -0.45593999997E+02  0.45594000000E+02  0.51100000000E-03 0. -1.
    9900012    2    1    2    0    0  0.17924077011E+00  0.35415231988E+00 -0.11115336255E+01  0.90007721169E+02  0.89999982288E+02 0.  0.
        -12    1    1    2    0    0 -0.17924077011E+00 -0.35415231988E+00  0.11115336255E+01  0.11802788314E+01  0.00000000000E+00 0.  1.
         11    1    3    3    0    0 -0.32741624181E+01  0.90969976070E+01 -0.25905344734E+02  0.27650721348E+02  0.51100000000E-03 0. -1.
        -11    1    3    3    0    0 -0.13913579443E+02 -0.78295995211E+01 -0.13107222786E+02  0.20656466566E+02  0.51100000000E-03 0.  1.
        -12    1    3    3    0    0  0.17366982631E+02 -0.91324576608E+00  0.37901033894E+02  0.41700533255E+02  0.00000000000E+00 0.  1.
</event>
<event>
 7    1  0.2593256E-015  0.9000775E+02  0.7816164E-02  0.1186339E+00
        -11   -1    0    0    0    0  0.00000000000E+00  0.00000000000E+00  0.45593999997E+02  0.45594000000E+02  0.51100000000E-03 0.  1.
         11   -1    0    0    0    0 -0.00000000000E+00 -0.00000000000E+00 -0.45593999997E+02  0.45594000000E+02  0.51100000000E-03 0. -1.
    9900012    2    1    2    0    0 -0.63528072629E+00  0.81295801261E+00  0.57315817228E+00  0.90007748916E+02  0.90000010401E+02 0.  0.
        -12    1    1    2    0    0  0.63528072629E+00 -0.81295801261E+00 -0.57315817228E+00  0.11802510843E+01  0.00000000000E+00 0.  1.
         11    1    3    3    0    0 -0.48863681811E+01 -0.23351707565E+01  0.10063260798E+02  0.11427984714E+02  0.51100000000E-03 0. -1.
        -11    1    3    3    0    0  0.13699849048E+02 -0.22520856842E+02  0.23785255281E+02  0.35505115489E+02  0.51100000000E-03 0.  1.
         12    1    3    3    0    0 -0.94487615930E+01  0.25668985611E+02 -0.33275357907E+02  0.43074648713E+02  0.00000000000E+00 0. -1.
</event>
<event>
 7    1  0.2593256E-015  0.9000801E+02  0.7816164E-02  0.1186339E+00
        -11   -1    0    0    0    0  0.00000000000E+00  0.00000000000E+00  0.45593999997E+02  0.45594000000E+02  0.51100000000E-03 0. -1.
         11   -1    0    0    0    0 -0.00000000000E+00 -0.00000000000E+00 -0.45593999997E+02  0.45594000000E+02  0.51100000000E-03 0.  1.
    9900012    2    1    2    0    0  0.67858261050E-01  0.90814046825E+00 -0.75036685480E+00  0.90008010902E+02  0.90000275846E+02 0.  0.
        -12    1    1    2    0    0 -0.67858261050E-01 -0.90814046825E+00  0.75036685480E+00  0.11799890976E+01  0.00000000000E+00 0.  1.
         11    1    3    3    0    0 -0.57176897093E+01 -0.79337120857E+01 -0.40886813840E+01  0.10599673523E+02  0.51100000000E-03 0. -1.
        -11    1    3    3    0    0  0.10751312388E+02 -0.84836312749E+01 -0.34706204915E+02  0.37310633572E+02  0.51100000000E-03 0.  1.
         12    1    3    3    0    0 -0.49657644171E+01  0.17325483829E+02  0.38044519444E+02  0.42097703808E+02  0.00000000000E+00 0. -1.
</event>
<event>
 7    1  0.2593256E-015  0.9000769E+02  0.7816164E-02  0.1186339E+00
        -11   -1    0    0    0    0  0.00000000000E+00  0.00000000000E+00  0.45593999997E+02  0.45594000000E+02  0.51100000000E-03 0. -1.
         11   -1    0    0    0    0 -0.00000000000E+00 -0.00000000000E+00 -0.45593999997E+02  0.45594000000E+02  0.51100000000E-03 0.  1.
    9900012    2    1    2    0    0 -0.37457407922E+00 -0.46731425004E+00  0.10170804640E+01  0.90007686051E+02  0.89999946706E+02 0.  0.
        -12    1    1    2    0    0  0.37457407922E+00  0.46731425004E+00 -0.10170804640E+01  0.11803139495E+01  0.00000000000E+00 0.  1.
         11    1    3    3    0    0 -0.21746022980E+02  0.52568281560E+01  0.30864458638E+02  0.38120054630E+02  0.51100000000E-03 0. -1.
        -11    1    3    3    0    0 -0.58819837682E+01 -0.89071873027E+01  0.85828807162E+00  0.10708518916E+02  0.51100000000E-03 0.  1.
        -12    1    3    3    0    0  0.27253432669E+02  0.31830448966E+01 -0.30705666246E+02  0.41179112505E+02  0.00000000000E+00 0.  1.
</event>
<event>
 7    1  0.2593256E-015  0.9000789E+02  0.7816164E-02  0.1186339E+00
        -11   -1    0    0    0    0  0.00000000000E+00  0.00000000000E+00  0.45593999997E+02  0.45594000000E+02  0.51100000000E-03 0.  1.
         11   -1    0    0    0    0 -0.00000000000E+00 -0.00000000000E+00 -0.45593999997E+02  0.45594000000E+02  0.51100000000E-03 0. -1.
    9900012    2    1    2    0    0 -0.83389315589E-01 -0.59037977521E-01 -0.11756783306E+01  0.90007890345E+02  0.90000153697E+02 0.  0.
        -12    1    1    2    0    0  0.83389315589E-01  0.59037977521E-01  0.11756783306E+01  0.11801096550E+01  0.00000000000E+00 0.  1.
         11    1    3    3    0    0  0.11626941438E+01 -0.15437244189E+01 -0.95842801378E+01  0.97771861379E+01  0.51100000000E-03 0. -1.
        -11    1    3    3    0    0 -0.32973052684E+02  0.23430781354E+02  0.98277106378E+01  0.41627005835E+02  0.51100000000E-03 0.  1.
         12    1    3    3    0    0  0.31726969225E+02 -0.21946094913E+02 -0.14191088307E+01  0.38603698372E+02  0.00000000000E+00 0. -1.
</event>
<event>
 7    1  0.2593256E-015  0.9000764E+02  0.7816164E-02  0.1186339E+00
        -11   -1    0    0    0    0  0.00000000000E+00  0.00000000000E+00  0.45593999997E+02  0.45594000000E+02  0.51100000000E-03 0.  1.
         11   -1    0    0    0    0 -0.00000000000E+00 -0.00000000000E+00 -0.45593999997E+02  0.45594000000E+02  0.51100000000E-03 0. -1.
    9900012    2    1    2    0    0 -0.76714869407E+00  0.88964989439E+00  0.11513289546E+00  0.90007640039E+02  0.89999900088E+02 0.  0.
        -12    1    1    2    0    0  0.76714869407E+00 -0.88964989439E+00 -0.11513289546E+00  0.11803599608E+01  0.00000000000E+00 0.  1.
         11    1    3    3    0    0  0.63415528743E+01 -0.25930590444E+01 -0.38225357096E+02  0.38834484333E+02  0.51100000000E-03 0. -1.
        -11    1    3    3    0    0  0.59509724379E+01  0.14324293052E+01 -0.36665581242E+01  0.71350946322E+01  0.51100000000E-03 0.  1.
        -12    1    3    3    0    0 -0.13059674006E+02  0.20502796336E+01  0.42007048116E+02  0.44038061074E+02  0.00000000000E+00 0.  1.
</event>
<event>
 7    1  0.2593256E-015  0.9000773E+02  0.7816164E-02  0.1186339E+00
        -11   -1    0    0    0    0  0.00000000000E+00  0.00000000000E+00  0.45593999997E+02  0.45594000000E+02  0.51100000000E-03 0. -1.
         11   -1    0    0    0    0 -0.00000000000E+00 -0.00000000000E+00 -0.45593999997E+02  0.45594000000E+02  0.51100000000E-03 0.  1.
    9900012    2    1    2    0    0 -0.67499712281E+00  0.31262966312E+00 -0.91634037978E+00  0.90007729644E+02  0.89999990875E+02 0.  0.
        -12    1    1    2    0    0  0.67499712281E+00 -0.31262966312E+00  0.91634037978E+00  0.11802703562E+01  0.00000000000E+00 0.  1.
         11    1    3    3    0    0 -0.22165782649E+02  0.10187550736E+02  0.24605119929E+02  0.34648521432E+02  0.51100000000E-03 0. -1.
        -11    1    3    3    0    0  0.50729180965E+00 -0.28793578591E+01  0.11701005616E+02  0.12060745389E+02  0.51100000000E-03 0.  1.
        -12    1    3    3    0    0  0.20983493716E+02 -0.69955632134E+01 -0.37222465925E+02  0.43298462822E+02  0.00000000000E+00 0.  1.
</event>
<event>
 7    1  0.2593256E-015  0.9000782E+02  0.7816164E-02  0.1186339E+00
        -11   -1    0    0    0    0  0.00000000000E+00  0.00000000000E+00  0.45593999997E+02  0.45594000000E+02  0.51100000000E-03 0. -1.
         11   -1    0    0    0    0 -0.00000000000E+00 -0.00000000000E+00 -0.45593999997E+02  0.45594000000E+02  0.51100000000E-03 0.  1.
    9900012    2    1    2    0    0 -0.39140145055E+00 -0.70952952412E+00  0.85802177790E+00  0.90007818399E+02  0.90000080801E+02 0.  0.
        -12    1    1    2    0    0  0.39140145055E+00  0.70952952412E+00 -0.85802177790E+00  0.11801816015E+01  0.00000000000E+00 0.  1.
         11    1    3    3    0    0 -0.23129770100E+01 -0.63193576133E+01 -0.56948366350E+01  0.88156286137E+01  0.51100000000E-03 0. -1.
        -11    1    3    3    0    0 -0.14089847817E+02 -0.28462080127E+02  0.23894321808E+02  0.39743583527E+02  0.51100000000E-03 0.  1.
         12    1    3    3    0    0  0.16011423376E+02  0.34071908216E+02 -0.17341463395E+02  0.41448606258E+02  0.00000000000E+00 0. -1.
</event>
<event>
 7    1  0.2593256E-015  0.9000773E+02  0.7816164E-02  0.1186339E+00
        -11   -1    0    0    0    0  0.00000000000E+00  0.00000000000E+00  0.45593999997E+02  0.45594000000E+02  0.51100000000E-03 0. -1.
         11   -1    0    0    0    0 -0.00000000000E+00 -0.00000000000E+00 -0.45593999997E+02  0.45594000000E+02  0.51100000000E-03 0.  1.
    9900012    2    1    2    0    0 -0.79730636404E+00  0.39342110370E+00  0.77624423209E+00  0.90007731933E+02  0.89999993194E+02 0.  0.
        -12    1    1    2    0    0  0.79730636404E+00 -0.39342110370E+00 -0.77624423209E+00  0.11802680674E+01  0.00000000000E+00 0.  1.
         11    1    3    3    0    0  0.14541497278E+02  0.10261258168E+02 -0.42401367562E+01  0.18295554713E+02  0.51100000000E-03 0. -1.
        -11    1    3    3    0    0  0.55285665209E+00  0.28934695564E+02 -0.27427094610E+01  0.29069652789E+02  0.51100000000E-03 0.  1.
         12    1    3    3    0    0 -0.15891660294E+02 -0.38802532628E+02  0.77590904494E+01  0.42642524431E+02  0.00000000000E+00 0. -1.
</event>
<event>
 7    1  0.2593256E-015  0.9000721E+02  0.7816164E-02  0.1186340E+00
        -11   -1    0    0    0    0  0.00000000000E+00  0.00000000000E+00  0.45593999997E+02  0.45594000000E+02  0.51100000000E-03 0.  1.
         11   -1    0    0    0    0 -0.00000000000E+00 -0.00000000000E+00 -0.45593999997E+02  0.45594000000E+02  0.51100000000E-03 0. -1.
    9900012    2    1    2    0    0  0.25133929987E+00 -0.50329840492E-01 -0.11526329213E+01  0.90007209084E+02  0.89999463442E+02 0.  0.
        -12    1    1    2    0    0 -0.25133929987E+00  0.50329840492E-01  0.11526329213E+01  0.11807909161E+01  0.00000000000E+00 0.  1.
         11    1    3    3    0    0  0.27824483487E+02  0.11738777019E+02  0.18311118403E+02  0.35317103854E+02  0.51100000000E-03 0. -1.
        -11    1    3    3    0    0  0.35353321741E+01  0.31710053745E+00  0.97217556377E+01  0.10349476280E+02  0.51100000000E-03 0.  1.
        -12    1    3    3    0    0 -0.31108476361E+02 -0.12106207397E+02 -0.29185506962E+02  0.44340628950E+02  0.00000000000E+00 0.  1.
</event>
<event>
 7    1  0.2593256E-015  0.9000768E+02  0.7816164E-02  0.1186339E+00
        -11   -1    0    0    0    0  0.00000000000E+00  0.00000000000E+00  0.45593999997E+02  0.45594000000E+02  0.51100000000E-03 0. -1.
         11   -1    0    0    0    0 -0.00000000000E+00 -0.00000000000E+00 -0.45593999997E+02  0.45594000000E+02  0.51100000000E-03 0.  1.
    9900012    2    1    2    0    0  0.19134050799E+00  0.60641813170E+00  0.99438697396E+00  0.90007678182E+02  0.89999938734E+02 0.  0.
        -12    1    1    2    0    0 -0.19134050799E+00 -0.60641813170E+00 -0.99438697396E+00  0.11803218182E+01  0.00000000000E+00 0.  1.
         11    1    3    3    0    0  0.50353959971E+01  0.11225898491E+02 -0.13528753190E+01  0.12377652511E+02  0.51100000000E-03 0. -1.
        -11    1    3    3    0    0 -0.30144870349E+02  0.17918566615E+02  0.13986987043E+02  0.37754788368E+02  0.51100000000E-03 0.  1.
         12    1    3    3    0    0  0.25300814860E+02 -0.28538046974E+02 -0.11639724750E+02  0.39875237303E+02  0.00000000000E+00 0. -1.
</event>
<event>
 7    1  0.2593256E-015  0.9000766E+02  0.7816164E-02  0.1186339E+00
        -11   -1    0    0    0    0  0.00000000000E+00  0.00000000000E+00  0.45593999997E+02  0.45594000000E+02  0.51100000000E-03 0.  1.
         11   -1    0    0    0    0 -0.00000000000E+00 -0.00000000000E+00 -0.45593999997E+02  0.45594000000E+02  0.51100000000E-03 0. -1.
    9900012    2    1    2    0    0 -0.10402722084E+01 -0.21817686123E+00  0.51325454577E+00  0.90007662066E+02  0.89999922405E+02 0.  0.
        -12    1    1    2    0    0  0.10402722084E+01  0.21817686123E+00 -0.51325454577E+00  0.11803379343E+01  0.00000000000E+00 0.  1.
         11    1    3    3    0    0 -0.66456882400E+01  0.18875690093E+02 -0.73540171345E+01  0.21319906589E+02  0.51100000000E-03 0. -1.
        -11    1    3    3    0    0 -0.16932376047E+02 -0.18534788759E+02 -0.20529348278E+02  0.32429891982E+02  0.51100000000E-03 0.  1.
        -12    1    3    3    0    0  0.22537792078E+02 -0.55907819478E+00  0.28396619959E+02  0.36257863496E+02  0.00000000000E+00 0.  1.
</event>
<event>
 7    1  0.2593256E-015  0.9000784E+02  0.7816164E-02  0.1186339E+00
        -11   -1    0    0    0    0  0.00000000000E+00  0.00000000000E+00  0.45593999997E+02  0.45594000000E+02  0.51100000000E-03 0. -1.
         11   -1    0    0    0    0 -0.00000000000E+00 -0.00000000000E+00 -0.45593999997E+02  0.45594000000E+02  0.51100000000E-03 0.  1.
    9900012    2    1    2    0    0 -0.73552067439E+00 -0.80213506056E+00  0.45645966765E+00  0.90007844609E+02  0.90000107358E+02 0.  0.
        -12    1    1    2    0    0  0.73552067439E+00  0.80213506056E+00 -0.45645966765E+00  0.11801553906E+01  0.00000000000E+00 0.  1.
         11    1    3    3    0    0 -0.71412713953E+01  0.12466662551E+02  0.12182832557E+02  0.18837113411E+02  0.51100000000E-03 0. -1.
        -11    1    3    3    0    0  0.33011816389E+02  0.73704735065E+01  0.38999875440E+01  0.34048697539E+02  0.51100000000E-03 0.  1.
         12    1    3    3    0    0 -0.26606065668E+02 -0.20639271118E+02 -0.15626360433E+02  0.37122033659E+02  0.00000000000E+00 0. -1.
</event>
<event>
 7    1  0.2593256E-015  0.9000842E+02  0.7816164E-02  0.1186338E+00
        -11   -1    0    0    0    0  0.00000000000E+00  0.00000000000E+00  0.45593999997E+02  0.45594000000E+02  0.51100000000E-03 0.  1.
         11   -1    0    0    0    0 -0.00000000000E+00 -0.00000000000E+00 -0.45593999997E+02  0.45594000000E+02  0.51100000000E-03 0. -1.
    9900012    2    1    2    0    0  0.62952532154E+00  0.69043797682E-01 -0.99515759204E+00  0.90008420495E+02  0.90000690843E+02 0.  0.
        -12    1    1    2    0    0 -0.62952532154E+00 -0.69043797682E-01  0.99515759204E+00  0.11795795054E+01  0.00000000000E+00 0.  1.
         11    1    3    3    0    0  0.66421774441E+01 -0.49998229040E+01  0.21935148776E+01  0.85981543397E+01  0.51100000000E-03 0. -1.
        -11    1    3    3    0    0 -0.10734589845E+02  0.28523486156E+02  0.28485048431E+02  0.41715928205E+02  0.51100000000E-03 0.  1.
         12    1    3    3    0    0  0.47219377221E+01 -0.23454619454E+02 -0.31673720901E+02  0.39694337950E+02  0.00000000000E+00 0. -1.
</event>
<event>
 7    1  0.2593256E-015  0.9000760E+02  0.7816164E-02  0.1186339E+00
        -11   -1    0    0    0    0  0.00000000000E+00  0.00000000000E+00  0.45593999997E+02  0.45594000000E+02  0.51100000000E-03 0. -1.
         11   -1    0    0    0    0 -0.00000000000E+00 -0.00000000000E+00 -0.45593999997E+02  0.45594000000E+02  0.51100000000E-03 0.  1.
    9900012    2    1    2    0    0 -0.76207061161E-02  0.14092470507E+00  0.11719297962E+01  0.90007602908E+02  0.89999862466E+02 0.  0.
        -12    1    1    2    0    0  0.76207061161E-02 -0.14092470507E+00 -0.11719297962E+01  0.11803970920E+01  0.00000000000E+00 0.  1.
         11    1    3    3    0    0  0.21084632735E+02  0.37599563976E+02 -0.15253145058E+01  0.43134852885E+02  0.51100000000E-03 0.  1.
        -11    1    3    3    0    0 -0.57916337290E+01 -0.19754167343E+02 -0.67114514010E+01  0.21652106799E+02  0.51100000000E-03 0. -1.
        -12    1    3    3    0    0 -0.15300619712E+02 -0.17704471928E+02  0.94086957030E+01  0.25220643224E+02  0.00000000000E+00 0.  1.
</event>
<event>
 7    1  0.2593256E-015  0.9000762E+02  0.7816164E-02  0.1186339E+00
        -11   -1    0    0    0    0  0.00000000000E+00  0.00000000000E+00  0.45593999997E+02  0.45594000000E+02  0.51100000000E-03 0.  1.
         11   -1    0    0    0    0 -0.00000000000E+00 -0.00000000000E+00 -0.45593999997E+02  0.45594000000E+02  0.51100000000E-03 0. -1.
    9900012    2    1    2    0    0  0.71928724904E+00 -0.81452670433E+00 -0.46093681101E+00  0.90007622669E+02  0.89999882489E+02 0.  0.
        -12    1    1    2    0    0 -0.71928724904E+00  0.81452670433E+00  0.46093681101E+00  0.11803773305E+01  0.00000000000E+00 0.  1.
         11    1    3    3    0    0 -0.23205243258E+02  0.15128537610E+02 -0.14682160270E+02  0.31351583618E+02  0.51100000000E-03 0. -1.
        -11    1    3    3    0    0 -0.77959535921E+01  0.11763333047E+02 -0.27320770714E+00  0.14114798599E+02  0.51100000000E-03 0.  1.
        -12    1    3    3    0    0  0.31720484099E+02 -0.27706397361E+02  0.14494431166E+02  0.44541240453E+02  0.00000000000E+00 0.  1.
</event>
<event>
 7    1  0.2593256E-015  0.9000753E+02  0.7816164E-02  0.1186339E+00
        -11   -1    0    0    0    0  0.00000000000E+00  0.00000000000E+00  0.45593999997E+02  0.45594000000E+02  0.51100000000E-03 0. -1.
         11   -1    0    0    0    0 -0.00000000000E+00 -0.00000000000E+00 -0.45593999997E+02  0.45594000000E+02  0.51100000000E-03 0.  1.
    9900012    2    1    2    0    0 -0.63938464911E+00 -0.24939195766E+00  0.96046780740E+00  0.90007530819E+02  0.89999789426E+02 0.  0.
        -12    1    1    2    0    0  0.63938464911E+00  0.24939195766E+00 -0.96046780740E+00  0.11804691809E+01  0.00000000000E+00 0.  1.
         11    1    3    3    0    0  0.63010883397E+01 -0.12647406432E+02  0.26421555560E+02  0.29962630095E+02  0.51100000000E-03 0. -1.
        -11    1    3    3    0    0  0.19869647687E+02  0.17295664509E+02 -0.74451671651E+01  0.27374685832E+02  0.51100000000E-03 0.  1.
        -12    1    3    3    0    0 -0.26810120675E+02 -0.48976500345E+01 -0.18015920588E+02  0.32670214892E+02  0.00000000000E+00 0.  1.
</event>
<event>
 7    1  0.2593256E-015  0.9000770E+02  0.7816164E-02  0.1186339E+00
        -11   -1    0    0    0    0  0.00000000000E+00  0.00000000000E+00  0.45593999997E+02  0.45594000000E+02  0.51100000000E-03 0.  1.
         11   -1    0    0    0    0 -0.00000000000E+00 -0.00000000000E+00 -0.45593999997E+02  0.45594000000E+02  0.51100000000E-03 0. -1.
    9900012    2    1    2    0    0 -0.22549153119E+00 -0.17639011155E+00 -0.11450528335E+01  0.90007700930E+02  0.89999961783E+02 0.  0.
        -12    1    1    2    0    0  0.22549153119E+00  0.17639011155E+00  0.11450528335E+01  0.11802990696E+01  0.00000000000E+00 0.  1.
         11    1    3    3    0    0 -0.35222692276E+02  0.64746358168E+01 -0.24945981547E+02  0.43644712804E+02  0.51100000000E-03 0. -1.
        -11    1    3    3    0    0  0.72797845270E+01  0.57012672482E+01  0.36744003206E+01  0.99499210536E+01  0.51100000000E-03 0.  1.
        -12    1    3    3    0    0  0.27717416218E+02 -0.12352293177E+02  0.20126528393E+02  0.36413067073E+02  0.00000000000E+00 0.  1.
</event>
<event>
 7    1  0.2593256E-015  0.9000772E+02  0.7816164E-02  0.1186339E+00
        -11   -1    0    0    0    0  0.00000000000E+00  0.00000000000E+00  0.45593999997E+02  0.45594000000E+02  0.51100000000E-03 0. -1.
         11   -1    0    0    0    0 -0.00000000000E+00 -0.00000000000E+00 -0.45593999997E+02  0.45594000000E+02  0.51100000000E-03 0.  1.
    9900012    2    1    2    0    0 -0.32908118632E+00 -0.53872049638E+00  0.99726697637E+00  0.90007722227E+02  0.89999983360E+02 0.  0.
        -12    1    1    2    0    0  0.32908118632E+00  0.53872049638E+00 -0.99726697637E+00  0.11802777735E+01  0.00000000000E+00 0.  1.
         11    1    3    3    0    0 -0.32131089298E+02  0.14898715961E+01 -0.22661888654E+02  0.39347017860E+02  0.51100000000E-03 0. -1.
        -11    1    3    3    0    0 -0.46706775801E+01 -0.64985361489E+01  0.51497601855E+01  0.95166292019E+01  0.51100000000E-03 0.  1.
        -12    1    3    3    0    0  0.36472685691E+02  0.44699440564E+01  0.18509395445E+02  0.41144075165E+02  0.00000000000E+00 0.  1.
</event>
<event>
 7    1  0.2593256E-015  0.9000770E+02  0.7816164E-02  0.1186339E+00
        -11   -1    0    0    0    0  0.00000000000E+00  0.00000000000E+00  0.45593999997E+02  0.45594000000E+02  0.51100000000E-03 0.  1.
         11   -1    0    0    0    0 -0.00000000000E+00 -0.00000000000E+00 -0.45593999997E+02  0.45594000000E+02  0.51100000000E-03 0. -1.
    9900012    2    1    2    0    0  0.28800140018E+00  0.75643569622E+00 -0.85905125061E+00  0.90007699691E+02  0.89999960527E+02 0.  0.
        -12    1    1    2    0    0 -0.28800140018E+00 -0.75643569622E+00  0.85905125061E+00  0.11803003093E+01  0.00000000000E+00 0.  1.
         11    1    3    3    0    0 -0.14329608310E+01  0.34999708357E+02 -0.21396474350E+02  0.41046827851E+02  0.51100000000E-03 0. -1.
        -11    1    3    3    0    0  0.55881693299E+01  0.18701013606E+01  0.91764692338E+01  0.10905617975E+02  0.51100000000E-03 0.  1.
        -12    1    3    3    0    0 -0.38672070988E+01 -0.36113374021E+02  0.11360953866E+02  0.38055253864E+02  0.00000000000E+00 0.  1.
</event>
<event>
 7    1  0.2593256E-015  0.9000770E+02  0.7816164E-02  0.1186339E+00
        -11   -1    0    0    0    0  0.00000000000E+00  0.00000000000E+00  0.45593999997E+02  0.45594000000E+02  0.51100000000E-03 0.  1.
         11   -1    0    0    0    0 -0.00000000000E+00 -0.00000000000E+00 -0.45593999997E+02  0.45594000000E+02  0.51100000000E-03 0. -1.
    9900012    2    1    2    0    0 -0.18197472089E+00 -0.40699520884E+00 -0.10928606971E+01  0.90007701562E+02  0.89999962423E+02 0.  0.
        -12    1    1    2    0    0  0.18197472089E+00  0.40699520884E+00  0.10928606971E+01  0.11802984378E+01  0.00000000000E+00 0.  1.
         11    1    3    3    0    0  0.16819491327E+02 -0.53748294711E+01 -0.20723960357E+02  0.27226211883E+02  0.51100000000E-03 0. -1.
        -11    1    3    3    0    0 -0.29731442622E+01 -0.13455157907E+01 -0.20002561898E+02  0.20267029439E+02  0.51100000000E-03 0.  1.
        -12    1    3    3    0    0 -0.14028321786E+02  0.63133500530E+01  0.39633661558E+02  0.42514460240E+02  0.00000000000E+00 0.  1.
</event>
<event>
 7    1  0.2593256E-015  0.9000768E+02  0.7816164E-02  0.1186339E+00
        -11   -1    0    0    0    0  0.00000000000E+00  0.00000000000E+00  0.45593999997E+02  0.45594000000E+02  0.51100000000E-03 0. -1.
         11   -1    0    0    0    0 -0.00000000000E+00 -0.00000000000E+00 -0.45593999997E+02  0.45594000000E+02  0.51100000000E-03 0.  1.
    9900012    2    1    2    0    0 -0.19565120065E+00 -0.11598929171E+01  0.97625502404E-01  0.90007677286E+02  0.89999937826E+02 0.  0.
        -12    1    1    2    0    0  0.19565120065E+00  0.11598929171E+01 -0.97625502404E-01  0.11803227144E+01  0.00000000000E+00 0.  1.
         11    1    3    3    0    0 -0.56792709405E+01  0.60934941499E+01  0.44041631792E+01  0.94223905109E+01  0.51100000000E-03 0. -1.
        -11    1    3    3    0    0 -0.48458649446E+01  0.35808520951E+02 -0.33725352261E+01  0.36291962937E+02  0.51100000000E-03 0.  1.
         12    1    3    3    0    0  0.10329484684E+02 -0.43061908018E+02 -0.93400245070E+00  0.44293323837E+02  0.00000000000E+00 0. -1.
</event>
<event>
 7    1  0.2593256E-015  0.9000778E+02  0.7816164E-02  0.1186339E+00
        -11   -1    0    0    0    0  0.00000000000E+00  0.00000000000E+00  0.45593999997E+02  0.45594000000E+02  0.51100000000E-03 0. -1.
         11   -1    0    0    0    0 -0.00000000000E+00 -0.00000000000E+00 -0.45593999997E+02  0.45594000000E+02  0.51100000000E-03 0.  1.
    9900012    2    1    2    0    0 -0.53590014982E+00 -0.33459333159E-01  0.10510089551E+01  0.90007776156E+02  0.90000038002E+02 0.  0.
        -12    1    1    2    0    0  0.53590014982E+00  0.33459333159E-01 -0.10510089551E+01  0.11802238437E+01  0.00000000000E+00 0.  1.
         11    1    3    3    0    0  0.15711896350E+02  0.17834524494E+02 -0.25696313586E+02  0.35003349597E+02  0.51100000000E-03 0. -1.
        -11    1    3    3    0    0  0.51011577048E+01  0.97515659557E+01 -0.35281869868E-01  0.11005275716E+02  0.51100000000E-03 0.  1.
        -12    1    3    3    0    0 -0.21348954205E+02 -0.27619549783E+02  0.26782604411E+02  0.43999150843E+02  0.00000000000E+00 0.  1.
</event>
<event>
 7    1  0.2593256E-015  0.9000773E+02  0.7816164E-02  0.1186339E+00
        -11   -1    0    0    0    0  0.00000000000E+00  0.00000000000E+00  0.45593999997E+02  0.45594000000E+02  0.51100000000E-03 0.  1.
         11   -1    0    0    0    0 -0.00000000000E+00 -0.00000000000E+00 -0.45593999997E+02  0.45594000000E+02  0.51100000000E-03 0. -1.
    9900012    2    1    2    0    0 -0.33806529330E+00  0.76851292628E-01 -0.11282025246E+01  0.90007730878E+02  0.89999992126E+02 0.  0.
        -12    1    1    2    0    0  0.33806529330E+00 -0.76851292628E-01  0.11282025246E+01  0.11802691220E+01  0.00000000000E+00 0.  1.
         11    1    3    3    0    0  0.17680659978E+02 -0.30519154712E+02  0.61095093966E+01  0.35795958528E+02  0.51100000000E-03 0. -1.
        -11    1    3    3    0    0  0.89983943237E+01 -0.31632790992E+01  0.25616660344E+01  0.98762122394E+01  0.51100000000E-03 0.  1.
        -12    1    3    3    0    0 -0.27017119595E+02  0.33759285104E+02 -0.97993779556E+01  0.44335560110E+02  0.00000000000E+00 0.  1.
</event>
<event>
 7    1  0.2593256E-015  0.9000814E+02  0.7816164E-02  0.1186338E+00
        -11   -1    0    0    0    0  0.00000000000E+00  0.00000000000E+00  0.45593999997E+02  0.45594000000E+02  0.51100000000E-03 0.  1.
         11   -1    0    0    0    0 -0.00000000000E+00 -0.00000000000E+00 -0.45593999997E+02  0.45594000000E+02  0.51100000000E-03 0. -1.
    9900012    2    1    2    0    0  0.11483684566E+01 -0.15195504132E+00 -0.22410570744E+00  0.90008142460E+02  0.90000409139E+02 0.  0.
        -12    1    1    2    0    0 -0.11483684566E+01  0.15195504132E+00  0.22410570744E+00  0.11798575401E+01  0.00000000000E+00 0.  1.
         11    1    3    3    0    0  0.24304484651E+01  0.66946822240E+01 -0.52903420602E+01  0.88720667940E+01  0.51100000000E-03 0. -1.
        -11    1    3    3    0    0  0.14791949941E+02 -0.35395120502E+02 -0.16661205560E+02  0.41823583173E+02  0.51100000000E-03 0.  1.
         12    1    3    3    0    0 -0.16074029949E+02  0.28548483237E+02  0.21727441913E+02  0.39312492493E+02  0.00000000000E+00 0. -1.
</event>
<event>
 7    1  0.2593256E-015  0.9000777E+02  0.7816164E-02  0.1186339E+00
        -11   -1    0    0    0    0  0.00000000000E+00  0.00000000000E+00  0.45593999997E+02  0.45594000000E+02  0.51100000000E-03 0.  1.
         11   -1    0    0    0    0 -0.00000000000E+00 -0.00000000000E+00 -0.45593999997E+02  0.45594000000E+02  0.51100000000E-03 0. -1.
    9900012    2    1    2    0    0  0.70205117575E+00  0.27217453026E+00 -0.90883590355E+00  0.90007772256E+02  0.90000034050E+02 0.  0.
        -12    1    1    2    0    0 -0.70205117575E+00 -0.27217453026E+00  0.90883590355E+00  0.11802277441E+01  0.00000000000E+00 0.  1.
         11    1    3    3    0    0 -0.23251560597E+00 -0.18452108252E+02  0.12271579902E+02  0.22161363587E+02  0.51100000000E-03 0. -1.
        -11    1    3    3    0    0  0.21996074409E+02  0.29418383968E+02  0.62503488912E+01  0.37260373941E+02  0.51100000000E-03 0.  1.
         12    1    3    3    0    0 -0.21061507627E+02 -0.10694101185E+02 -0.19430764697E+02  0.30586034728E+02  0.00000000000E+00 0. -1.
</event>
<event>
 7    1  0.2593256E-015  0.9000783E+02  0.7816164E-02  0.1186339E+00
        -11   -1    0    0    0    0  0.00000000000E+00  0.00000000000E+00  0.45593999997E+02  0.45594000000E+02  0.51100000000E-03 0.  1.
         11   -1    0    0    0    0 -0.00000000000E+00 -0.00000000000E+00 -0.45593999997E+02  0.45594000000E+02  0.51100000000E-03 0. -1.
    9900012    2    1    2    0    0  0.51969364120E+00  0.74532097247E+00 -0.75314252124E+00  0.90007826924E+02  0.90000089439E+02 0.  0.
        -12    1    1    2    0    0 -0.51969364120E+00 -0.74532097247E+00  0.75314252124E+00  0.11801730763E+01  0.00000000000E+00 0.  1.
         11    1    3    3    0    0  0.13623790728E+02  0.31334439608E+02  0.18121534010E+02  0.38676152529E+02  0.51100000000E-03 0. -1.
        -11    1    3    3    0    0  0.59317302944E+01  0.34320565004E+01 -0.86363570188E+01  0.11025021493E+02  0.51100000000E-03 0.  1.
        -12    1    3    3    0    0 -0.19035827381E+02 -0.34021175135E+02 -0.10238319512E+02  0.40306652901E+02  0.00000000000E+00 0.  1.
</event>
<event>
 7    1  0.2593256E-015  0.9000769E+02  0.7816164E-02  0.1186339E+00
        -11   -1    0    0    0    0  0.00000000000E+00  0.00000000000E+00  0.45593999997E+02  0.45594000000E+02  0.51100000000E-03 0. -1.
         11   -1    0    0    0    0 -0.00000000000E+00 -0.00000000000E+00 -0.45593999997E+02  0.45594000000E+02  0.51100000000E-03 0.  1.
    9900012    2    1    2    0    0  0.60679445351E+00 -0.56932672826E+00  0.83714114170E+00  0.90007687447E+02  0.89999948121E+02 0.  0.
        -12    1    1    2    0    0 -0.60679445351E+00  0.56932672826E+00 -0.83714114170E+00  0.11803125533E+01  0.00000000000E+00 0.  1.
         11    1    3    3    0    0 -0.32623824492E+01  0.90746656950E+01 -0.32769739254E+01  0.10184854201E+02  0.51100000000E-03 0. -1.
        -11    1    3    3    0    0 -0.36832090474E+02 -0.94141737795E+01 -0.43054680141E+01  0.38259202968E+02  0.51100000000E-03 0.  1.
         12    1    3    3    0    0  0.40701267377E+02 -0.22981864370E+00  0.84195830812E+01  0.41563630279E+02  0.00000000000E+00 0. -1.
</event>
<event>
 7    1  0.2593256E-015  0.9000773E+02  0.7816164E-02  0.1186339E+00
        -11   -1    0    0    0    0  0.00000000000E+00  0.00000000000E+00  0.45593999997E+02  0.45594000000E+02  0.51100000000E-03 0. -1.
         11   -1    0    0    0    0 -0.00000000000E+00 -0.00000000000E+00 -0.45593999997E+02  0.45594000000E+02  0.51100000000E-03 0.  1.
    9900012    2    1    2    0    0 -0.45002672653E+00  0.41561841657E+00  0.10088492079E+01  0.90007729079E+02  0.89999990303E+02 0.  0.
        -12    1    1    2    0    0  0.45002672653E+00 -0.41561841657E+00 -0.10088492079E+01  0.11802709210E+01  0.00000000000E+00 0.  1.
         11    1    3    3    0    0  0.12509480821E+02  0.20725878267E+02  0.22278344503E+02  0.32899449454E+02  0.51100000000E-03 0. -1.
        -11    1    3    3    0    0  0.11113817374E+02  0.94726700042E+01 -0.43128405586E+01  0.15226588836E+02  0.51100000000E-03 0.  1.
        -12    1    3    3    0    0 -0.24073324922E+02 -0.29782929854E+02 -0.16956654737E+02  0.41881690789E+02  0.00000000000E+00 0.  1.
</event>
<event>
 7    1  0.2764853E-015  0.9000762E+02  0.7816164E-02  0.1186339E+00
        -11   -1    0    0    0    0  0.00000000000E+00  0.00000000000E+00  0.45593999997E+02  0.45594000000E+02  0.51100000000E-03 0.  1.
         11   -1    0    0    0    0 -0.00000000000E+00 -0.00000000000E+00 -0.45593999997E+02  0.45594000000E+02  0.51100000000E-03 0. -1.
    9900012    2    1    2    0    0 -0.12405605596E+00 -0.11592283122E+01 -0.18467110837E+00  0.90007617179E+02  0.89999876926E+02 0.  0.
        -12    1    1    2    0    0  0.12405605596E+00  0.11592283122E+01  0.18467110837E+00  0.11803828206E+01  0.00000000000E+00 0.  1.
         11    1    3    3    0    0 -0.12523213641E+02  0.16170892010E+02 -0.37574310476E+02  0.42780339366E+02  0.51100000000E-03 0. -1.
        -11    1    3    3    0    0  0.95815580356E+00  0.41458746668E+01  0.80894495578E+01  0.91403245952E+01  0.51100000000E-03 0.  1.
        -12    1    3    3    0    0  0.11441001781E+02 -0.21475994989E+02  0.29300189810E+02  0.38086953218E+02  0.00000000000E+00 0.  1.
</event>
<event>
 7    1  0.2593256E-015  0.9000791E+02  0.7816164E-02  0.1186339E+00
        -11   -1    0    0    0    0  0.00000000000E+00  0.00000000000E+00  0.45593999997E+02  0.45594000000E+02  0.51100000000E-03 0.  1.
         11   -1    0    0    0    0 -0.00000000000E+00 -0.00000000000E+00 -0.45593999997E+02  0.45594000000E+02  0.51100000000E-03 0. -1.
    9900012    2    1    2    0    0  0.98126933073E-01 -0.14681505253E+00 -0.11668074836E+01  0.90007905403E+02  0.90000168954E+02 0.  0.
        -12    1    1    2    0    0 -0.98126933073E-01  0.14681505253E+00  0.11668074836E+01  0.11800945972E+01  0.00000000000E+00 0.  1.
         11    1    3    3    0    0  0.89110338123E+01  0.11096706227E+02 -0.34072599042E+02  0.36925403429E+02  0.51100000000E-03 0. -1.
        -11    1    3    3    0    0 -0.26473022870E+01 -0.10260497460E+01 -0.90383324135E+01  0.94737764676E+01  0.51100000000E-03 0.  1.
        -12    1    3    3    0    0 -0.61656045922E+01 -0.10217471534E+02  0.41944123971E+02  0.43608725506E+02  0.00000000000E+00 0.  1.
</event>
<event>
 7    1  0.2593256E-015  0.9000770E+02  0.7816164E-02  0.1186339E+00
        -11   -1    0    0    0    0  0.00000000000E+00  0.00000000000E+00  0.45593999997E+02  0.45594000000E+02  0.51100000000E-03 0. -1.
         11   -1    0    0    0    0 -0.00000000000E+00 -0.00000000000E+00 -0.45593999997E+02  0.45594000000E+02  0.51100000000E-03 0.  1.
    9900012    2    1    2    0    0 -0.84059830561E+00  0.43715570061E+00  0.70384586688E+00  0.90007699351E+02  0.89999960182E+02 0.  0.
        -12    1    1    2    0    0  0.84059830561E+00 -0.43715570061E+00 -0.70384586688E+00  0.11803006491E+01  0.00000000000E+00 0.  1.
         11    1    3    3    0    0  0.47018520477E+01  0.28346115351E+01  0.10150020879E+02  0.11539729604E+02  0.51100000000E-03 0. -1.
        -11    1    3    3    0    0  0.20644743741E+02  0.44362268352E+01 -0.35239219383E+02  0.41081481663E+02  0.51100000000E-03 0.  1.
         12    1    3    3    0    0 -0.26187194094E+02 -0.68336826697E+01  0.25793044371E+02  0.37386488084E+02  0.00000000000E+00 0. -1.
</event>
<event>
 7    1  0.3178458E-015  0.9000778E+02  0.7816164E-02  0.1186339E+00
        -11   -1    0    0    0    0  0.00000000000E+00  0.00000000000E+00  0.45593999997E+02  0.45594000000E+02  0.51100000000E-03 0. -1.
         11   -1    0    0    0    0 -0.00000000000E+00 -0.00000000000E+00 -0.45593999997E+02  0.45594000000E+02  0.51100000000E-03 0.  1.
    9900012    2    1    2    0    0 -0.88933542958E+00  0.74441294078E+00  0.21873019700E+00  0.90007783481E+02  0.90000045423E+02 0.  0.
        -12    1    1    2    0    0  0.88933542958E+00 -0.74441294078E+00 -0.21873019700E+00  0.11802165190E+01  0.00000000000E+00 0.  1.
         11    1    3    3    0    0 -0.81963596385E+01  0.25298357374E+02  0.25540355919E+02  0.36871357147E+02  0.51100000000E-03 0. -1.
        -11    1    3    3    0    0 -0.39730459177E+01  0.84501485297E+01  0.10694143363E+01  0.93986036900E+01  0.51100000000E-03 0.  1.
        -12    1    3    3    0    0  0.11280070127E+02 -0.33004092962E+02 -0.26391040058E+02  0.43737822644E+02  0.00000000000E+00 0.  1.
</event>
<event>
 7    1  0.2593256E-015  0.9000766E+02  0.7816164E-02  0.1186339E+00
        -11   -1    0    0    0    0  0.00000000000E+00  0.00000000000E+00  0.45593999997E+02  0.45594000000E+02  0.51100000000E-03 0. -1.
         11   -1    0    0    0    0 -0.00000000000E+00 -0.00000000000E+00 -0.45593999997E+02  0.45594000000E+02  0.51100000000E-03 0.  1.
    9900012    2    1    2    0    0  0.73329814194E+00  0.88284303006E+00  0.27580863632E+00  0.90007657514E+02  0.89999917793E+02 0.  0.
        -12    1    1    2    0    0 -0.73329814194E+00 -0.88284303006E+00 -0.27580863632E+00  0.11803424861E+01  0.00000000000E+00 0.  1.
         11    1    3    3    0    0 -0.37265476333E+02  0.16363641403E+02  0.19999653157E+01  0.40749041066E+02  0.51100000000E-03 0. -1.
        -11    1    3    3    0    0 -0.84031092829E+00 -0.11267510185E+01 -0.73395254390E+01  0.74729060107E+01  0.51100000000E-03 0.  1.
        -12    1    3    3    0    0  0.38839085403E+02 -0.14354047354E+02  0.56153687596E+01  0.41785710437E+02  0.00000000000E+00 0.  1.
</event>
<event>
 7    1  0.2593256E-015  0.9000772E+02  0.7816164E-02  0.1186339E+00
        -11   -1    0    0    0    0  0.00000000000E+00  0.00000000000E+00  0.45593999997E+02  0.45594000000E+02  0.51100000000E-03 0.  1.
         11   -1    0    0    0    0 -0.00000000000E+00 -0.00000000000E+00 -0.45593999997E+02  0.45594000000E+02  0.51100000000E-03 0. -1.
    9900012    2    1    2    0    0  0.60198449899E+00  0.10105515305E+01 -0.97225740568E-01  0.90007723517E+02  0.89999984667E+02 0.  0.
        -12    1    1    2    0    0 -0.60198449899E+00 -0.10105515305E+01  0.97225740568E-01  0.11802764835E+01  0.00000000000E+00 0.  1.
         11    1    3    3    0    0 -0.10421408833E+02 -0.57463113423E+01  0.39285762979E+01  0.12532340887E+02  0.51100000000E-03 0. -1.
        -11    1    3    3    0    0  0.75269021956E+01  0.17594732495E+02  0.33323991166E+02  0.38428079001E+02  0.51100000000E-03 0.  1.
         12    1    3    3    0    0  0.34964911365E+01 -0.10837869622E+02 -0.37349793205E+02  0.39047303628E+02  0.00000000000E+00 0. -1.
</event>
<event>
 7    1  0.2593256E-015  0.9000770E+02  0.7816164E-02  0.1186339E+00
        -11   -1    0    0    0    0  0.00000000000E+00  0.00000000000E+00  0.45593999997E+02  0.45594000000E+02  0.51100000000E-03 0. -1.
         11   -1    0    0    0    0 -0.00000000000E+00 -0.00000000000E+00 -0.45593999997E+02  0.45594000000E+02  0.51100000000E-03 0.  1.
    9900012    2    1    2    0    0 -0.43770001888E+00 -0.51834764207E+00  0.96583824707E+00  0.90007699570E+02  0.89999960405E+02 0.  0.
        -12    1    1    2    0    0  0.43770001888E+00  0.51834764207E+00 -0.96583824707E+00  0.11803004296E+01  0.00000000000E+00 0.  1.
         11    1    3    3    0    0  0.43281074300E+01  0.26016504130E+01 -0.46204733323E+01  0.68446966970E+01  0.51100000000E-03 0. -1.
        -11    1    3    3    0    0  0.55751867488E+01 -0.34664593065E+01 -0.37899147669E+02  0.38463546921E+02  0.51100000000E-03 0.  1.
         12    1    3    3    0    0 -0.10340994198E+02  0.34646125140E+00  0.43485459249E+02  0.44699455953E+02  0.00000000000E+00 0. -1.
</event>
<event>
 7    1  0.2593256E-015  0.9000788E+02  0.7816164E-02  0.1186339E+00
        -11   -1    0    0    0    0  0.00000000000E+00  0.00000000000E+00  0.45593999997E+02  0.45594000000E+02  0.51100000000E-03 0. -1.
         11   -1    0    0    0    0 -0.00000000000E+00 -0.00000000000E+00 -0.45593999997E+02  0.45594000000E+02  0.51100000000E-03 0.  1.
    9900012    2    1    2    0    0  0.63996796333E+00 -0.58753666639E+00  0.79870447713E+00  0.90007878324E+02  0.90000141518E+02 0.  0.
        -12    1    1    2    0    0 -0.63996796333E+00  0.58753666639E+00 -0.79870447713E+00  0.11801216760E+01  0.00000000000E+00 0.  1.
         11    1    3    3    0    0 -0.99016697183E+00 -0.50066678293E+00 -0.99588711747E+01  0.10020489668E+02  0.51100000000E-03 0. -1.
        -11    1    3    3    0    0 -0.30744015063E+02 -0.26861748052E+01 -0.18746530265E+02  0.36108757864E+02  0.51100000000E-03 0.  1.
         12    1    3    3    0    0  0.32374149998E+02  0.25993049218E+01  0.29504105917E+02  0.43878630791E+02  0.00000000000E+00 0. -1.
</event>
<event>
 7    1  0.2593256E-015  0.9000772E+02  0.7816164E-02  0.1186339E+00
        -11   -1    0    0    0    0  0.00000000000E+00  0.00000000000E+00  0.45593999997E+02  0.45594000000E+02  0.51100000000E-03 0.  1.
         11   -1    0    0    0    0 -0.00000000000E+00 -0.00000000000E+00 -0.45593999997E+02  0.45594000000E+02  0.51100000000E-03 0. -1.
    9900012    2    1    2    0    0  0.34894991472E+00 -0.11262036774E+01 -0.54315726289E-01  0.90007724200E+02  0.89999985359E+02 0.  0.
        -12    1    1    2    0    0 -0.34894991472E+00  0.11262036774E+01  0.54315726289E-01  0.11802758000E+01  0.00000000000E+00 0.  1.
         11    1    3    3    0    0 -0.12628609390E+02  0.35643856413E+02 -0.12187036615E+02  0.39730216924E+02  0.51100000000E-03 0. -1.
        -11    1    3    3    0    0  0.71580063270E+00 -0.38468246059E+01 -0.86249366962E+01  0.94710064602E+01  0.51100000000E-03 0.  1.
        -12    1    3    3    0    0  0.12261758672E+02 -0.32923235484E+02  0.20757657585E+02  0.40806500816E+02  0.00000000000E+00 0.  1.
</event>
<event>
 7    1  0.2593256E-015  0.9000753E+02  0.7816164E-02  0.1186339E+00
        -11   -1    0    0    0    0  0.00000000000E+00  0.00000000000E+00  0.45593999997E+02  0.45594000000E+02  0.51100000000E-03 0.  1.
         11   -1    0    0    0    0 -0.00000000000E+00 -0.00000000000E+00 -0.45593999997E+02  0.45594000000E+02  0.51100000000E-03 0. -1.
    9900012    2    1    2    0    0 -0.94169867405E+00  0.27301538952E+00 -0.65739878610E+00  0.90007531043E+02  0.89999789652E+02 0.  0.
        -12    1    1    2    0    0  0.94169867405E+00 -0.27301538952E+00  0.65739878610E+00  0.11804689575E+01  0.00000000000E+00 0.  1.
         11    1    3    3    0    0 -0.14448132231E+02  0.97918517690E+01 -0.47874557733E+01  0.18098304315E+02  0.51100000000E-03 0. -1.
        -11    1    3    3    0    0 -0.21947224395E+02 -0.28558521848E+01 -0.18905323467E+02  0.29107521468E+02  0.51100000000E-03 0.  1.
         12    1    3    3    0    0  0.35453657952E+02 -0.66629841947E+01  0.23035380454E+02  0.42801705260E+02  0.00000000000E+00 0. -1.
</event>
<event>
 7    1  0.2593256E-015  0.9000774E+02  0.7816164E-02  0.1186339E+00
        -11   -1    0    0    0    0  0.00000000000E+00  0.00000000000E+00  0.45593999997E+02  0.45594000000E+02  0.51100000000E-03 0.  1.
         11   -1    0    0    0    0 -0.00000000000E+00 -0.00000000000E+00 -0.45593999997E+02  0.45594000000E+02  0.51100000000E-03 0. -1.
    9900012    2    1    2    0    0 -0.80827190414E+00  0.85749459800E+00 -0.66515631493E-01  0.90007735290E+02  0.89999996596E+02 0.  0.
        -12    1    1    2    0    0  0.80827190414E+00 -0.85749459800E+00  0.66515631493E-01  0.11802647101E+01  0.00000000000E+00 0.  1.
         11    1    3    3    0    0  0.14349952095E+01 -0.21183996382E+00 -0.10345781366E+02  0.10446974670E+02  0.51100000000E-03 0. -1.
        -11    1    3    3    0    0 -0.28077226307E+02  0.28512975184E+02 -0.15835160279E+01  0.40047820343E+02  0.51100000000E-03 0.  1.
         12    1    3    3    0    0  0.25833959193E+02 -0.27443640622E+02  0.11862781762E+02  0.39512940277E+02  0.00000000000E+00 0. -1.
</event>
<event>
 7    1  0.2593256E-015  0.9000769E+02  0.7816164E-02  0.1186339E+00
        -11   -1    0    0    0    0  0.00000000000E+00  0.00000000000E+00  0.45593999997E+02  0.45594000000E+02  0.51100000000E-03 0.  1.
         11   -1    0    0    0    0 -0.00000000000E+00 -0.00000000000E+00 -0.45593999997E+02  0.45594000000E+02  0.51100000000E-03 0. -1.
    9900012    2    1    2    0    0  0.36309352015E+00 -0.10868626506E+01 -0.28290598447E+00  0.90007685160E+02  0.89999945804E+02 0.  0.
        -12    1    1    2    0    0 -0.36309352015E+00  0.10868626506E+01  0.28290598447E+00  0.11803148401E+01  0.00000000000E+00 0.  1.
         11    1    3    3    0    0 -0.10419007969E+02  0.41078484000E+00  0.72017936412E+01  0.12672422939E+02  0.51100000000E-03 0. -1.
        -11    1    3    3    0    0  0.29843267229E+02 -0.17325619126E+01  0.25464489925E+02  0.39269105122E+02  0.51100000000E-03 0.  1.
         12    1    3    3    0    0 -0.19061165740E+02  0.23491442199E+00 -0.32949189551E+02  0.38066157098E+02  0.00000000000E+00 0. -1.
</event>
<event>
 7    1  0.2593256E-015  0.9000781E+02  0.7816164E-02  0.1186339E+00
        -11   -1    0    0    0    0  0.00000000000E+00  0.00000000000E+00  0.45593999997E+02  0.45594000000E+02  0.51100000000E-03 0. -1.
         11   -1    0    0    0    0 -0.00000000000E+00 -0.00000000000E+00 -0.45593999997E+02  0.45594000000E+02  0.51100000000E-03 0.  1.
    9900012    2    1    2    0    0  0.66557148426E-01  0.78287393636E+00  0.88063665581E+00  0.90007812568E+02  0.90000074894E+02 0.  0.
        -12    1    1    2    0    0 -0.66557148426E-01 -0.78287393636E+00 -0.88063665581E+00  0.11801874316E+01  0.00000000000E+00 0.  1.
         11    1    3    3    0    0 -0.85502514942E+01 -0.75084725969E+00  0.38080444107E+02  0.39035763037E+02  0.51100000000E-03 0. -1.
        -11    1    3    3    0    0 -0.10003241206E+02  0.80352225076E+01 -0.62492692576E+01  0.14271755389E+02  0.51100000000E-03 0.  1.
        -12    1    3    3    0    0  0.18620049849E+02 -0.65015013116E+01 -0.30950538193E+02  0.36700294142E+02  0.00000000000E+00 0.  1.
</event>
<event>
 7    1  0.2593256E-015  0.9000801E+02  0.7816164E-02  0.1186339E+00
        -11   -1    0    0    0    0  0.00000000000E+00  0.00000000000E+00  0.45593999997E+02  0.45594000000E+02  0.51100000000E-03 0. -1.
         11   -1    0    0    0    0 -0.00000000000E+00 -0.00000000000E+00 -0.45593999997E+02  0.45594000000E+02  0.51100000000E-03 0.  1.
    9900012    2    1    2    0    0  0.11478765327E+01 -0.26896115743E+00  0.49239065893E-01  0.90008006303E+02  0.90000271186E+02 0.  0.
        -12    1    1    2    0    0 -0.11478765327E+01  0.26896115743E+00 -0.49239065893E-01  0.11799936967E+01  0.00000000000E+00 0.  1.
         11    1    3    3    0    0  0.22243030481E+02  0.29111781936E+02  0.16455239493E+02  0.40162459580E+02  0.51100000000E-03 0. -1.
        -11    1    3    3    0    0  0.46366067077E+01 -0.60298995742E+01  0.49356800761E+01  0.90674554706E+01  0.51100000000E-03 0.  1.
        -12    1    3    3    0    0 -0.25731760656E+02 -0.23350843519E+02 -0.21341680503E+02  0.40778091253E+02  0.00000000000E+00 0.  1.
</event>
<event>
 7    1  0.2593256E-015  0.9000762E+02  0.7816164E-02  0.1186339E+00
        -11   -1    0    0    0    0  0.00000000000E+00  0.00000000000E+00  0.45593999997E+02  0.45594000000E+02  0.51100000000E-03 0.  1.
         11   -1    0    0    0    0 -0.00000000000E+00 -0.00000000000E+00 -0.45593999997E+02  0.45594000000E+02  0.51100000000E-03 0. -1.
    9900012    2    1    2    0    0  0.11973313038E+00 -0.10601921806E+01  0.50491899974E+00  0.90007624349E+02  0.89999884190E+02 0.  0.
        -12    1    1    2    0    0 -0.11973313038E+00  0.10601921806E+01 -0.50491899974E+00  0.11803756515E+01  0.00000000000E+00 0.  1.
         11    1    3    3    0    0 -0.29313486234E+01 -0.67235037822E+01  0.67995429331E+01  0.10001604482E+02  0.51100000000E-03 0. -1.
        -11    1    3    3    0    0  0.28505259183E+02 -0.47247912571E+01  0.25101091449E+02  0.38274511698E+02  0.51100000000E-03 0.  1.
         12    1    3    3    0    0 -0.25454177429E+02  0.10388102859E+02 -0.31395715383E+02  0.41731508168E+02  0.00000000000E+00 0. -1.
</event>
<event>
 7    1  0.2593256E-015  0.9000773E+02  0.7816164E-02  0.1186339E+00
        -11   -1    0    0    0    0  0.00000000000E+00  0.00000000000E+00  0.45593999997E+02  0.45594000000E+02  0.51100000000E-03 0. -1.
         11   -1    0    0    0    0 -0.00000000000E+00 -0.00000000000E+00 -0.45593999997E+02  0.45594000000E+02  0.51100000000E-03 0.  1.
    9900012    2    1    2    0    0 -0.10391055224E+01  0.39953245827E+00  0.39200680946E+00  0.90007730619E+02  0.89999991864E+02 0.  0.
        -12    1    1    2    0    0  0.10391055224E+01 -0.39953245827E+00 -0.39200680946E+00  0.11802693805E+01  0.00000000000E+00 0.  1.
         11    1    3    3    0    0 -0.12112274015E+02  0.87499378774E+01  0.59004347935E+01  0.16064984460E+02  0.51100000000E-03 0. -1.
        -11    1    3    3    0    0 -0.65534664140E+01  0.22066885643E+02 -0.24804157152E+02  0.33839940549E+02  0.51100000000E-03 0.  1.
         12    1    3    3    0    0  0.17626634907E+02 -0.30417291063E+02  0.19295729168E+02  0.40102805611E+02  0.00000000000E+00 0. -1.
</event>
<event>
 7    1  0.2593256E-015  0.9000758E+02  0.7816164E-02  0.1186339E+00
        -11   -1    0    0    0    0  0.00000000000E+00  0.00000000000E+00  0.45593999997E+02  0.45594000000E+02  0.51100000000E-03 0.  1.
         11   -1    0    0    0    0 -0.00000000000E+00 -0.00000000000E+00 -0.45593999997E+02  0.45594000000E+02  0.51100000000E-03 0. -1.
    9900012    2    1    2    0    0  0.28939088028E-01  0.97735301052E+00  0.66131707621E+00  0.90007577765E+02  0.89999836991E+02 0.  0.
        -12    1    1    2    0    0 -0.28939088028E-01 -0.97735301052E+00 -0.66131707621E+00  0.11804222352E+01  0.00000000000E+00 0.  1.
         11    1    3    3    0    0  0.33314457030E+02  0.27863643213E+02 -0.10511378691E+02  0.44684726054E+02  0.51100000000E-03 0. -1.
        -11    1    3    3    0    0 -0.41059937883E+01 -0.70539085287E+01  0.48058806255E+01  0.94717104775E+01  0.51100000000E-03 0.  1.
        -12    1    3    3    0    0 -0.29179524153E+02 -0.19832381674E+02  0.63668151419E+01  0.35851141233E+02  0.00000000000E+00 0.  1.
</event>
<event>
 7    1  0.2593256E-015  0.9000776E+02  0.7816164E-02  0.1186339E+00
        -11   -1    0    0    0    0  0.00000000000E+00  0.00000000000E+00  0.45593999997E+02  0.45594000000E+02  0.51100000000E-03 0. -1.
         11   -1    0    0    0    0 -0.00000000000E+00 -0.00000000000E+00 -0.45593999997E+02  0.45594000000E+02  0.51100000000E-03 0.  1.
    9900012    2    1    2    0    0 -0.11358688912E+01 -0.13634184848E+00  0.29014259448E+00  0.90007758515E+02  0.90000020127E+02 0.  0.
        -12    1    1    2    0    0  0.11358688912E+01  0.13634184848E+00 -0.29014259448E+00  0.11802414850E+01  0.00000000000E+00 0.  1.
         11    1    3    3    0    0  0.89985920055E+01 -0.10976680335E+02  0.40851576653E+02  0.43247121113E+02  0.51100000000E-03 0. -1.
        -11    1    3    3    0    0 -0.62114660340E+01 -0.34945428344E+01 -0.67025212435E+01  0.97835541187E+01  0.51100000000E-03 0.  1.
        -12    1    3    3    0    0 -0.39229948626E+01  0.14334881320E+02 -0.33858912815E+02  0.36977083284E+02  0.00000000000E+00 0.  1.
</event>
<event>
 7    1  0.2593256E-015  0.9000778E+02  0.7816164E-02  0.1186339E+00
        -11   -1    0    0    0    0  0.00000000000E+00  0.00000000000E+00  0.45593999997E+02  0.45594000000E+02  0.51100000000E-03 0.  1.
         11   -1    0    0    0    0 -0.00000000000E+00 -0.00000000000E+00 -0.45593999997E+02  0.45594000000E+02  0.51100000000E-03 0. -1.
    9900012    2    1    2    0    0 -0.10891631327E+00  0.45520819611E+00 -0.10834375344E+01  0.90007782157E+02  0.90000044082E+02 0.  0.
        -12    1    1    2    0    0  0.10891631327E+00 -0.45520819611E+00  0.10834375344E+01  0.11802178426E+01  0.00000000000E+00 0.  1.
         11    1    3    3    0    0 -0.94102099469E+01  0.88774262469E+01  0.99826633157E+01  0.16340572669E+02  0.51100000000E-03 0. -1.
        -11    1    3    3    0    0 -0.27702074650E+02 -0.50267101483E+01 -0.21092955837E+02  0.35179334005E+02  0.51100000000E-03 0.  1.
         12    1    3    3    0    0  0.37003368284E+02 -0.33955079025E+01  0.10026854987E+02  0.38487875483E+02  0.00000000000E+00 0. -1.
</event>
<event>
 7    1  0.2593256E-015  0.9000772E+02  0.7816164E-02  0.1186339E+00
        -11   -1    0    0    0    0  0.00000000000E+00  0.00000000000E+00  0.45593999997E+02  0.45594000000E+02  0.51100000000E-03 0. -1.
         11   -1    0    0    0    0 -0.00000000000E+00 -0.00000000000E+00 -0.45593999997E+02  0.45594000000E+02  0.51100000000E-03 0.  1.
    9900012    2    1    2    0    0  0.61107778736E+00  0.12445074676E+00  0.10020817505E+01  0.90007715337E+02  0.89999976380E+02 0.  0.
        -12    1    1    2    0    0 -0.61107778736E+00 -0.12445074676E+00 -0.10020817505E+01  0.11802846628E+01  0.00000000000E+00 0.  1.
         11    1    3    3    0    0  0.70964973154E+01  0.33915879789E+01 -0.45906003025E+01  0.91069618734E+01  0.51100000000E-03 0. -1.
        -11    1    3    3    0    0  0.27938347079E+02 -0.26878140607E+02 -0.12111796167E+00  0.38768548461E+02  0.51100000000E-03 0.  1.
         12    1    3    3    0    0 -0.34423766607E+02  0.23611003375E+02  0.57138000146E+01  0.42132205002E+02  0.00000000000E+00 0. -1.
</event>
<event>
 7    1  0.2652828E-015  0.9000786E+02  0.7816164E-02  0.1186339E+00
        -11   -1    0    0    0    0  0.00000000000E+00  0.00000000000E+00  0.45593999997E+02  0.45594000000E+02  0.51100000000E-03 0. -1.
         11   -1    0    0    0    0 -0.00000000000E+00 -0.00000000000E+00 -0.45593999997E+02  0.45594000000E+02  0.51100000000E-03 0.  1.
    9900012    2    1    2    0    0  0.12987117981E+00 -0.16729470102E+00  0.11609827846E+01  0.90007858031E+02  0.90000120957E+02 0.  0.
        -12    1    1    2    0    0 -0.12987117981E+00  0.16729470102E+00 -0.11609827846E+01  0.11801419687E+01  0.00000000000E+00 0.  1.
         11    1    3    3    0    0  0.14402711468E+01 -0.31961700684E+02  0.21389991578E+02  0.38485795192E+02  0.51100000000E-03 0. -1.
        -11    1    3    3    0    0 -0.95589487200E+01 -0.18617417384E+01  0.25330631734E+01  0.10062603651E+02  0.51100000000E-03 0.  1.
        -12    1    3    3    0    0  0.82485487530E+01  0.33656147722E+02 -0.22762071966E+02  0.41459459188E+02  0.00000000000E+00 0.  1.
</event>
<event>
 7    1  0.2593256E-015  0.9000779E+02  0.7816164E-02  0.1186339E+00
        -11   -1    0    0    0    0  0.00000000000E+00  0.00000000000E+00  0.45593999997E+02  0.45594000000E+02  0.51100000000E-03 0.  1.
         11   -1    0    0    0    0 -0.00000000000E+00 -0.00000000000E+00 -0.45593999997E+02  0.45594000000E+02  0.51100000000E-03 0. -1.
    9900012    2    1    2    0    0  0.64291506414E+00 -0.79918188207E+00 -0.58384133671E+00  0.90007787237E+02  0.90000049228E+02 0.  0.
        -12    1    1    2    0    0 -0.64291506414E+00  0.79918188207E+00  0.58384133671E+00  0.11802127634E+01  0.00000000000E+00 0.  1.
         11    1    3    3    0    0 -0.68376931821E+01  0.28248854049E+01  0.65545573746E+01  0.98841412496E+01  0.51100000000E-03 0. -1.
        -11    1    3    3    0    0 -0.11291542869E+02  0.24186855828E+02  0.22838451403E+02  0.35129728123E+02  0.51100000000E-03 0.  1.
         12    1    3    3    0    0  0.18772151116E+02 -0.27810923115E+02 -0.29976850115E+02  0.44993917864E+02  0.00000000000E+00 0. -1.
</event>
<event>
 7    1  0.2593256E-015  0.9000780E+02  0.7816164E-02  0.1186339E+00
        -11   -1    0    0    0    0  0.00000000000E+00  0.00000000000E+00  0.45593999997E+02  0.45594000000E+02  0.51100000000E-03 0.  1.
         11   -1    0    0    0    0 -0.00000000000E+00 -0.00000000000E+00 -0.45593999997E+02  0.45594000000E+02  0.51100000000E-03 0. -1.
    9900012    2    1    2    0    0 -0.63863616222E+00 -0.11452787121E+00 -0.98584360783E+00  0.90007804931E+02  0.90000067156E+02 0.  0.
        -12    1    1    2    0    0  0.63863616222E+00  0.11452787121E+00  0.98584360783E+00  0.11801950687E+01  0.00000000000E+00 0.  1.
         11    1    3    3    0    0 -0.51026502024E+01 -0.10447480274E+02 -0.30971659592E+01  0.12032427868E+02  0.51100000000E-03 0. -1.
        -11    1    3    3    0    0 -0.18489708386E+02  0.22258405539E+02 -0.26618081382E+02  0.39317021633E+02  0.51100000000E-03 0.  1.
         12    1    3    3    0    0  0.22953722426E+02 -0.11925453137E+02  0.28729403733E+02  0.38658355431E+02  0.00000000000E+00 0. -1.
</event>
<event>
 7    1  0.2593256E-015  0.9000750E+02  0.7816164E-02  0.1186340E+00
        -11   -1    0    0    0    0  0.00000000000E+00  0.00000000000E+00  0.45593999997E+02  0.45594000000E+02  0.51100000000E-03 0. -1.
         11   -1    0    0    0    0 -0.00000000000E+00 -0.00000000000E+00 -0.45593999997E+02  0.45594000000E+02  0.51100000000E-03 0.  1.
    9900012    2    1    2    0    0 -0.97664220986E+00 -0.45672343840E+00  0.48078563756E+00  0.90007499625E+02  0.89999757820E+02 0.  0.
        -12    1    1    2    0    0  0.97664220986E+00  0.45672343840E+00 -0.48078563756E+00  0.11805003747E+01  0.00000000000E+00 0.  1.
         11    1    3    3    0    0  0.23862209482E+01  0.36405370713E+01 -0.69594501571E+01  0.82086239609E+01  0.51100000000E-03 0. -1.
        -11    1    3    3    0    0  0.17968786662E+02  0.25006526848E+02 -0.19780587444E+02  0.36598843138E+02  0.51100000000E-03 0.  1.
         12    1    3    3    0    0 -0.21331649820E+02 -0.29103787358E+02  0.27220823239E+02  0.45200032527E+02  0.00000000000E+00 0. -1.
</event>
<event>
 7    1  0.2593256E-015  0.9000779E+02  0.7816164E-02  0.1186339E+00
        -11   -1    0    0    0    0  0.00000000000E+00  0.00000000000E+00  0.45593999997E+02  0.45594000000E+02  0.51100000000E-03 0. -1.
         11   -1    0    0    0    0 -0.00000000000E+00 -0.00000000000E+00 -0.45593999997E+02  0.45594000000E+02  0.51100000000E-03 0.  1.
    9900012    2    1    2    0    0 -0.70302823097E+00  0.32612179126E+00  0.89010488144E+00  0.90007792045E+02  0.90000054100E+02 0.  0.
        -12    1    1    2    0    0  0.70302823097E+00 -0.32612179126E+00 -0.89010488144E+00  0.11802079547E+01  0.00000000000E+00 0.  1.
         11    1    3    3    0    0 -0.18965170716E+02  0.35957766475E+02  0.52462676161E+01  0.40989779145E+02  0.51100000000E-03 0. -1.
        -11    1    3    3    0    0 -0.78701925334E+00 -0.26330853314E+01  0.83992917520E+01  0.88374566400E+01  0.51100000000E-03 0.  1.
        -12    1    3    3    0    0  0.19049161739E+02 -0.32998559352E+02 -0.12755454487E+02  0.40180556261E+02  0.00000000000E+00 0.  1.
</event>
<event>
 7    1  0.2593256E-015  0.9000825E+02  0.7816164E-02  0.1186338E+00
        -11   -1    0    0    0    0  0.00000000000E+00  0.00000000000E+00  0.45593999997E+02  0.45594000000E+02  0.51100000000E-03 0.  1.
         11   -1    0    0    0    0 -0.00000000000E+00 -0.00000000000E+00 -0.45593999997E+02  0.45594000000E+02  0.51100000000E-03 0. -1.
    9900012    2    1    2    0    0 -0.96863348097E+00 -0.47506848316E+00 -0.47735406977E+00  0.90008250962E+02  0.90000519073E+02 0.  0.
        -12    1    1    2    0    0  0.96863348097E+00  0.47506848316E+00  0.47735406977E+00  0.11797490378E+01  0.00000000000E+00 0.  1.
         11    1    3    3    0    0  0.96902627485E+00  0.13114557094E+02 -0.41844901812E+02  0.43862585738E+02  0.51100000000E-03 0. -1.
        -11    1    3    3    0    0  0.12760592515E+01 -0.74515464809E+01  0.48620975555E+01  0.89885407643E+01  0.51100000000E-03 0.  1.
        -12    1    3    3    0    0 -0.32137190074E+01 -0.61380790960E+01  0.36505450187E+02  0.37157124460E+02  0.00000000000E+00 0.  1.
</event>
<event>
 7    1  0.2593256E-015  0.9000769E+02  0.7816164E-02  0.1186339E+00
        -11   -1    0    0    0    0  0.00000000000E+00  0.00000000000E+00  0.45593999997E+02  0.45594000000E+02  0.51100000000E-03 0. -1.
         11   -1    0    0    0    0 -0.00000000000E+00 -0.00000000000E+00 -0.45593999997E+02  0.45594000000E+02  0.51100000000E-03 0.  1.
    9900012    2    1    2    0    0 -0.10606071386E+01  0.51071269367E+00 -0.86183359475E-01  0.90007685411E+02  0.89999946058E+02 0.  0.
        -12    1    1    2    0    0  0.10606071386E+01 -0.51071269367E+00  0.86183359475E-01  0.11803145892E+01  0.00000000000E+00 0.  1.
         11    1    3    3    0    0  0.61247751411E+01 -0.34573654316E+01 -0.78350406979E+01  0.10528727808E+02  0.51100000000E-03 0. -1.
        -11    1    3    3    0    0  0.29111040729E+02  0.82460812134E+01 -0.17598049875E+02  0.35002027190E+02  0.51100000000E-03 0.  1.
         12    1    3    3    0    0 -0.36296423009E+02 -0.42780030881E+01  0.25346907214E+02  0.44476930413E+02  0.00000000000E+00 0. -1.
</event>
<event>
 7    1  0.2593256E-015  0.9000758E+02  0.7816164E-02  0.1186339E+00
        -11   -1    0    0    0    0  0.00000000000E+00  0.00000000000E+00  0.45593999997E+02  0.45594000000E+02  0.51100000000E-03 0.  1.
         11   -1    0    0    0    0 -0.00000000000E+00 -0.00000000000E+00 -0.45593999997E+02  0.45594000000E+02  0.51100000000E-03 0. -1.
    9900012    2    1    2    0    0  0.55224587114E+00 -0.76240734366E-02 -0.10432418556E+01  0.90007581770E+02  0.89999841049E+02 0.  0.
        -12    1    1    2    0    0 -0.55224587114E+00  0.76240734366E-02  0.10432418556E+01  0.11804182301E+01  0.00000000000E+00 0.  1.
         11    1    3    3    0    0 -0.74007065493E+01 -0.80518484060E+01  0.64912736709E-01  0.10936495513E+02  0.51100000000E-03 0. -1.
        -11    1    3    3    0    0  0.23634004999E+02 -0.28832203312E+02  0.76391252876E+01  0.38055464464E+02  0.51100000000E-03 0.  1.
         12    1    3    3    0    0 -0.15681052578E+02  0.36876427645E+02 -0.87472798798E+01  0.41015621793E+02  0.00000000000E+00 0. -1.
</event>
<event>
 7    1  0.2593256E-015  0.9000771E+02  0.7816164E-02  0.1186339E+00
        -11   -1    0    0    0    0  0.00000000000E+00  0.00000000000E+00  0.45593999997E+02  0.45594000000E+02  0.51100000000E-03 0. -1.
         11   -1    0    0    0    0 -0.00000000000E+00 -0.00000000000E+00 -0.45593999997E+02  0.45594000000E+02  0.51100000000E-03 0.  1.
    9900012    2    1    2    0    0 -0.92636593505E+00 -0.46239650784E+00  0.56667960756E+00  0.90007707598E+02  0.89999968539E+02 0.  0.
        -12    1    1    2    0    0  0.92636593505E+00  0.46239650784E+00 -0.56667960756E+00  0.11802924018E+01  0.00000000000E+00 0.  1.
         11    1    3    3    0    0 -0.10678344639E+01  0.28733620113E+01  0.55624391342E+01  0.63511580891E+01  0.51100000000E-03 0. -1.
        -11    1    3    3    0    0 -0.12501589963E+02  0.34887180773E+02 -0.18199329120E+02  0.41287052626E+02  0.51100000000E-03 0.  1.
         12    1    3    3    0    0  0.12643058492E+02 -0.38222939292E+02  0.13203569593E+02  0.42369496883E+02  0.00000000000E+00 0. -1.
</event>
<event>
 7    1  0.4038345E-015  0.9000780E+02  0.7816164E-02  0.1186339E+00
        -11   -1    0    0    0    0  0.00000000000E+00  0.00000000000E+00  0.45593999997E+02  0.45594000000E+02  0.51100000000E-03 0. -1.
         11   -1    0    0    0    0 -0.00000000000E+00 -0.00000000000E+00 -0.45593999997E+02  0.45594000000E+02  0.51100000000E-03 0.  1.
    9900012    2    1    2    0    0  0.36436145268E+00 -0.36847113080E+00  0.10603515203E+01  0.90007798496E+02  0.90000060637E+02 0.  0.
        -12    1    1    2    0    0 -0.36436145268E+00  0.36847113080E+00 -0.10603515203E+01  0.11802015035E+01  0.00000000000E+00 0.  1.
         11    1    3    3    0    0 -0.13061348841E+02 -0.20012544428E+02  0.27365236824E+02  0.36331211853E+02  0.51100000000E-03 0. -1.
        -11    1    3    3    0    0  0.15039211793E+01 -0.86593183511E+01  0.47583525967E+01  0.99943730626E+01  0.51100000000E-03 0.  1.
        -12    1    3    3    0    0  0.11921789114E+02  0.28303391648E+02 -0.31063237900E+02  0.43682213581E+02  0.00000000000E+00 0.  1.
</event>
<event>
 7    1  0.2593256E-015  0.9000789E+02  0.7816164E-02  0.1186339E+00
        -11   -1    0    0    0    0  0.00000000000E+00  0.00000000000E+00  0.45593999997E+02  0.45594000000E+02  0.51100000000E-03 0. -1.
         11   -1    0    0    0    0 -0.00000000000E+00 -0.00000000000E+00 -0.45593999997E+02  0.45594000000E+02  0.51100000000E-03 0.  1.
    9900012    2    1    2    0    0  0.77563407601E+00  0.62785550843E+00 -0.62995772031E+00  0.90007890900E+02  0.90000154259E+02 0.  0.
        -12    1    1    2    0    0 -0.77563407601E+00 -0.62785550843E+00  0.62995772031E+00  0.11801091003E+01  0.00000000000E+00 0.  1.
         11    1    3    3    0    0  0.19299076711E+00 -0.30290030090E+02  0.21395305982E+02  0.37084798592E+02  0.51100000000E-03 0. -1.
        -11    1    3    3    0    0  0.25758136905E+01 -0.82410135114E+01 -0.18612868295E+01  0.88325256177E+01  0.51100000000E-03 0.  1.
        -12    1    3    3    0    0 -0.19931703816E+01  0.39158899110E+02 -0.20163976873E+02  0.44090566690E+02  0.00000000000E+00 0.  1.
</event>
<event>
 7    1  0.2593256E-015  0.9000773E+02  0.7816164E-02  0.1186339E+00
        -11   -1    0    0    0    0  0.00000000000E+00  0.00000000000E+00  0.45593999997E+02  0.45594000000E+02  0.51100000000E-03 0. -1.
         11   -1    0    0    0    0 -0.00000000000E+00 -0.00000000000E+00 -0.45593999997E+02  0.45594000000E+02  0.51100000000E-03 0.  1.
    9900012    2    1    2    0    0 -0.11628205303E+01 -0.19962965552E+00 -0.31981055738E-01  0.90007734618E+02  0.89999995915E+02 0.  0.
        -12    1    1    2    0    0  0.11628205303E+01  0.19962965552E+00  0.31981055738E-01  0.11802653824E+01  0.00000000000E+00 0.  1.
         11    1    3    3    0    0  0.41849491314E+01  0.10034063191E+01  0.40040167500E+01  0.58781607556E+01  0.51100000000E-03 0. -1.
        -11    1    3    3    0    0  0.36605994074E+02 -0.15330691455E+02 -0.10488333294E+00  0.39686772398E+02  0.51100000000E-03 0.  1.
         12    1    3    3    0    0 -0.41953763735E+02  0.14127655481E+02 -0.39311144728E+01  0.44442801464E+02  0.00000000000E+00 0. -1.
</event>
<event>
 7    1  0.2593256E-015  0.9000793E+02  0.7816164E-02  0.1186339E+00
        -11   -1    0    0    0    0  0.00000000000E+00  0.00000000000E+00  0.45593999997E+02  0.45594000000E+02  0.51100000000E-03 0. -1.
         11   -1    0    0    0    0 -0.00000000000E+00 -0.00000000000E+00 -0.45593999997E+02  0.45594000000E+02  0.51100000000E-03 0.  1.
    9900012    2    1    2    0    0 -0.27889034821E+00 -0.36294005424E-01  0.11460698418E+01  0.90007926628E+02  0.90000190459E+02 0.  0.
        -12    1    1    2    0    0  0.27889034821E+00  0.36294005424E-01 -0.11460698418E+01  0.11800733721E+01  0.00000000000E+00 0.  1.
         11    1    3    3    0    0  0.47618712614E+01  0.83204885631E+01 -0.16529703147E+01  0.97282197221E+01  0.51100000000E-03 0. -1.
        -11    1    3    3    0    0  0.13412324559E+02 -0.28431400807E+02 -0.25871473854E+02  0.40713243073E+02  0.51100000000E-03 0.  1.
         12    1    3    3    0    0 -0.18453086169E+02  0.20074618238E+02  0.28670514010E+02  0.39566463832E+02  0.00000000000E+00 0. -1.
</event>
<event>
 7    1  0.2593256E-015  0.9000777E+02  0.7816164E-02  0.1186339E+00
        -11   -1    0    0    0    0  0.00000000000E+00  0.00000000000E+00  0.45593999997E+02  0.45594000000E+02  0.51100000000E-03 0.  1.
         11   -1    0    0    0    0 -0.00000000000E+00 -0.00000000000E+00 -0.45593999997E+02  0.45594000000E+02  0.51100000000E-03 0. -1.
    9900012    2    1    2    0    0  0.94372100744E+00  0.63702113022E+00 -0.31071124234E+00  0.90007768355E+02  0.90000030097E+02 0.  0.
        -12    1    1    2    0    0 -0.94372100744E+00 -0.63702113022E+00  0.31071124234E+00  0.11802316452E+01  0.00000000000E+00 0.  1.
         11    1    3    3    0    0  0.99064020483E+00  0.36011175909E+01  0.92945451600E+01  0.10016885040E+02  0.51100000000E-03 0. -1.
        -11    1    3    3    0    0 -0.18433079575E+02 -0.21828604501E+02  0.23984934056E+02  0.37303397419E+02  0.51100000000E-03 0.  1.
         12    1    3    3    0    0  0.18386160377E+02  0.18864508041E+02 -0.33590190458E+02  0.42687485895E+02  0.00000000000E+00 0. -1.
</event>
<event>
 7    1  0.2593256E-015  0.9000777E+02  0.7816164E-02  0.1186339E+00
        -11   -1    0    0    0    0  0.00000000000E+00  0.00000000000E+00  0.45593999997E+02  0.45594000000E+02  0.51100000000E-03 0.  1.
         11   -1    0    0    0    0 -0.00000000000E+00 -0.00000000000E+00 -0.45593999997E+02  0.45594000000E+02  0.51100000000E-03 0. -1.
    9900012    2    1    2    0    0 -0.51654533514E+00 -0.99276312444E+00 -0.37490595607E+00  0.90007766048E+02  0.90000027760E+02 0.  0.
        -12    1    1    2    0    0  0.51654533514E+00  0.99276312444E+00  0.37490595607E+00  0.11802339516E+01  0.00000000000E+00 0.  1.
         11    1    3    3    0    0 -0.52660538231E+00 -0.18693201846E+02  0.62621143567E+01  0.19721236902E+02  0.51100000000E-03 0. -1.
        -11    1    3    3    0    0  0.24480192856E+02  0.30086826821E+02 -0.15040034953E+02  0.41601678356E+02  0.51100000000E-03 0.  1.
         12    1    3    3    0    0 -0.24470132809E+02 -0.12386388100E+02  0.84030146398E+01  0.28684850790E+02  0.00000000000E+00 0. -1.
</event>
<event>
 7    1  0.2593256E-015  0.9000769E+02  0.7816164E-02  0.1186339E+00
        -11   -1    0    0    0    0  0.00000000000E+00  0.00000000000E+00  0.45593999997E+02  0.45594000000E+02  0.51100000000E-03 0.  1.
         11   -1    0    0    0    0 -0.00000000000E+00 -0.00000000000E+00 -0.45593999997E+02  0.45594000000E+02  0.51100000000E-03 0. -1.
    9900012    2    1    2    0    0  0.60362625421E+00 -0.80785271702E+00 -0.61330806238E+00  0.90007687564E+02  0.89999948240E+02 0.  0.
        -12    1    1    2    0    0 -0.60362625421E+00  0.80785271702E+00  0.61330806238E+00  0.11803124360E+01  0.00000000000E+00 0.  1.
         11    1    3    3    0    0 -0.35254080760E+02  0.59026018888E+01 -0.12293199485E+02  0.37799651759E+02  0.51100000000E-03 0. -1.
        -11    1    3    3    0    0  0.11944929467E+02 -0.15759593133E+02  0.17017513865E+02  0.26089114475E+02  0.51100000000E-03 0.  1.
        -12    1    3    3    0    0  0.23912777547E+02  0.90491385271E+01 -0.53376224428E+01  0.26118921330E+02  0.00000000000E+00 0.  1.
</event>
<event>
 7    1  0.2593256E-015  0.9000773E+02  0.7816164E-02  0.1186339E+00
        -11   -1    0    0    0    0  0.00000000000E+00  0.00000000000E+00  0.45593999997E+02  0.45594000000E+02  0.51100000000E-03 0.  1.
         11   -1    0    0    0    0 -0.00000000000E+00 -0.00000000000E+00 -0.45593999997E+02  0.45594000000E+02  0.51100000000E-03 0. -1.
    9900012    2    1    2    0    0  0.85218566901E+00  0.44658334425E+00 -0.68365374583E+00  0.90007729039E+02  0.89999990262E+02 0.  0.
        -12    1    1    2    0    0 -0.85218566901E+00 -0.44658334425E+00  0.68365374583E+00  0.11802709613E+01  0.00000000000E+00 0.  1.
         11    1    3    3    0    0 -0.27674092975E+01  0.35786112096E+01  0.95717571293E+01  0.10586951743E+02  0.51100000000E-03 0. -1.
        -11    1    3    3    0    0  0.13462876432E+02  0.28506166936E+02  0.17624694714E+02  0.36117592102E+02  0.51100000000E-03 0.  1.
         12    1    3    3    0    0 -0.98432814652E+01 -0.31638194801E+02 -0.27880105589E+02  0.43303185194E+02  0.00000000000E+00 0. -1.
</event>
<event>
 7    1  0.2593256E-015  0.9000706E+02  0.7816164E-02  0.1186340E+00
        -11   -1    0    0    0    0  0.00000000000E+00  0.00000000000E+00  0.45593999997E+02  0.45594000000E+02  0.51100000000E-03 0. -1.
         11   -1    0    0    0    0 -0.00000000000E+00 -0.00000000000E+00 -0.45593999997E+02  0.45594000000E+02  0.51100000000E-03 0.  1.
    9900012    2    1    2    0    0 -0.91693464666E+00  0.57554840401E+00  0.47180948909E+00  0.90007055757E+02  0.89999308090E+02 0.  0.
        -12    1    1    2    0    0  0.91693464666E+00 -0.57554840401E+00 -0.47180948909E+00  0.11809442432E+01  0.00000000000E+00 0.  1.
         11    1    3    3    0    0  0.21592555248E+02  0.34289708224E+02 -0.12324702510E+02  0.42354702507E+02  0.51100000000E-03 0. -1.
        -11    1    3    3    0    0  0.30110511430E+00 -0.72995304313E+01 -0.46234387816E+01  0.86458079573E+01  0.51100000000E-03 0.  1.
        -12    1    3    3    0    0 -0.22810595009E+02 -0.26414629389E+02  0.17419950781E+02  0.39006545292E+02  0.00000000000E+00 0.  1.
</event>
<event>
 7    1  0.2593256E-015  0.9000771E+02  0.7816164E-02  0.1186339E+00
        -11   -1    0    0    0    0  0.00000000000E+00  0.00000000000E+00  0.45593999997E+02  0.45594000000E+02  0.51100000000E-03 0.  1.
         11   -1    0    0    0    0 -0.00000000000E+00 -0.00000000000E+00 -0.45593999997E+02  0.45594000000E+02  0.51100000000E-03 0. -1.
    9900012    2    1    2    0    0  0.95320425991E+00 -0.49297514179E-01 -0.69430192567E+00  0.90007710303E+02  0.89999971279E+02 0.  0.
        -12    1    1    2    0    0 -0.95320425991E+00  0.49297514179E-01  0.69430192567E+00  0.11802896975E+01  0.00000000000E+00 0.  1.
         11    1    3    3    0    0 -0.61504332113E+01 -0.23689360249E+01 -0.92826804620E+00  0.66559273136E+01  0.51100000000E-03 0. -1.
        -11    1    3    3    0    0  0.20616297104E+02  0.75908156830E+01  0.37444886656E+02  0.43413957732E+02  0.51100000000E-03 0.  1.
         12    1    3    3    0    0 -0.13512659633E+02 -0.52711771723E+01 -0.37210920536E+02  0.39937825257E+02  0.00000000000E+00 0. -1.
</event>
<event>
 7    1  0.2593256E-015  0.9000775E+02  0.7816164E-02  0.1186339E+00
        -11   -1    0    0    0    0  0.00000000000E+00  0.00000000000E+00  0.45593999997E+02  0.45594000000E+02  0.51100000000E-03 0. -1.
         11   -1    0    0    0    0 -0.00000000000E+00 -0.00000000000E+00 -0.45593999997E+02  0.45594000000E+02  0.51100000000E-03 0.  1.
    9900012    2    1    2    0    0 -0.83338709394E+00  0.50496363579E+00  0.66593783411E+00  0.90007747688E+02  0.90000009157E+02 0.  0.
        -12    1    1    2    0    0  0.83338709394E+00 -0.50496363579E+00 -0.66593783411E+00  0.11802523123E+01  0.00000000000E+00 0.  1.
         11    1    3    3    0    0 -0.65726270022E+01 -0.58538059285E+01  0.62758613796E+01  0.10809852260E+02  0.51100000000E-03 0. -1.
        -11    1    3    3    0    0 -0.17982737043E+02  0.19774046159E+02 -0.31703969447E+02  0.41467257107E+02  0.51100000000E-03 0.  1.
         12    1    3    3    0    0  0.23721976951E+02 -0.13415276595E+02  0.26094045901E+02  0.37730638321E+02  0.00000000000E+00 0. -1.
</event>
<event>
 7    1  0.2593256E-015  0.9000771E+02  0.7816164E-02  0.1186339E+00
        -11   -1    0    0    0    0  0.00000000000E+00  0.00000000000E+00  0.45593999997E+02  0.45594000000E+02  0.51100000000E-03 0. -1.
         11   -1    0    0    0    0 -0.00000000000E+00 -0.00000000000E+00 -0.45593999997E+02  0.45594000000E+02  0.51100000000E-03 0.  1.
    9900012    2    1    2    0    0  0.77389610993E+00  0.84248554504E+00 -0.29051386547E+00  0.90007705381E+02  0.89999966292E+02 0.  0.
        -12    1    1    2    0    0 -0.77389610993E+00 -0.84248554504E+00  0.29051386547E+00  0.11802946194E+01  0.00000000000E+00 0.  1.
         11    1    3    3    0    0  0.30235179492E+02 -0.19707242950E+02 -0.58969479437E+01  0.36569324562E+02  0.51100000000E-03 0. -1.
        -11    1    3    3    0    0  0.77958099310E+01 -0.32385151787E+01  0.36339046032E+01  0.91906417605E+01  0.51100000000E-03 0.  1.
        -12    1    3    3    0    0 -0.37257093313E+02  0.23788243673E+02  0.19725294750E+01  0.44247739058E+02  0.00000000000E+00 0.  1.
</event>
<event>
 7    1  0.2593256E-015  0.9000763E+02  0.7816164E-02  0.1186339E+00
        -11   -1    0    0    0    0  0.00000000000E+00  0.00000000000E+00  0.45593999997E+02  0.45594000000E+02  0.51100000000E-03 0.  1.
         11   -1    0    0    0    0 -0.00000000000E+00 -0.00000000000E+00 -0.45593999997E+02  0.45594000000E+02  0.51100000000E-03 0. -1.
    9900012    2    1    2    0    0  0.71954980715E+00  0.22166482793E+00 -0.90905498087E+00  0.90007632185E+02  0.89999892130E+02 0.  0.
        -12    1    1    2    0    0 -0.71954980715E+00 -0.22166482793E+00  0.90905498087E+00  0.11803678152E+01  0.00000000000E+00 0.  1.
         11    1    3    3    0    0 -0.18520436677E+02 -0.19262309367E+02 -0.28537390313E+02  0.39095086430E+02  0.51100000000E-03 0. -1.
        -11    1    3    3    0    0  0.11007769452E+01 -0.82868683187E+01  0.10853210611E+01  0.84298172270E+01  0.51100000000E-03 0.  1.
        -12    1    3    3    0    0  0.18139209539E+02  0.27770842514E+02  0.26543014271E+02  0.42482728528E+02  0.00000000000E+00 0.  1.
</event>
<event>
 7    1  0.2593256E-015  0.9000776E+02  0.7816164E-02  0.1186339E+00
        -11   -1    0    0    0    0  0.00000000000E+00  0.00000000000E+00  0.45593999997E+02  0.45594000000E+02  0.51100000000E-03 0.  1.
         11   -1    0    0    0    0 -0.00000000000E+00 -0.00000000000E+00 -0.45593999997E+02  0.45594000000E+02  0.51100000000E-03 0. -1.
    9900012    2    1    2    0    0  0.53874479730E+00 -0.17345857978E+00 -0.10356760183E+01  0.90007763307E+02  0.90000024983E+02 0.  0.
        -12    1    1    2    0    0 -0.53874479730E+00  0.17345857978E+00  0.10356760183E+01  0.11802366926E+01  0.00000000000E+00 0.  1.
         11    1    3    3    0    0  0.11350201151E+02  0.37624067041E+02 -0.10389927934E+02  0.40649084733E+02  0.51100000000E-03 0. -1.
        -11    1    3    3    0    0  0.46224516876E-01  0.69335649397E+00  0.93398963889E+01  0.93657111182E+01  0.51100000000E-03 0.  1.
        -12    1    3    3    0    0 -0.10857680870E+02 -0.38490882115E+02  0.14355526387E-01  0.39992967456E+02  0.00000000000E+00 0.  1.
</event>
<event>
 7    1  0.2593256E-015  0.9000774E+02  0.7816164E-02  0.1186339E+00
        -11   -1    0    0    0    0  0.00000000000E+00  0.00000000000E+00  0.45593999997E+02  0.45594000000E+02  0.51100000000E-03 0. -1.
         11   -1    0    0    0    0 -0.00000000000E+00 -0.00000000000E+00 -0.45593999997E+02  0.45594000000E+02  0.51100000000E-03 0.  1.
    9900012    2    1    2    0    0 -0.74789973636E+00 -0.72132833652E+00 -0.55977091007E+00  0.90007740683E+02  0.90000002060E+02 0.  0.
        -12    1    1    2    0    0  0.74789973636E+00  0.72132833652E+00  0.55977091007E+00  0.11802593175E+01  0.00000000000E+00 0.  1.
         11    1    3    3    0    0  0.12410052192E+02  0.98009343640E+00  0.35419448812E+02  0.37543405985E+02  0.51100000000E-03 0. -1.
        -11    1    3    3    0    0 -0.20360433063E+01 -0.53175246045E+01  0.63618359129E+01  0.85378273998E+01  0.51100000000E-03 0.  1.
        -12    1    3    3    0    0 -0.11121908622E+02  0.36161028316E+01 -0.42341055635E+02  0.43926507298E+02  0.00000000000E+00 0.  1.
</event>
<event>
 7    1  0.2593256E-015  0.9000771E+02  0.7816164E-02  0.1186339E+00
        -11   -1    0    0    0    0  0.00000000000E+00  0.00000000000E+00  0.45593999997E+02  0.45594000000E+02  0.51100000000E-03 0. -1.
         11   -1    0    0    0    0 -0.00000000000E+00 -0.00000000000E+00 -0.45593999997E+02  0.45594000000E+02  0.51100000000E-03 0.  1.
    9900012    2    1    2    0    0  0.82791874718E-01 -0.11680496887E+01  0.14796708203E+00  0.90007708160E+02  0.89999969108E+02 0.  0.
        -12    1    1    2    0    0 -0.82791874718E-01  0.11680496887E+01 -0.14796708203E+00  0.11802918398E+01  0.00000000000E+00 0.  1.
         11    1    3    3    0    0 -0.19800373211E+02  0.15996681055E+01  0.32041459992E+02  0.37699719840E+02  0.51100000000E-03 0. -1.
        -11    1    3    3    0    0 -0.41623919271E+01  0.73148464284E+01  0.28350017107E+01  0.88808625587E+01  0.51100000000E-03 0.  1.
        -12    1    3    3    0    0  0.24045557013E+02 -0.10082564223E+02 -0.34728494620E+02  0.43427125762E+02  0.00000000000E+00 0.  1.
</event>
<event>
 7    1  0.2593256E-015  0.9000764E+02  0.7816164E-02  0.1186339E+00
        -11   -1    0    0    0    0  0.00000000000E+00  0.00000000000E+00  0.45593999997E+02  0.45594000000E+02  0.51100000000E-03 0.  1.
         11   -1    0    0    0    0 -0.00000000000E+00 -0.00000000000E+00 -0.45593999997E+02  0.45594000000E+02  0.51100000000E-03 0. -1.
    9900012    2    1    2    0    0 -0.26307852341E+00 -0.48180117218E+00 -0.10449480353E+01  0.90007636041E+02  0.89999896037E+02 0.  0.
        -12    1    1    2    0    0  0.26307852341E+00  0.48180117218E+00  0.10449480353E+01  0.11803639589E+01  0.00000000000E+00 0.  1.
         11    1    3    3    0    0 -0.23671933295E+02  0.24692966335E+02 -0.23727391087E+02  0.41630422775E+02  0.51100000000E-03 0. -1.
        -11    1    3    3    0    0  0.69552365249E+01  0.48232121568E+01  0.35621600732E+01  0.91830101424E+01  0.51100000000E-03 0.  1.
        -12    1    3    3    0    0  0.16453618246E+02 -0.29997979664E+02  0.19120282979E+02  0.39194203124E+02  0.00000000000E+00 0.  1.
</event>
<event>
 7    1  0.2593256E-015  0.9000781E+02  0.7816164E-02  0.1186339E+00
        -11   -1    0    0    0    0  0.00000000000E+00  0.00000000000E+00  0.45593999997E+02  0.45594000000E+02  0.51100000000E-03 0.  1.
         11   -1    0    0    0    0 -0.00000000000E+00 -0.00000000000E+00 -0.45593999997E+02  0.45594000000E+02  0.51100000000E-03 0. -1.
    9900012    2    1    2    0    0 -0.54270781738E+00  0.58664127438E+00 -0.86843501504E+00  0.90007805467E+02  0.90000067699E+02 0.  0.
        -12    1    1    2    0    0  0.54270781738E+00 -0.58664127438E+00  0.86843501504E+00  0.11801945328E+01  0.00000000000E+00 0.  1.
         11    1    3    3    0    0  0.90025659947E+01 -0.81174869048E+01 -0.35665100231E+02  0.37668808886E+02  0.51100000000E-03 0. -1.
        -11    1    3    3    0    0  0.69438856218E+01 -0.68237027266E+01 -0.12002124996E+01  0.98092291611E+01  0.51100000000E-03 0.  1.
        -12    1    3    3    0    0 -0.16489159434E+02  0.15527830906E+02  0.35996877716E+02  0.42529767420E+02  0.00000000000E+00 0.  1.
</event>
<event>
 7    1  0.2593256E-015  0.9000777E+02  0.7816164E-02  0.1186339E+00
        -11   -1    0    0    0    0  0.00000000000E+00  0.00000000000E+00  0.45593999997E+02  0.45594000000E+02  0.51100000000E-03 0. -1.
         11   -1    0    0    0    0 -0.00000000000E+00 -0.00000000000E+00 -0.45593999997E+02  0.45594000000E+02  0.51100000000E-03 0.  1.
    9900012    2    1    2    0    0 -0.83891397841E+00  0.54496337675E+00  0.62624001288E+00  0.90007771929E+02  0.90000033719E+02 0.  0.
        -12    1    1    2    0    0  0.83891397841E+00 -0.54496337675E+00 -0.62624001288E+00  0.11802280707E+01  0.00000000000E+00 0.  1.
         11    1    3    3    0    0 -0.80019117647E+01  0.83385651603E+01 -0.52367971847E+01  0.12688037903E+02  0.51100000000E-03 0. -1.
        -11    1    3    3    0    0 -0.50446513915E+01  0.12968817954E+02 -0.30602663959E+02  0.33617879000E+02  0.51100000000E-03 0.  1.
         12    1    3    3    0    0  0.12207649178E+02 -0.20762419738E+02  0.36465701157E+02  0.43701855026E+02  0.00000000000E+00 0. -1.
</event>
<event>
 7    1  0.2593256E-015  0.9000775E+02  0.7816164E-02  0.1186339E+00
        -11   -1    0    0    0    0  0.00000000000E+00  0.00000000000E+00  0.45593999997E+02  0.45594000000E+02  0.51100000000E-03 0.  1.
         11   -1    0    0    0    0 -0.00000000000E+00 -0.00000000000E+00 -0.45593999997E+02  0.45594000000E+02  0.51100000000E-03 0. -1.
    9900012    2    1    2    0    0  0.13583467872E+00  0.76407706121E+00 -0.88922745589E+00  0.90007749906E+02  0.90000011405E+02 0.  0.
        -12    1    1    2    0    0 -0.13583467872E+00 -0.76407706121E+00  0.88922745589E+00  0.11802500937E+01  0.00000000000E+00 0.  1.
         11    1    3    3    0    0 -0.80157957689E+01 -0.26105796434E+01  0.26003544315E+01  0.88221285025E+01  0.51100000000E-03 0. -1.
        -11    1    3    3    0    0 -0.25861544340E+02  0.28345911463E+02  0.30269295735E+01  0.38489900951E+02  0.51100000000E-03 0.  1.
         12    1    3    3    0    0  0.34013174788E+02 -0.24971254758E+02 -0.65165114608E+01  0.42695720453E+02  0.00000000000E+00 0. -1.
</event>
<event>
 7    1  0.2593256E-015  0.9000766E+02  0.7816164E-02  0.1186339E+00
        -11   -1    0    0    0    0  0.00000000000E+00  0.00000000000E+00  0.45593999997E+02  0.45594000000E+02  0.51100000000E-03 0. -1.
         11   -1    0    0    0    0 -0.00000000000E+00 -0.00000000000E+00 -0.45593999997E+02  0.45594000000E+02  0.51100000000E-03 0.  1.
    9900012    2    1    2    0    0 -0.70027052082E+00  0.77242540802E+00  0.55334609171E+00  0.90007656105E+02  0.89999916366E+02 0.  0.
        -12    1    1    2    0    0  0.70027052082E+00 -0.77242540802E+00 -0.55334609171E+00  0.11803438950E+01  0.00000000000E+00 0.  1.
         11    1    3    3    0    0 -0.20803306599E+01  0.76049207255E+01 -0.39453637672E+00  0.78941911625E+01  0.51100000000E-03 0. -1.
        -11    1    3    3    0    0 -0.23101596781E+02  0.29941444955E+02 -0.17056791100E+01  0.37856085922E+02  0.51100000000E-03 0.  1.
         12    1    3    3    0    0  0.24481656920E+02 -0.36773940273E+02  0.26535615785E+01  0.44257379021E+02  0.00000000000E+00 0. -1.
</event>
<event>
 7    1  0.2593256E-015  0.9000771E+02  0.7816164E-02  0.1186339E+00
        -11   -1    0    0    0    0  0.00000000000E+00  0.00000000000E+00  0.45593999997E+02  0.45594000000E+02  0.51100000000E-03 0. -1.
         11   -1    0    0    0    0 -0.00000000000E+00 -0.00000000000E+00 -0.45593999997E+02  0.45594000000E+02  0.51100000000E-03 0.  1.
    9900012    2    1    2    0    0  0.15603377635E+00 -0.10460556426E+01  0.52392863546E+00  0.90007711831E+02  0.89999972827E+02 0.  0.
        -12    1    1    2    0    0 -0.15603377635E+00  0.10460556426E+01 -0.52392863546E+00  0.11802881690E+01  0.00000000000E+00 0.  1.
         11    1    3    3    0    0 -0.41592248671E-01  0.11606502330E+01 -0.95866390326E+01  0.96567327332E+01  0.51100000000E-03 0. -1.
        -11    1    3    3    0    0  0.12924442075E+02  0.29030687609E+02 -0.17930218844E+02  0.36487186436E+02  0.51100000000E-03 0.  1.
         12    1    3    3    0    0 -0.12726816050E+02 -0.31237393484E+02  0.28040786512E+02  0.43863792662E+02  0.00000000000E+00 0. -1.
</event>
<event>
 7    1  0.2593256E-015  0.9000764E+02  0.7816164E-02  0.1186339E+00
        -11   -1    0    0    0    0  0.00000000000E+00  0.00000000000E+00  0.45593999997E+02  0.45594000000E+02  0.51100000000E-03 0. -1.
         11   -1    0    0    0    0 -0.00000000000E+00 -0.00000000000E+00 -0.45593999997E+02  0.45594000000E+02  0.51100000000E-03 0.  1.
    9900012    2    1    2    0    0 -0.10441253655E+01  0.48961680179E+00  0.25166669662E+00  0.90007636277E+02  0.89999896276E+02 0.  0.
        -12    1    1    2    0    0  0.10441253655E+01 -0.48961680179E+00 -0.25166669662E+00  0.11803637226E+01  0.00000000000E+00 0.  1.
         11    1    3    3    0    0 -0.81103363577E+01 -0.58102202942E+01  0.14482619167E+01  0.10081353011E+02  0.51100000000E-03 0. -1.
        -11    1    3    3    0    0 -0.27607573189E+02 -0.52363265731E+01 -0.23913819516E+02  0.36898075525E+02  0.51100000000E-03 0.  1.
         12    1    3    3    0    0  0.34673784181E+02  0.11536163669E+02  0.22717224296E+02  0.43028207740E+02  0.00000000000E+00 0. -1.
</event>
<event>
 7    1  0.2593256E-015  0.9000748E+02  0.7816164E-02  0.1186340E+00
        -11   -1    0    0    0    0  0.00000000000E+00  0.00000000000E+00  0.45593999997E+02  0.45594000000E+02  0.51100000000E-03 0.  1.
         11   -1    0    0    0    0 -0.00000000000E+00 -0.00000000000E+00 -0.45593999997E+02  0.45594000000E+02  0.51100000000E-03 0. -1.
    9900012    2    1    2    0    0  0.53185731516E-01  0.11395395380E+00 -0.11738014616E+01  0.90007481429E+02  0.89999739383E+02 0.  0.
        -12    1    1    2    0    0 -0.53185731516E-01 -0.11395395380E+00  0.11738014616E+01  0.11805185712E+01  0.00000000000E+00 0.  1.
         11    1    3    3    0    0  0.21105448091E+01 -0.31825130732E+02 -0.19347071082E+02  0.37304188842E+02  0.51100000000E-03 0. -1.
        -11    1    3    3    0    0  0.42926692047E+01 -0.10096429838E+01 -0.86734974962E+01  0.97301565730E+01  0.51100000000E-03 0.  1.
        -12    1    3    3    0    0 -0.63500282823E+01  0.32948727669E+02  0.26846767117E+02  0.42973136013E+02  0.00000000000E+00 0.  1.
</event>
<event>
 7    1  0.2593256E-015  0.9000770E+02  0.7816164E-02  0.1186339E+00
        -11   -1    0    0    0    0  0.00000000000E+00  0.00000000000E+00  0.45593999997E+02  0.45594000000E+02  0.51100000000E-03 0.  1.
         11   -1    0    0    0    0 -0.00000000000E+00 -0.00000000000E+00 -0.45593999997E+02  0.45594000000E+02  0.51100000000E-03 0. -1.
    9900012    2    1    2    0    0  0.42344773656E+00 -0.34350088489E+00 -0.10468049910E+01  0.90007702778E+02  0.89999963654E+02 0.  0.
        -12    1    1    2    0    0 -0.42344773656E+00  0.34350088489E+00  0.10468049910E+01  0.11802972222E+01  0.00000000000E+00 0.  1.
         11    1    3    3    0    0  0.25070002899E+02 -0.77446550870E+01 -0.14163364986E+02  0.29817539063E+02  0.51100000000E-03 0. -1.
        -11    1    3    3    0    0  0.25437765465E+01  0.23885461563E+02 -0.35640270966E+01  0.24283499802E+02  0.51100000000E-03 0.  1.
         12    1    3    3    0    0 -0.27190331709E+02 -0.16484307361E+02  0.16680587091E+02  0.35906663913E+02  0.00000000000E+00 0. -1.
</event>
<event>
 7    1  0.2739453E-015  0.9000774E+02  0.7816164E-02  0.1186339E+00
        -11   -1    0    0    0    0  0.00000000000E+00  0.00000000000E+00  0.45593999997E+02  0.45594000000E+02  0.51100000000E-03 0. -1.
         11   -1    0    0    0    0 -0.00000000000E+00 -0.00000000000E+00 -0.45593999997E+02  0.45594000000E+02  0.51100000000E-03 0.  1.
    9900012    2    1    2    0    0  0.68828830683E+00  0.95490515391E+00  0.86222482229E-01  0.90007737757E+02  0.89999999095E+02 0.  0.
        -12    1    1    2    0    0 -0.68828830683E+00 -0.95490515391E+00 -0.86222482229E-01  0.11802622432E+01  0.00000000000E+00 0.  1.
         11    1    3    3    0    0 -0.83103126722E+01 -0.17423708900E+02  0.32311433284E+02  0.37638751967E+02  0.51100000000E-03 0. -1.
        -11    1    3    3    0    0  0.15219972227E+01  0.44255269066E+01  0.79289932557E+01  0.92071004261E+01  0.51100000000E-03 0.  1.
        -12    1    3    3    0    0  0.74766037563E+01  0.13953087147E+02 -0.40154204057E+02  0.43161885364E+02  0.00000000000E+00 0.  1.
</event>
<event>
 7    1  0.2593256E-015  0.9000776E+02  0.7816164E-02  0.1186339E+00
        -11   -1    0    0    0    0  0.00000000000E+00  0.00000000000E+00  0.45593999997E+02  0.45594000000E+02  0.51100000000E-03 0. -1.
         11   -1    0    0    0    0 -0.00000000000E+00 -0.00000000000E+00 -0.45593999997E+02  0.45594000000E+02  0.51100000000E-03 0.  1.
    9900012    2    1    2    0    0 -0.98687047382E+00  0.14564983252E+00  0.63074264554E+00  0.90007761257E+02  0.90000022905E+02 0.  0.
        -12    1    1    2    0    0  0.98687047382E+00 -0.14564983252E+00 -0.63074264554E+00  0.11802387431E+01  0.00000000000E+00 0.  1.
         11    1    3    3    0    0  0.37561760202E+01 -0.77794483755E+01 -0.53054862057E+01  0.10137892259E+02  0.51100000000E-03 0. -1.
        -11    1    3    3    0    0  0.20466233802E+02  0.16353050133E+02 -0.26950108830E+02  0.37584535928E+02  0.51100000000E-03 0.  1.
         12    1    3    3    0    0 -0.25209280296E+02 -0.84279519249E+01  0.32886337681E+02  0.42285333070E+02  0.00000000000E+00 0. -1.
</event>
<event>
 7    1  0.2593256E-015  0.9000774E+02  0.7816164E-02  0.1186339E+00
        -11   -1    0    0    0    0  0.00000000000E+00  0.00000000000E+00  0.45593999997E+02  0.45594000000E+02  0.51100000000E-03 0.  1.
         11   -1    0    0    0    0 -0.00000000000E+00 -0.00000000000E+00 -0.45593999997E+02  0.45594000000E+02  0.51100000000E-03 0. -1.
    9900012    2    1    2    0    0  0.80840117572E+00  0.79399514103E+00  0.33027609672E+00  0.90007736027E+02  0.89999997343E+02 0.  0.
        -12    1    1    2    0    0 -0.80840117572E+00 -0.79399514103E+00 -0.33027609672E+00  0.11802639726E+01  0.00000000000E+00 0.  1.
         11    1    3    3    0    0 -0.18256968354E+01 -0.33468776081E+01  0.18264851689E+02  0.18658498497E+02  0.51100000000E-03 0. -1.
        -11    1    3    3    0    0  0.33922124514E+02 -0.90174666604E+01 -0.98819573726E+01  0.36464754466E+02  0.51100000000E-03 0.  1.
         12    1    3    3    0    0 -0.31288026503E+02  0.13158339409E+02 -0.80526182199E+01  0.34884483064E+02  0.00000000000E+00 0. -1.
</event>
<event>
 7    1  0.2593256E-015  0.9000779E+02  0.7816164E-02  0.1186339E+00
        -11   -1    0    0    0    0  0.00000000000E+00  0.00000000000E+00  0.45593999997E+02  0.45594000000E+02  0.51100000000E-03 0. -1.
         11   -1    0    0    0    0 -0.00000000000E+00 -0.00000000000E+00 -0.45593999997E+02  0.45594000000E+02  0.51100000000E-03 0.  1.
    9900012    2    1    2    0    0  0.92505096574E+00 -0.48004788244E+00  0.55382906591E+00  0.90007791589E+02  0.90000053638E+02 0.  0.
        -12    1    1    2    0    0 -0.92505096574E+00  0.48004788244E+00 -0.55382906591E+00  0.11802084108E+01  0.00000000000E+00 0.  1.
         11    1    3    3    0    0  0.70889689153E+01 -0.10236070066E+01 -0.37776721487E+02  0.38449732615E+02  0.51100000000E-03 0. -1.
        -11    1    3    3    0    0 -0.79142292332E+00  0.54319048789E+01 -0.51188905865E+01  0.75056633254E+01  0.51100000000E-03 0.  1.
         12    1    3    3    0    0 -0.53724950263E+01 -0.48883457548E+01  0.43449441140E+02  0.44052395649E+02  0.00000000000E+00 0. -1.
</event>
<event>
 7    1  0.2593256E-015  0.9000781E+02  0.7816164E-02  0.1186339E+00
        -11   -1    0    0    0    0  0.00000000000E+00  0.00000000000E+00  0.45593999997E+02  0.45594000000E+02  0.51100000000E-03 0. -1.
         11   -1    0    0    0    0 -0.00000000000E+00 -0.00000000000E+00 -0.45593999997E+02  0.45594000000E+02  0.51100000000E-03 0.  1.
    9900012    2    1    2    0    0  0.14484976151E-01  0.47753301944E+00  0.10791708095E+01  0.90007806272E+02  0.90000068515E+02 0.  0.
        -12    1    1    2    0    0 -0.14484976151E-01 -0.47753301944E+00 -0.10791708095E+01  0.11801937279E+01  0.00000000000E+00 0.  1.
         11    1    3    3    0    0  0.36699844394E+02 -0.11690590694E+02 -0.12053233554E+02  0.40358752814E+02  0.51100000000E-03 0. -1.
        -11    1    3    3    0    0 -0.23502910845E+00 -0.45824506832E+01  0.79792480765E+01  0.92044822274E+01  0.51100000000E-03 0.  1.
        -12    1    3    3    0    0 -0.36450330310E+02  0.16750574397E+02  0.51531562865E+01  0.40444571231E+02  0.00000000000E+00 0.  1.
</event>
<event>
 7    1  0.2593256E-015  0.9000773E+02  0.7816164E-02  0.1186339E+00
        -11   -1    0    0    0    0  0.00000000000E+00  0.00000000000E+00  0.45593999997E+02  0.45594000000E+02  0.51100000000E-03 0. -1.
         11   -1    0    0    0    0 -0.00000000000E+00 -0.00000000000E+00 -0.45593999997E+02  0.45594000000E+02  0.51100000000E-03 0.  1.
    9900012    2    1    2    0    0  0.26496572047E+00 -0.11124350401E+01  0.29209696759E+00  0.90007729188E+02  0.89999990413E+02 0.  0.
        -12    1    1    2    0    0 -0.26496572047E+00  0.11124350401E+01 -0.29209696759E+00  0.11802708121E+01  0.00000000000E+00 0.  1.
         11    1    3    3    0    0 -0.72405230586E+01  0.16006049875E+01  0.87060827204E+01  0.11436038959E+02  0.51100000000E-03 0. -1.
        -11    1    3    3    0    0 -0.22586312259E+02  0.47390784596E+01 -0.32116169299E+02  0.39548055537E+02  0.51100000000E-03 0.  1.
         12    1    3    3    0    0  0.30091801038E+02 -0.74521184872E+01  0.23702183546E+02  0.39023634691E+02  0.00000000000E+00 0. -1.
</event>
<event>
 7    1  0.2593256E-015  0.9000761E+02  0.7816164E-02  0.1186339E+00
        -11   -1    0    0    0    0  0.00000000000E+00  0.00000000000E+00  0.45593999997E+02  0.45594000000E+02  0.51100000000E-03 0.  1.
         11   -1    0    0    0    0 -0.00000000000E+00 -0.00000000000E+00 -0.45593999997E+02  0.45594000000E+02  0.51100000000E-03 0. -1.
    9900012    2    1    2    0    0  0.55727075044E+00  0.21403229006E+00 -0.10183065688E+01  0.90007614987E+02  0.89999874705E+02 0.  0.
        -12    1    1    2    0    0 -0.55727075044E+00 -0.21403229006E+00  0.10183065688E+01  0.11803850129E+01  0.00000000000E+00 0.  1.
         11    1    3    3    0    0 -0.19446306987E+02  0.24310432329E+02 -0.18191574931E+02  0.36056752130E+02  0.51100000000E-03 0. -1.
        -11    1    3    3    0    0 -0.12053056196E+02 -0.77314033646E+01  0.61586745204E+00  0.14332831354E+02  0.51100000000E-03 0.  1.
        -12    1    3    3    0    0  0.32056633933E+02 -0.16364996674E+02  0.16557400910E+02  0.39618031503E+02  0.00000000000E+00 0.  1.
</event>
<event>
 7    1  0.2593256E-015  0.9000774E+02  0.7816164E-02  0.1186339E+00
        -11   -1    0    0    0    0  0.00000000000E+00  0.00000000000E+00  0.45593999997E+02  0.45594000000E+02  0.51100000000E-03 0. -1.
         11   -1    0    0    0    0 -0.00000000000E+00 -0.00000000000E+00 -0.45593999997E+02  0.45594000000E+02  0.51100000000E-03 0.  1.
    9900012    2    1    2    0    0 -0.10972871350E+01  0.43225815445E+00 -0.46199278810E-01  0.90007737088E+02  0.89999998417E+02 0.  0.
        -12    1    1    2    0    0  0.10972871350E+01 -0.43225815445E+00  0.46199278810E-01  0.11802629123E+01  0.00000000000E+00 0.  1.
         11    1    3    3    0    0  0.27325143772E+01  0.52730054467E+01 -0.91673691332E+01  0.10922997681E+02  0.51100000000E-03 0. -1.
        -11    1    3    3    0    0  0.15411169219E+02 -0.16521170552E+02 -0.27812418325E+02  0.35832720054E+02  0.51100000000E-03 0.  1.
         12    1    3    3    0    0 -0.19240970732E+02  0.11680423260E+02  0.36933588180E+02  0.43252019352E+02  0.00000000000E+00 0. -1.
</event>
<event>
 7    1  0.2593256E-015  0.9000770E+02  0.7816164E-02  0.1186339E+00
        -11   -1    0    0    0    0  0.00000000000E+00  0.00000000000E+00  0.45593999997E+02  0.45594000000E+02  0.51100000000E-03 0. -1.
         11   -1    0    0    0    0 -0.00000000000E+00 -0.00000000000E+00 -0.45593999997E+02  0.45594000000E+02  0.51100000000E-03 0.  1.
    9900012    2    1    2    0    0  0.85011387132E+00  0.63500751664E+00 -0.51690175364E+00  0.90007696834E+02  0.89999957632E+02 0.  0.
        -12    1    1    2    0    0 -0.85011387132E+00 -0.63500751664E+00  0.51690175364E+00  0.11803031658E+01  0.00000000000E+00 0.  1.
         11    1    3    3    0    0  0.17699971347E+02 -0.13480950455E+02  0.28865021114E+02  0.36444676635E+02  0.51100000000E-03 0. -1.
        -11    1    3    3    0    0  0.65918511381E+01 -0.28512377942E+01  0.49045834890E+01  0.86969533659E+01  0.51100000000E-03 0.  1.
        -12    1    3    3    0    0 -0.23441708614E+02  0.16967195766E+02 -0.34286506357E+02  0.44866066833E+02  0.00000000000E+00 0.  1.
</event>
<event>
 7    1  0.2593256E-015  0.9000759E+02  0.7816164E-02  0.1186339E+00
        -11   -1    0    0    0    0  0.00000000000E+00  0.00000000000E+00  0.45593999997E+02  0.45594000000E+02  0.51100000000E-03 0.  1.
         11   -1    0    0    0    0 -0.00000000000E+00 -0.00000000000E+00 -0.45593999997E+02  0.45594000000E+02  0.51100000000E-03 0. -1.
    9900012    2    1    2    0    0  0.17214587623E+00  0.11397229302E+01  0.25450498139E+00  0.90007586790E+02  0.89999846136E+02 0.  0.
        -12    1    1    2    0    0 -0.17214587623E+00 -0.11397229302E+01 -0.25450498139E+00  0.11804132098E+01  0.00000000000E+00 0.  1.
         11    1    3    3    0    0 -0.68029508320E+01  0.47691568238E+01  0.48719588775E+01  0.96312501991E+01  0.51100000000E-03 0. -1.
        -11    1    3    3    0    0  0.23456118099E+02  0.25567886977E+02 -0.23490960540E+02  0.41901450430E+02  0.51100000000E-03 0.  1.
         12    1    3    3    0    0 -0.16481021391E+02 -0.29197320871E+02  0.18873506644E+02  0.38474886162E+02  0.00000000000E+00 0. -1.
</event>
<event>
 7    1  0.2593256E-015  0.9000782E+02  0.7816164E-02  0.1186339E+00
        -11   -1    0    0    0    0  0.00000000000E+00  0.00000000000E+00  0.45593999997E+02  0.45594000000E+02  0.51100000000E-03 0. -1.
         11   -1    0    0    0    0 -0.00000000000E+00 -0.00000000000E+00 -0.45593999997E+02  0.45594000000E+02  0.51100000000E-03 0.  1.
    9900012    2    1    2    0    0  0.63318535184E+00  0.56795389855E+00  0.81812223905E+00  0.90007822336E+02  0.90000084791E+02 0.  0.
        -12    1    1    2    0    0 -0.63318535184E+00 -0.56795389855E+00 -0.81812223905E+00  0.11801776640E+01  0.00000000000E+00 0.  1.
         11    1    3    3    0    0 -0.12348332659E+01 -0.10630069597E+02  0.60459355959E+00  0.10718615884E+02  0.51100000000E-03 0. -1.
        -11    1    3    3    0    0  0.27016059756E+02 -0.19691492256E+02  0.15209268379E+02  0.36727975671E+02  0.51100000000E-03 0.  1.
         12    1    3    3    0    0 -0.25148041138E+02  0.30889515752E+02 -0.14995739700E+02  0.42561230781E+02  0.00000000000E+00 0. -1.
</event>
<event>
 7    1  0.2593256E-015  0.9000775E+02  0.7816164E-02  0.1186339E+00
        -11   -1    0    0    0    0  0.00000000000E+00  0.00000000000E+00  0.45593999997E+02  0.45594000000E+02  0.51100000000E-03 0.  1.
         11   -1    0    0    0    0 -0.00000000000E+00 -0.00000000000E+00 -0.45593999997E+02  0.45594000000E+02  0.51100000000E-03 0. -1.
    9900012    2    1    2    0    0 -0.10420469573E+01 -0.39936632872E+00 -0.38422055690E+00  0.90007753940E+02  0.90000015492E+02 0.  0.
        -12    1    1    2    0    0  0.10420469573E+01  0.39936632872E+00  0.38422055690E+00  0.11802460599E+01  0.00000000000E+00 0.  1.
         11    1    3    3    0    0  0.23605504269E+01 -0.17325541089E+02 -0.32037886894E+02  0.36498942029E+02  0.51100000000E-03 0. -1.
        -11    1    3    3    0    0  0.98723885975E+01 -0.28313870512E+01 -0.36762107885E+01  0.10908498305E+02  0.51100000000E-03 0.  1.
        -12    1    3    3    0    0 -0.13274985982E+02  0.19757561811E+02  0.35329877126E+02  0.42600313605E+02  0.00000000000E+00 0.  1.
</event>
<event>
 7    1  0.2593256E-015  0.9000773E+02  0.7816164E-02  0.1186339E+00
        -11   -1    0    0    0    0  0.00000000000E+00  0.00000000000E+00  0.45593999997E+02  0.45594000000E+02  0.51100000000E-03 0. -1.
         11   -1    0    0    0    0 -0.00000000000E+00 -0.00000000000E+00 -0.45593999997E+02  0.45594000000E+02  0.51100000000E-03 0.  1.
    9900012    2    1    2    0    0  0.47989235620E+00 -0.75186637295E-01 -0.10756788143E+01  0.90007731126E+02  0.89999992377E+02 0.  0.
        -12    1    1    2    0    0 -0.47989235620E+00  0.75186637295E-01  0.10756788143E+01  0.11802688743E+01  0.00000000000E+00 0.  1.
         11    1    3    3    0    0 -0.11443147331E+02 -0.14728449671E+02  0.17220675229E+02  0.25385517646E+02  0.51100000000E-03 0. -1.
        -11    1    3    3    0    0 -0.17553225725E+02 -0.35735395694E+01  0.94261532143E+01  0.20241993061E+02  0.51100000000E-03 0.  1.
        -12    1    3    3    0    0  0.29476265412E+02  0.18226802603E+02 -0.27722507258E+02  0.44380220419E+02  0.00000000000E+00 0.  1.
</event>
<event>
 7    1  0.2593256E-015  0.9000774E+02  0.7816164E-02  0.1186339E+00
        -11   -1    0    0    0    0  0.00000000000E+00  0.00000000000E+00  0.45593999997E+02  0.45594000000E+02  0.51100000000E-03 0.  1.
         11   -1    0    0    0    0 -0.00000000000E+00 -0.00000000000E+00 -0.45593999997E+02  0.45594000000E+02  0.51100000000E-03 0. -1.
    9900012    2    1    2    0    0 -0.36275123161E+00  0.11113791077E+01 -0.16203609909E+00  0.90007742539E+02  0.90000003940E+02 0.  0.
        -12    1    1    2    0    0  0.36275123161E+00 -0.11113791077E+01  0.16203609909E+00  0.11802574611E+01  0.00000000000E+00 0.  1.
         11    1    3    3    0    0  0.22992082011E+01 -0.45583136205E+01 -0.10958452907E+02  0.12089345383E+02  0.51100000000E-03 0. -1.
        -11    1    3    3    0    0 -0.31734684860E+02 -0.20682047745E+02  0.39105834384E+01  0.38080572280E+02  0.51100000000E-03 0.  1.
         12    1    3    3    0    0  0.29072725427E+02  0.26351740473E+02  0.68858333692E+01  0.39837824876E+02  0.00000000000E+00 0. -1.
</event>
<event>
 7    1  0.2593256E-015  0.9000765E+02  0.7816164E-02  0.1186339E+00
        -11   -1    0    0    0    0  0.00000000000E+00  0.00000000000E+00  0.45593999997E+02  0.45594000000E+02  0.51100000000E-03 0. -1.
         11   -1    0    0    0    0 -0.00000000000E+00 -0.00000000000E+00 -0.45593999997E+02  0.45594000000E+02  0.51100000000E-03 0.  1.
    9900012    2    1    2    0    0  0.10046917225E+01  0.19928104532E+00  0.58660956456E+00  0.90007648708E+02  0.89999908870E+02 0.  0.
        -12    1    1    2    0    0 -0.10046917225E+01 -0.19928104532E+00 -0.58660956456E+00  0.11803512924E+01  0.00000000000E+00 0.  1.
         11    1    3    3    0    0  0.19150714645E+02  0.25785372451E+01 -0.67770144510E+01  0.20477466906E+02  0.51100000000E-03 0. -1.
        -11    1    3    3    0    0 -0.25864739171E+01 -0.32616481697E+02 -0.54900517598E+01  0.33176277582E+02  0.51100000000E-03 0.  1.
         12    1    3    3    0    0 -0.15559549006E+02  0.30237225498E+02  0.12853675775E+02  0.36353904219E+02  0.00000000000E+00 0. -1.
</event>
<event>
 7    1  0.2593256E-015  0.9000773E+02  0.7816164E-02  0.1186339E+00
        -11   -1    0    0    0    0  0.00000000000E+00  0.00000000000E+00  0.45593999997E+02  0.45594000000E+02  0.51100000000E-03 0.  1.
         11   -1    0    0    0    0 -0.00000000000E+00 -0.00000000000E+00 -0.45593999997E+02  0.45594000000E+02  0.51100000000E-03 0. -1.
    9900012    2    1    2    0    0  0.76922561578E+00  0.88761897811E+00 -0.11600383409E+00  0.90007732069E+02  0.89999993333E+02 0.  0.
        -12    1    1    2    0    0 -0.76922561578E+00 -0.88761897811E+00  0.11600383409E+00  0.11802679305E+01  0.00000000000E+00 0.  1.
         11    1    3    3    0    0  0.12660094534E+02  0.36678246742E+02 -0.46444387082E+01  0.39078671790E+02  0.51100000000E-03 0. -1.
        -11    1    3    3    0    0  0.68493942479E+01 -0.15317085009E+01 -0.73005891132E+01  0.10127138498E+02  0.51100000000E-03 0.  1.
        -12    1    3    3    0    0 -0.18740263166E+02 -0.34258919263E+02  0.11829023987E+02  0.40801921782E+02  0.00000000000E+00 0.  1.
</event>
<event>
 7    1  0.2593256E-015  0.9000775E+02  0.7816164E-02  0.1186339E+00
        -11   -1    0    0    0    0  0.00000000000E+00  0.00000000000E+00  0.45593999997E+02  0.45594000000E+02  0.51100000000E-03 0.  1.
         11   -1    0    0    0    0 -0.00000000000E+00 -0.00000000000E+00 -0.45593999997E+02  0.45594000000E+02  0.51100000000E-03 0. -1.
    9900012    2    1    2    0    0 -0.48744119976E+00 -0.24354552084E+00 -0.10469320091E+01  0.90007754273E+02  0.90000015830E+02 0.  0.
        -12    1    1    2    0    0  0.48744119976E+00  0.24354552084E+00  0.10469320091E+01  0.11802457268E+01  0.00000000000E+00 0.  1.
         11    1    3    3    0    0 -0.94399666126E+01 -0.21776900259E+01 -0.44166690684E+00  0.96979571773E+01  0.51100000000E-03 0. -1.
        -11    1    3    3    0    0 -0.31826715150E+02  0.93604200928E+01  0.14484149915E+02  0.36198727334E+02  0.51100000000E-03 0.  1.
         12    1    3    3    0    0  0.40779240563E+02 -0.74262755878E+01 -0.15089415017E+02  0.44111069762E+02  0.00000000000E+00 0. -1.
</event>
<event>
 7    1  0.2593256E-015  0.9000770E+02  0.7816164E-02  0.1186339E+00
        -11   -1    0    0    0    0  0.00000000000E+00  0.00000000000E+00  0.45593999997E+02  0.45594000000E+02  0.51100000000E-03 0. -1.
         11   -1    0    0    0    0 -0.00000000000E+00 -0.00000000000E+00 -0.45593999997E+02  0.45594000000E+02  0.51100000000E-03 0.  1.
    9900012    2    1    2    0    0  0.48231356689E+00  0.44171110060E+00  0.98253042921E+00  0.90007702954E+02  0.89999963833E+02 0.  0.
        -12    1    1    2    0    0 -0.48231356689E+00 -0.44171110060E+00 -0.98253042921E+00  0.11802970463E+01  0.00000000000E+00 0.  1.
         11    1    3    3    0    0 -0.35792643239E+01  0.64844885226E+01 -0.92601695566E+00  0.74643976424E+01  0.51100000000E-03 0. -1.
        -11    1    3    3    0    0  0.10300725503E+02 -0.51313821532E+01 -0.39251166861E+02  0.40903424415E+02  0.51100000000E-03 0.  1.
         12    1    3    3    0    0 -0.62391476121E+01 -0.91139526881E+00  0.41159714246E+02  0.41639880896E+02  0.00000000000E+00 0. -1.
</event>
<event>
 7    1  0.2593256E-015  0.9000771E+02  0.7816164E-02  0.1186339E+00
        -11   -1    0    0    0    0  0.00000000000E+00  0.00000000000E+00  0.45593999997E+02  0.45594000000E+02  0.51100000000E-03 0. -1.
         11   -1    0    0    0    0 -0.00000000000E+00 -0.00000000000E+00 -0.45593999997E+02  0.45594000000E+02  0.51100000000E-03 0.  1.
    9900012    2    1    2    0    0 -0.95733692146E+00  0.42383051261E+00 -0.54494435927E+00  0.90007707393E+02  0.89999968330E+02 0.  0.
        -12    1    1    2    0    0  0.95733692146E+00 -0.42383051261E+00  0.54494435927E+00  0.11802926075E+01  0.00000000000E+00 0.  1.
         11    1    3    3    0    0 -0.45790092789E-01 -0.89420105783E+01 -0.13270924883E+02  0.16002471604E+02  0.51100000000E-03 0. -1.
        -11    1    3    3    0    0  0.25382688161E+01  0.29112280404E+02 -0.20152574431E+02  0.35497801838E+02  0.51100000000E-03 0.  1.
         12    1    3    3    0    0 -0.34498156448E+01 -0.19746439313E+02  0.32878554955E+02  0.38507433950E+02  0.00000000000E+00 0. -1.
</event>
<event>
 7    1  0.2593256E-015  0.9000765E+02  0.7816164E-02  0.1186339E+00
        -11   -1    0    0    0    0  0.00000000000E+00  0.00000000000E+00  0.45593999997E+02  0.45594000000E+02  0.51100000000E-03 0.  1.
         11   -1    0    0    0    0 -0.00000000000E+00 -0.00000000000E+00 -0.45593999997E+02  0.45594000000E+02  0.51100000000E-03 0. -1.
    9900012    2    1    2    0    0 -0.69157089627E-01 -0.61343030132E+00 -0.10060528926E+01  0.90007651805E+02  0.89999912009E+02 0.  0.
        -12    1    1    2    0    0  0.69157089627E-01  0.61343030132E+00  0.10060528926E+01  0.11803481946E+01  0.00000000000E+00 0.  1.
         11    1    3    3    0    0  0.24012858731E+01 -0.96353255511E+01  0.94337091282E+00  0.99747491828E+01  0.51100000000E-03 0. -1.
        -11    1    3    3    0    0 -0.65470619257E+01 -0.30419847359E+02  0.17679842803E+02  0.35788377653E+02  0.51100000000E-03 0.  1.
         12    1    3    3    0    0  0.40766189629E+01  0.39441742609E+02 -0.19629266609E+02  0.44244524970E+02  0.00000000000E+00 0. -1.
</event>
<event>
 7    1  0.2593256E-015  0.9000786E+02  0.7816164E-02  0.1186339E+00
        -11   -1    0    0    0    0  0.00000000000E+00  0.00000000000E+00  0.45593999997E+02  0.45594000000E+02  0.51100000000E-03 0.  1.
         11   -1    0    0    0    0 -0.00000000000E+00 -0.00000000000E+00 -0.45593999997E+02  0.45594000000E+02  0.51100000000E-03 0. -1.
    9900012    2    1    2    0    0 -0.36589754064E-01  0.31414410373E-01 -0.11791582939E+01  0.90007855959E+02  0.90000118858E+02 0.  0.
        -12    1    1    2    0    0  0.36589754064E-01 -0.31414410373E-01  0.11791582939E+01  0.11801440409E+01  0.00000000000E+00 0.  1.
         11    1    3    3    0    0  0.14433352991E+02  0.30807909067E+02  0.22259176201E+02  0.40656117191E+02  0.51100000000E-03 0. -1.
        -11    1    3    3    0    0  0.75958234821E+01 -0.42101527019E+01 -0.28244438211E+01  0.91323273761E+01  0.51100000000E-03 0.  1.
        -12    1    3    3    0    0 -0.22065766227E+02 -0.26566341955E+02 -0.20613890673E+02  0.40219411392E+02  0.00000000000E+00 0.  1.
</event>
<event>
 7    1  0.2593256E-015  0.9000778E+02  0.7816164E-02  0.1186339E+00
        -11   -1    0    0    0    0  0.00000000000E+00  0.00000000000E+00  0.45593999997E+02  0.45594000000E+02  0.51100000000E-03 0. -1.
         11   -1    0    0    0    0 -0.00000000000E+00 -0.00000000000E+00 -0.45593999997E+02  0.45594000000E+02  0.51100000000E-03 0.  1.
    9900012    2    1    2    0    0  0.38231458478E-01 -0.92775143165E+00  0.72850830952E+00  0.90007784460E+02  0.90000046415E+02 0.  0.
        -12    1    1    2    0    0 -0.38231458478E-01  0.92775143165E+00 -0.72850830952E+00  0.11802155398E+01  0.00000000000E+00 0.  1.
         11    1    3    3    0    0  0.69562361855E+01 -0.33420633776E+00  0.36962559201E+02  0.37612919306E+02  0.51100000000E-03 0. -1.
        -11    1    3    3    0    0 -0.41525909554E+01 -0.26970757021E+01  0.72459717436E+01  0.87762369929E+01  0.51100000000E-03 0.  1.
        -12    1    3    3    0    0 -0.27654137717E+01  0.21035306082E+01 -0.43480022635E+02  0.43618628162E+02  0.00000000000E+00 0.  1.
</event>
<event>
 7    1  0.2593256E-015  0.9000747E+02  0.7816164E-02  0.1186340E+00
        -11   -1    0    0    0    0  0.00000000000E+00  0.00000000000E+00  0.45593999997E+02  0.45594000000E+02  0.51100000000E-03 0.  1.
         11   -1    0    0    0    0 -0.00000000000E+00 -0.00000000000E+00 -0.45593999997E+02  0.45594000000E+02  0.51100000000E-03 0. -1.
    9900012    2    1    2    0    0  0.42578565074E+00  0.22502556152E+00 -0.10778298489E+01  0.90007471683E+02  0.89999729509E+02 0.  0.
        -12    1    1    2    0    0 -0.42578565074E+00 -0.22502556152E+00  0.10778298489E+01  0.11805283168E+01  0.00000000000E+00 0.  1.
         11    1    3    3    0    0 -0.34451166473E+02  0.14448942557E+02  0.15901205086E+01  0.37392289257E+02  0.51100000000E-03 0. -1.
        -11    1    3    3    0    0 -0.32829459976E+01  0.54766457468E+01 -0.69728781491E+01  0.94547561048E+01  0.51100000000E-03 0.  1.
        -12    1    3    3    0    0  0.38159898121E+02 -0.19700562742E+02  0.43049277917E+01  0.43160426322E+02  0.00000000000E+00 0.  1.
</event>
<event>
 7    1  0.2593256E-015  0.9000777E+02  0.7816164E-02  0.1186339E+00
        -11   -1    0    0    0    0  0.00000000000E+00  0.00000000000E+00  0.45593999997E+02  0.45594000000E+02  0.51100000000E-03 0.  1.
         11   -1    0    0    0    0 -0.00000000000E+00 -0.00000000000E+00 -0.45593999997E+02  0.45594000000E+02  0.51100000000E-03 0. -1.
    9900012    2    1    2    0    0 -0.15124365157E+00  0.11569742650E+01 -0.17740833473E+00  0.90007772137E+02  0.90000033929E+02 0.  0.
        -12    1    1    2    0    0  0.15124365157E+00 -0.11569742650E+01  0.17740833473E+00  0.11802278633E+01  0.00000000000E+00 0.  1.
         11    1    3    3    0    0 -0.16109568306E+02  0.61453629020E+01 -0.20355565527E+02  0.26676445123E+02  0.51100000000E-03 0. -1.
        -11    1    3    3    0    0 -0.20321564605E+02  0.46106388124E+01  0.24874570517E+00  0.20839526217E+02  0.51100000000E-03 0.  1.
        -12    1    3    3    0    0  0.36279889260E+02 -0.95990274494E+01  0.19929411487E+02  0.42491800796E+02  0.00000000000E+00 0.  1.
</event>
<event>
 7    1  0.2593256E-015  0.9000747E+02  0.7816164E-02  0.1186340E+00
        -11   -1    0    0    0    0  0.00000000000E+00  0.00000000000E+00  0.45593999997E+02  0.45594000000E+02  0.51100000000E-03 0. -1.
         11   -1    0    0    0    0 -0.00000000000E+00 -0.00000000000E+00 -0.45593999997E+02  0.45594000000E+02  0.51100000000E-03 0.  1.
    9900012    2    1    2    0    0 -0.60509870224E+00  0.37021616410E+00  0.94362869367E+00  0.90007474880E+02  0.89999732748E+02 0.  0.
        -12    1    1    2    0    0  0.60509870224E+00 -0.37021616410E+00 -0.94362869367E+00  0.11805251201E+01  0.00000000000E+00 0.  1.
         11    1    3    3    0    0 -0.13178066727E+02  0.27499756304E+02  0.10510036862E+02  0.32254595247E+02  0.51100000000E-03 0. -1.
        -11    1    3    3    0    0 -0.16984967172E+02 -0.78371376409E+01  0.53163502402E+01  0.19446681372E+02  0.51100000000E-03 0.  1.
        -12    1    3    3    0    0  0.29557935197E+02 -0.19292402499E+02 -0.14882758409E+02  0.38306198261E+02  0.00000000000E+00 0.  1.
</event>
<event>
 7    1  0.2593256E-015  0.9000700E+02  0.7816164E-02  0.1186341E+00
        -11   -1    0    0    0    0  0.00000000000E+00  0.00000000000E+00  0.45593999997E+02  0.45594000000E+02  0.51100000000E-03 0. -1.
         11   -1    0    0    0    0 -0.00000000000E+00 -0.00000000000E+00 -0.45593999997E+02  0.45594000000E+02  0.51100000000E-03 0.  1.
    9900012    2    1    2    0    0  0.21269410172E+00 -0.10677926776E+01  0.45754139885E+00  0.90006998681E+02  0.89999250261E+02 0.  0.
        -12    1    1    2    0    0 -0.21269410172E+00  0.10677926776E+01 -0.45754139885E+00  0.11810013187E+01  0.00000000000E+00 0.  1.
         11    1    3    3    0    0  0.28679246942E+01  0.47970703835E+01  0.66566455978E+01  0.86918241579E+01  0.51100000000E-03 0. -1.
        -11    1    3    3    0    0 -0.42109563353E+01 -0.42830976508E+02 -0.98074361003E+01  0.44140803176E+02  0.51100000000E-03 0.  1.
         12    1    3    3    0    0  0.15557257428E+01  0.36966113447E+02  0.36083319014E+01  0.37174371347E+02  0.00000000000E+00 0. -1.
</event>
<event>
 7    1  0.2593256E-015  0.9000768E+02  0.7816164E-02  0.1186339E+00
        -11   -1    0    0    0    0  0.00000000000E+00  0.00000000000E+00  0.45593999997E+02  0.45594000000E+02  0.51100000000E-03 0.  1.
         11   -1    0    0    0    0 -0.00000000000E+00 -0.00000000000E+00 -0.45593999997E+02  0.45594000000E+02  0.51100000000E-03 0. -1.
    9900012    2    1    2    0    0 -0.30279906733E+00 -0.69050067947E+00 -0.90811204347E+00  0.90007683963E+02  0.89999944591E+02 0.  0.
        -12    1    1    2    0    0  0.30279906733E+00  0.69050067947E+00  0.90811204347E+00  0.11803160369E+01  0.00000000000E+00 0.  1.
         11    1    3    3    0    0 -0.15566862838E+02  0.88436361181E+01 -0.37834075398E+02  0.41856354116E+02  0.51100000000E-03 0. -1.
        -11    1    3    3    0    0 -0.14118778926E-02 -0.76651418372E+01 -0.50725981138E+00  0.76819082366E+01  0.51100000000E-03 0.  1.
        -12    1    3    3    0    0  0.15265475648E+02 -0.18689949603E+01  0.37433223166E+02  0.40469421611E+02  0.00000000000E+00 0.  1.
</event>
<event>
 7    1  0.2593256E-015  0.9000773E+02  0.7816164E-02  0.1186339E+00
        -11   -1    0    0    0    0  0.00000000000E+00  0.00000000000E+00  0.45593999997E+02  0.45594000000E+02  0.51100000000E-03 0.  1.
         11   -1    0    0    0    0 -0.00000000000E+00 -0.00000000000E+00 -0.45593999997E+02  0.45594000000E+02  0.51100000000E-03 0. -1.
    9900012    2    1    2    0    0  0.25534785250E+00 -0.80488457785E+00 -0.82462447335E+00  0.90007725781E+02  0.89999986962E+02 0.  0.
        -12    1    1    2    0    0 -0.25534785250E+00  0.80488457785E+00  0.82462447335E+00  0.11802742188E+01  0.00000000000E+00 0.  1.
         11    1    3    3    0    0  0.68057915085E+01  0.33817123661E+02 -0.19090581525E+02  0.39425460733E+02  0.51100000000E-03 0. -1.
        -11    1    3    3    0    0 -0.50042604582E+00  0.59627954310E+01  0.37263318152E+01  0.70491775859E+01  0.51100000000E-03 0.  1.
        -12    1    3    3    0    0 -0.60500176102E+01 -0.40584803670E+02  0.14539625237E+02  0.43533087463E+02  0.00000000000E+00 0.  1.
</event>
<event>
 7    1  0.2593256E-015  0.9000751E+02  0.7816164E-02  0.1186340E+00
        -11   -1    0    0    0    0  0.00000000000E+00  0.00000000000E+00  0.45593999997E+02  0.45594000000E+02  0.51100000000E-03 0.  1.
         11   -1    0    0    0    0 -0.00000000000E+00 -0.00000000000E+00 -0.45593999997E+02  0.45594000000E+02  0.51100000000E-03 0. -1.
    9900012    2    1    2    0    0 -0.26966623200E+00 -0.74913985690E+00 -0.87156321768E+00  0.90007511608E+02  0.89999769961E+02 0.  0.
        -12    1    1    2    0    0  0.26966623200E+00  0.74913985690E+00  0.87156321768E+00  0.11804883923E+01  0.00000000000E+00 0.  1.
         11    1    3    3    0    0  0.78004950970E+01  0.37679522500E+02  0.15609797176E+01  0.38510138893E+02  0.51100000000E-03 0. -1.
        -11    1    3    3    0    0 -0.23700702637E+01  0.28765421033E+01  0.77286835772E+01  0.85804590567E+01  0.51100000000E-03 0.  1.
        -12    1    3    3    0    0 -0.57000910653E+01 -0.41305204461E+02 -0.10161226512E+02  0.42916913658E+02  0.00000000000E+00 0.  1.
</event>
<event>
 7    1  0.2593256E-015  0.9000770E+02  0.7816164E-02  0.1186339E+00
        -11   -1    0    0    0    0  0.00000000000E+00  0.00000000000E+00  0.45593999997E+02  0.45594000000E+02  0.51100000000E-03 0.  1.
         11   -1    0    0    0    0 -0.00000000000E+00 -0.00000000000E+00 -0.45593999997E+02  0.45594000000E+02  0.51100000000E-03 0. -1.
    9900012    2    1    2    0    0  0.56528265240E+00 -0.68793586848E+00 -0.77479113930E+00  0.90007702772E+02  0.89999963649E+02 0.  0.
        -12    1    1    2    0    0 -0.56528265240E+00  0.68793586848E+00  0.77479113930E+00  0.11802972277E+01  0.00000000000E+00 0.  1.
         11    1    3    3    0    0  0.81468598334E+01 -0.35030671043E+02 -0.22320073921E+02  0.42328535753E+02  0.51100000000E-03 0. -1.
        -11    1    3    3    0    0  0.30639307861E+01 -0.12388465069E+01  0.70952595109E+01  0.78272038633E+01  0.51100000000E-03 0.  1.
        -12    1    3    3    0    0 -0.10645507967E+02  0.35581581682E+02  0.14450023271E+02  0.39851963156E+02  0.00000000000E+00 0.  1.
</event>
<event>
 7    1  0.2593256E-015  0.9000697E+02  0.7816164E-02  0.1186341E+00
        -11   -1    0    0    0    0  0.00000000000E+00  0.00000000000E+00  0.45593999997E+02  0.45594000000E+02  0.51100000000E-03 0.  1.
         11   -1    0    0    0    0 -0.00000000000E+00 -0.00000000000E+00 -0.45593999997E+02  0.45594000000E+02  0.51100000000E-03 0. -1.
    9900012    2    1    2    0    0  0.38808592003E+00 -0.54392651684E-01 -0.11141191472E+01  0.90006970485E+02  0.89999221692E+02 0.  0.
        -12    1    1    2    0    0 -0.38808592003E+00  0.54392651684E-01  0.11141191472E+01  0.11810295153E+01  0.00000000000E+00 0.  1.
         11    1    3    3    0    0 -0.29210874219E+02  0.64506380654E+01 -0.20554562591E+02  0.36295673952E+02  0.51100000000E-03 0. -1.
        -11    1    3    3    0    0 -0.86847552150E+01 -0.66959712241E+01  0.44928565261E+00  0.10975557464E+02  0.51100000000E-03 0.  1.
        -12    1    3    3    0    0  0.38283715354E+02  0.19094050697E+00  0.18991157791E+02  0.42735739069E+02  0.00000000000E+00 0.  1.
</event>
<event>
 7    1  0.2593256E-015  0.9000774E+02  0.7816164E-02  0.1186339E+00
        -11   -1    0    0    0    0  0.00000000000E+00  0.00000000000E+00  0.45593999997E+02  0.45594000000E+02  0.51100000000E-03 0. -1.
         11   -1    0    0    0    0 -0.00000000000E+00 -0.00000000000E+00 -0.45593999997E+02  0.45594000000E+02  0.51100000000E-03 0.  1.
    9900012    2    1    2    0    0 -0.57106997460E+00 -0.10157867978E+01  0.18729229719E+00  0.90007736411E+02  0.89999997732E+02 0.  0.
        -12    1    1    2    0    0  0.57106997460E+00  0.10157867978E+01 -0.18729229719E+00  0.11802635888E+01  0.00000000000E+00 0.  1.
         11    1    3    3    0    0 -0.34468774557E+02 -0.10954950391E+02 -0.10588242984E+02  0.37685783092E+02  0.51100000000E-03 0. -1.
        -11    1    3    3    0    0 -0.53357204711E+01 -0.66627465584E+01  0.27755807010E+01  0.89758538945E+01  0.51100000000E-03 0.  1.
        -12    1    3    3    0    0  0.39233425053E+02  0.16601910151E+02  0.79999545801E+01  0.43346099425E+02  0.00000000000E+00 0.  1.
</event>
<event>
 7    1  0.2593256E-015  0.9000767E+02  0.7816164E-02  0.1186339E+00
        -11   -1    0    0    0    0  0.00000000000E+00  0.00000000000E+00  0.45593999997E+02  0.45594000000E+02  0.51100000000E-03 0.  1.
         11   -1    0    0    0    0 -0.00000000000E+00 -0.00000000000E+00 -0.45593999997E+02  0.45594000000E+02  0.51100000000E-03 0. -1.
    9900012    2    1    2    0    0  0.63092846835E+00  0.97908831582E+00 -0.19104593146E+00  0.90007668178E+02  0.89999928598E+02 0.  0.
        -12    1    1    2    0    0 -0.63092846835E+00 -0.97908831582E+00  0.19104593146E+00  0.11803318221E+01  0.00000000000E+00 0.  1.
         11    1    3    3    0    0 -0.44950210878E-01 -0.88813675774E+01 -0.87864433306E+01  0.12493290088E+02  0.51100000000E-03 0. -1.
        -11    1    3    3    0    0  0.12521846588E+02 -0.22586063029E+02  0.27840173563E+02  0.37973703393E+02  0.51100000000E-03 0.  1.
         12    1    3    3    0    0 -0.11845967909E+02  0.32446518922E+02 -0.19244776164E+02  0.39540674696E+02  0.00000000000E+00 0. -1.
</event>
<event>
 7    1  0.2593256E-015  0.9000805E+02  0.7816164E-02  0.1186338E+00
        -11   -1    0    0    0    0  0.00000000000E+00  0.00000000000E+00  0.45593999997E+02  0.45594000000E+02  0.51100000000E-03 0.  1.
         11   -1    0    0    0    0 -0.00000000000E+00 -0.00000000000E+00 -0.45593999997E+02  0.45594000000E+02  0.51100000000E-03 0. -1.
    9900012    2    1    2    0    0  0.82990588532E+00 -0.83213995667E+00 -0.10528569639E+00  0.90008048406E+02  0.90000313845E+02 0.  0.
        -12    1    1    2    0    0 -0.82990588532E+00  0.83213995667E+00  0.10528569639E+00  0.11799515939E+01  0.00000000000E+00 0.  1.
         11    1    3    3    0    0  0.20580641681E+02 -0.79855669269E+01 -0.34977246247E+02  0.41361090972E+02  0.51100000000E-03 0. -1.
        -11    1    3    3    0    0  0.40909941641E+01  0.62012780210E+01  0.14302784733E+01  0.75655653534E+01  0.51100000000E-03 0.  1.
        -12    1    3    3    0    0 -0.23841729960E+02  0.95214894922E+00  0.33441682077E+02  0.41081392080E+02  0.00000000000E+00 0.  1.
</event>
<event>
 7    1  0.2593256E-015  0.9000775E+02  0.7816164E-02  0.1186339E+00
        -11   -1    0    0    0    0  0.00000000000E+00  0.00000000000E+00  0.45593999997E+02  0.45594000000E+02  0.51100000000E-03 0. -1.
         11   -1    0    0    0    0 -0.00000000000E+00 -0.00000000000E+00 -0.45593999997E+02  0.45594000000E+02  0.51100000000E-03 0.  1.
    9900012    2    1    2    0    0 -0.95574555385E+00  0.46763055722E+00  0.51075718884E+00  0.90007745448E+02  0.90000006888E+02 0.  0.
        -12    1    1    2    0    0  0.95574555385E+00 -0.46763055722E+00 -0.51075718884E+00  0.11802545521E+01  0.00000000000E+00 0.  1.
         11    1    3    3    0    0 -0.79972829613E+01  0.17188881370E+02  0.30160896188E+02  0.35624343315E+02  0.51100000000E-03 0. -1.
        -11    1    3    3    0    0 -0.10176714098E+02 -0.78400066721E+01  0.57141659459E+01  0.14059975361E+02  0.51100000000E-03 0.  1.
        -12    1    3    3    0    0  0.17218251505E+02 -0.88812441403E+01 -0.35364304945E+02  0.40323426772E+02  0.00000000000E+00 0.  1.
</event>
<event>
 7    1  0.2593256E-015  0.9000767E+02  0.7816164E-02  0.1186339E+00
        -11   -1    0    0    0    0  0.00000000000E+00  0.00000000000E+00  0.45593999997E+02  0.45594000000E+02  0.51100000000E-03 0. -1.
         11   -1    0    0    0    0 -0.00000000000E+00 -0.00000000000E+00 -0.45593999997E+02  0.45594000000E+02  0.51100000000E-03 0.  1.
    9900012    2    1    2    0    0 -0.11350750398E+01  0.12980973040E+00 -0.29653033362E+00  0.90007671168E+02  0.89999931628E+02 0.  0.
        -12    1    1    2    0    0  0.11350750398E+01 -0.12980973040E+00  0.29653033362E+00  0.11803288317E+01  0.00000000000E+00 0.  1.
         11    1    3    3    0    0  0.24769529423E+02  0.11905821266E+02  0.26338804386E+02  0.38065874279E+02  0.51100000000E-03 0. -1.
        -11    1    3    3    0    0 -0.56763798775E+00 -0.27751033728E+01  0.77733309450E+01  0.82733358361E+01  0.51100000000E-03 0.  1.
        -12    1    3    3    0    0 -0.25336966475E+02 -0.90009081623E+01 -0.34408665665E+02  0.43668461053E+02  0.00000000000E+00 0.  1.
</event>
<event>
 7    1  0.2593256E-015  0.9000771E+02  0.7816164E-02  0.1186339E+00
        -11   -1    0    0    0    0  0.00000000000E+00  0.00000000000E+00  0.45593999997E+02  0.45594000000E+02  0.51100000000E-03 0. -1.
         11   -1    0    0    0    0 -0.00000000000E+00 -0.00000000000E+00 -0.45593999997E+02  0.45594000000E+02  0.51100000000E-03 0.  1.
    9900012    2    1    2    0    0  0.10728409920E+01  0.44120011393E+00  0.21782722965E+00  0.90007705953E+02  0.89999966872E+02 0.  0.
        -12    1    1    2    0    0 -0.10728409920E+01 -0.44120011393E+00 -0.21782722965E+00  0.11802940467E+01  0.00000000000E+00 0.  1.
         11    1    3    3    0    0 -0.76566193996E+01  0.11343848566E+01  0.62210525800E+01  0.99303648018E+01  0.51100000000E-03 0. -1.
        -11    1    3    3    0    0 -0.31752131881E+02 -0.17220547287E+02 -0.22558942138E+01  0.36191631447E+02  0.51100000000E-03 0.  1.
         12    1    3    3    0    0  0.40481592272E+02  0.16527362545E+02 -0.37473311365E+01  0.43885709704E+02  0.00000000000E+00 0. -1.
</event>
<event>
 7    1  0.2593256E-015  0.9000771E+02  0.7816164E-02  0.1186339E+00
        -11   -1    0    0    0    0  0.00000000000E+00  0.00000000000E+00  0.45593999997E+02  0.45594000000E+02  0.51100000000E-03 0. -1.
         11   -1    0    0    0    0 -0.00000000000E+00 -0.00000000000E+00 -0.45593999997E+02  0.45594000000E+02  0.51100000000E-03 0.  1.
    9900012    2    1    2    0    0 -0.87513541142E+00  0.22475478156E+00 -0.75941499443E+00  0.90007708581E+02  0.89999969534E+02 0.  0.
        -12    1    1    2    0    0  0.87513541142E+00 -0.22475478156E+00  0.75941499443E+00  0.11802914191E+01  0.00000000000E+00 0.  1.
         11    1    3    3    0    0 -0.69392404409E+01 -0.47692088188E+00  0.67326455618E+01  0.96803423466E+01  0.51100000000E-03 0. -1.
        -11    1    3    3    0    0  0.15861301695E+02  0.23968461784E+02 -0.33460733535E+02  0.44109961921E+02  0.51100000000E-03 0.  1.
         12    1    3    3    0    0 -0.97971966656E+01 -0.23266786121E+02  0.25968672979E+02  0.36217404313E+02  0.00000000000E+00 0. -1.
</event>
<event>
 7    1  0.2593256E-015  0.9000772E+02  0.7816164E-02  0.1186339E+00
        -11   -1    0    0    0    0  0.00000000000E+00  0.00000000000E+00  0.45593999997E+02  0.45594000000E+02  0.51100000000E-03 0.  1.
         11   -1    0    0    0    0 -0.00000000000E+00 -0.00000000000E+00 -0.45593999997E+02  0.45594000000E+02  0.51100000000E-03 0. -1.
    9900012    2    1    2    0    0  0.61883390557E+00  0.94739356872E+00 -0.33549589154E+00  0.90007717208E+02  0.89999978275E+02 0.  0.
        -12    1    1    2    0    0 -0.61883390557E+00 -0.94739356872E+00  0.33549589154E+00  0.11802827924E+01  0.00000000000E+00 0.  1.
         11    1    3    3    0    0 -0.17036949664E+02 -0.15245177103E+02 -0.36488926196E+02  0.43059433507E+02  0.51100000000E-03 0. -1.
        -11    1    3    3    0    0  0.98064187756E+01  0.86930920201E+00  0.43066755296E+01  0.10745650379E+02  0.51100000000E-03 0.  1.
        -12    1    3    3    0    0  0.78493647940E+01  0.15323261470E+02  0.31846754775E+02  0.36202633322E+02  0.00000000000E+00 0.  1.
</event>
<event>
 7    1  0.2593256E-015  0.9000772E+02  0.7816164E-02  0.1186339E+00
        -11   -1    0    0    0    0  0.00000000000E+00  0.00000000000E+00  0.45593999997E+02  0.45594000000E+02  0.51100000000E-03 0. -1.
         11   -1    0    0    0    0 -0.00000000000E+00 -0.00000000000E+00 -0.45593999997E+02  0.45594000000E+02  0.51100000000E-03 0.  1.
    9900012    2    1    2    0    0 -0.19627232544E+00  0.11001684091E+01  0.37969589859E+00  0.90007719385E+02  0.89999980481E+02 0.  0.
        -12    1    1    2    0    0  0.19627232544E+00 -0.11001684091E+01 -0.37969589859E+00  0.11802806147E+01  0.00000000000E+00 0.  1.
         11    1    3    3    0    0 -0.95853958011E+01  0.75381018779E+01 -0.29648589880E+01  0.12549628746E+02  0.51100000000E-03 0. -1.
        -11    1    3    3    0    0 -0.12477370514E+02  0.98178640127E+01 -0.30273922917E+02  0.34184581872E+02  0.51100000000E-03 0.  1.
         12    1    3    3    0    0  0.21866493989E+02 -0.16255797481E+02  0.33618477804E+02  0.43273508767E+02  0.00000000000E+00 0. -1.
</event>
<event>
 7    1  0.2593256E-015  0.9000768E+02  0.7816164E-02  0.1186339E+00
        -11   -1    0    0    0    0  0.00000000000E+00  0.00000000000E+00  0.45593999997E+02  0.45594000000E+02  0.51100000000E-03 0. -1.
         11   -1    0    0    0    0 -0.00000000000E+00 -0.00000000000E+00 -0.45593999997E+02  0.45594000000E+02  0.51100000000E-03 0.  1.
    9900012    2    1    2    0    0  0.34016786364E+00 -0.59288636735E+00  0.96225280833E+00  0.90007678481E+02  0.89999939037E+02 0.  0.
        -12    1    1    2    0    0 -0.34016786364E+00  0.59288636735E+00 -0.96225280833E+00  0.11803215186E+01  0.00000000000E+00 0.  1.
         11    1    3    3    0    0  0.26210712091E+02  0.17574476188E+02  0.15024116737E+02  0.34951219229E+02  0.51100000000E-03 0. -1.
        -11    1    3    3    0    0  0.25514356924E+01  0.40621537639E+01  0.10407178043E+02  0.11459505765E+02  0.51100000000E-03 0.  1.
        -12    1    3    3    0    0 -0.28421979920E+02 -0.22229516320E+02 -0.24469041972E+02  0.43596953487E+02  0.00000000000E+00 0.  1.
</event>
<event>
 7    1  0.2593256E-015  0.9000789E+02  0.7816164E-02  0.1186339E+00
        -11   -1    0    0    0    0  0.00000000000E+00  0.00000000000E+00  0.45593999997E+02  0.45594000000E+02  0.51100000000E-03 0.  1.
         11   -1    0    0    0    0 -0.00000000000E+00 -0.00000000000E+00 -0.45593999997E+02  0.45594000000E+02  0.51100000000E-03 0. -1.
    9900012    2    1    2    0    0  0.53648268014E+00 -0.74184691330E-01 -0.10484997405E+01  0.90007886132E+02  0.90000149429E+02 0.  0.
        -12    1    1    2    0    0 -0.53648268014E+00  0.74184691330E-01  0.10484997405E+01  0.11801138675E+01  0.00000000000E+00 0.  1.
         11    1    3    3    0    0  0.13818613336E+02 -0.33229265853E+02 -0.22023556495E+02  0.42192122779E+02  0.51100000000E-03 0. -1.
        -11    1    3    3    0    0 -0.13194211048E+02  0.13605131027E+02 -0.25687988712E+00  0.18953964836E+02  0.51100000000E-03 0.  1.
        -12    1    3    3    0    0 -0.87919607688E-01  0.19549950134E+02  0.21231936642E+02  0.28861798517E+02  0.00000000000E+00 0.  1.
</event>
<event>
 7    1  0.2593256E-015  0.9000770E+02  0.7816164E-02  0.1186339E+00
        -11   -1    0    0    0    0  0.00000000000E+00  0.00000000000E+00  0.45593999997E+02  0.45594000000E+02  0.51100000000E-03 0. -1.
         11   -1    0    0    0    0 -0.00000000000E+00 -0.00000000000E+00 -0.45593999997E+02  0.45594000000E+02  0.51100000000E-03 0.  1.
    9900012    2    1    2    0    0 -0.15275840673E+00  0.83073703774E+00 -0.82441337788E+00  0.90007696406E+02  0.89999957198E+02 0.  0.
        -12    1    1    2    0    0  0.15275840673E+00 -0.83073703774E+00  0.82441337788E+00  0.11803035941E+01  0.00000000000E+00 0.  1.
         11    1    3    3    0    0  0.77545231664E+01  0.67053585611E+01 -0.25849102168E+01  0.10572427539E+02  0.51100000000E-03 0. -1.
        -11    1    3    3    0    0  0.11216093494E+02  0.16352036190E+02 -0.30158336572E+02  0.36093144860E+02  0.51100000000E-03 0.  1.
         12    1    3    3    0    0 -0.19123375067E+02 -0.22226657714E+02  0.31918833411E+02  0.43342124007E+02  0.00000000000E+00 0. -1.
</event>
<event>
 7    1  0.2593256E-015  0.9000771E+02  0.7816164E-02  0.1186339E+00
        -11   -1    0    0    0    0  0.00000000000E+00  0.00000000000E+00  0.45593999997E+02  0.45594000000E+02  0.51100000000E-03 0.  1.
         11   -1    0    0    0    0 -0.00000000000E+00 -0.00000000000E+00 -0.45593999997E+02  0.45594000000E+02  0.51100000000E-03 0. -1.
    9900012    2    1    2    0    0  0.10514240653E+00  0.10516477664E+01  0.52541130918E+00  0.90007714020E+02  0.89999975045E+02 0.  0.
        -12    1    1    2    0    0 -0.10514240653E+00 -0.10516477664E+01 -0.52541130918E+00  0.11802859798E+01  0.00000000000E+00 0.  1.
         11    1    3    3    0    0 -0.19824421436E+01 -0.83566879019E+01 -0.46484300689E+01  0.97658697467E+01  0.51100000000E-03 0. -1.
        -11    1    3    3    0    0 -0.21760461252E+01 -0.31090639851E+02 -0.15235115765E+02  0.34691091302E+02  0.51100000000E-03 0.  1.
         12    1    3    3    0    0  0.42636306753E+01  0.40498975519E+02  0.20408957143E+02  0.45550752972E+02  0.00000000000E+00 0. -1.
</event>
<event>
 7    1  0.2593256E-015  0.9000760E+02  0.7816164E-02  0.1186339E+00
        -11   -1    0    0    0    0  0.00000000000E+00  0.00000000000E+00  0.45593999997E+02  0.45594000000E+02  0.51100000000E-03 0. -1.
         11   -1    0    0    0    0 -0.00000000000E+00 -0.00000000000E+00 -0.45593999997E+02  0.45594000000E+02  0.51100000000E-03 0.  1.
    9900012    2    1    2    0    0 -0.60931536979E+00  0.83518707240E+00  0.56968079907E+00  0.90007602237E+02  0.89999861787E+02 0.  0.
        -12    1    1    2    0    0  0.60931536979E+00 -0.83518707240E+00 -0.56968079907E+00  0.11803977629E+01  0.00000000000E+00 0.  1.
         11    1    3    3    0    0 -0.90014780004E+01 -0.40365163025E+01  0.17656249228E+00  0.98666734327E+01  0.51100000000E-03 0. -1.
        -11    1    3    3    0    0 -0.31088669577E+02 -0.15680272602E+01  0.18522190078E+02  0.36222032123E+02  0.51100000000E-03 0.  1.
         12    1    3    3    0    0  0.39480832207E+02  0.64397306351E+01 -0.18129071771E+02  0.43918896682E+02  0.00000000000E+00 0. -1.
</event>
<event>
 7    1  0.2593256E-015  0.9000775E+02  0.7816164E-02  0.1186339E+00
        -11   -1    0    0    0    0  0.00000000000E+00  0.00000000000E+00  0.45593999997E+02  0.45594000000E+02  0.51100000000E-03 0.  1.
         11   -1    0    0    0    0 -0.00000000000E+00 -0.00000000000E+00 -0.45593999997E+02  0.45594000000E+02  0.51100000000E-03 0. -1.
    9900012    2    1    2    0    0 -0.91266058846E+00  0.65406647731E+00  0.36363824840E+00  0.90007752110E+02  0.90000013638E+02 0.  0.
        -12    1    1    2    0    0  0.91266058846E+00 -0.65406647731E+00 -0.36363824840E+00  0.11802478901E+01  0.00000000000E+00 0.  1.
         11    1    3    3    0    0  0.73553889373E+01 -0.24186378133E+01  0.37613771185E+01  0.86081074214E+01  0.51100000000E-03 0. -1.
        -11    1    3    3    0    0  0.26239461736E+01 -0.35821548543E+02 -0.15668360598E+02  0.39186298086E+02  0.51100000000E-03 0.  1.
         12    1    3    3    0    0 -0.10891995699E+02  0.38894252834E+02  0.12270621728E+02  0.42213346603E+02  0.00000000000E+00 0. -1.
</event>
<event>
 7    1  0.2593256E-015  0.9000748E+02  0.7816164E-02  0.1186340E+00
        -11   -1    0    0    0    0  0.00000000000E+00  0.00000000000E+00  0.45593999997E+02  0.45594000000E+02  0.51100000000E-03 0.  1.
         11   -1    0    0    0    0 -0.00000000000E+00 -0.00000000000E+00 -0.45593999997E+02  0.45594000000E+02  0.51100000000E-03 0. -1.
    9900012    2    1    2    0    0 -0.63231976092E+00  0.23152900194E+00 -0.96963049002E+00  0.90007484330E+02  0.89999742323E+02 0.  0.
        -12    1    1    2    0    0  0.63231976092E+00 -0.23152900194E+00  0.96963049002E+00  0.11805156695E+01  0.00000000000E+00 0.  1.
         11    1    3    3    0    0  0.53475244256E+01  0.92697609401E+00 -0.72686115391E+01  0.90712742285E+01  0.51100000000E-03 0. -1.
        -11    1    3    3    0    0  0.13279520218E+02  0.34530029567E+02 -0.88279510871E+01  0.38034212491E+02  0.51100000000E-03 0.  1.
         12    1    3    3    0    0 -0.19259364405E+02 -0.35225476659E+02  0.15126932136E+02  0.42901997611E+02  0.00000000000E+00 0. -1.
</event>
<event>
 7    1  0.2593256E-015  0.9000769E+02  0.7816164E-02  0.1186339E+00
        -11   -1    0    0    0    0  0.00000000000E+00  0.00000000000E+00  0.45593999997E+02  0.45594000000E+02  0.51100000000E-03 0.  1.
         11   -1    0    0    0    0 -0.00000000000E+00 -0.00000000000E+00 -0.45593999997E+02  0.45594000000E+02  0.51100000000E-03 0. -1.
    9900012    2    1    2    0    0  0.82916530637E+00 -0.33455764512E+00 -0.77050583782E+00  0.90007693612E+02  0.89999954368E+02 0.  0.
        -12    1    1    2    0    0 -0.82916530637E+00  0.33455764512E+00  0.77050583782E+00  0.11803063879E+01  0.00000000000E+00 0.  1.
         11    1    3    3    0    0 -0.67818293616E+01  0.63930098399E+01 -0.28150460478E+01  0.97359267055E+01  0.51100000000E-03 0. -1.
        -11    1    3    3    0    0 -0.17884139478E+02  0.76960883845E+01  0.32582320355E+02  0.37956288297E+02  0.51100000000E-03 0.  1.
         12    1    3    3    0    0  0.25495134146E+02 -0.14423655870E+02 -0.30537780145E+02  0.42315478610E+02  0.00000000000E+00 0. -1.
</event>
<event>
 7    1  0.6927805E-015  0.9000766E+02  0.7816164E-02  0.1186339E+00
        -11   -1    0    0    0    0  0.00000000000E+00  0.00000000000E+00  0.45593999997E+02  0.45594000000E+02  0.51100000000E-03 0. -1.
         11   -1    0    0    0    0 -0.00000000000E+00 -0.00000000000E+00 -0.45593999997E+02  0.45594000000E+02  0.51100000000E-03 0.  1.
    9900012    2    1    2    0    0 -0.49567540990E+00 -0.21953933404E+00  0.10484776783E+01  0.90007662306E+02  0.89999922648E+02 0.  0.
        -12    1    1    2    0    0  0.49567540990E+00  0.21953933404E+00 -0.10484776783E+01  0.11803376945E+01  0.00000000000E+00 0.  1.
         11    1    3    3    0    0  0.26277982429E+02  0.19919922679E+02  0.22230614739E+02  0.39768529165E+02  0.51100000000E-03 0. -1.
        -11    1    3    3    0    0  0.65163871426E+01 -0.66264560734E+01 -0.19828281381E+01  0.95028853077E+01  0.51100000000E-03 0.  1.
        -12    1    3    3    0    0 -0.33290044981E+02 -0.13513005940E+02 -0.19199308922E+02  0.40736247832E+02  0.00000000000E+00 0.  1.
</event>
<event>
 7    1  0.2593256E-015  0.9000792E+02  0.7816164E-02  0.1186339E+00
        -11   -1    0    0    0    0  0.00000000000E+00  0.00000000000E+00  0.45593999997E+02  0.45594000000E+02  0.51100000000E-03 0. -1.
         11   -1    0    0    0    0 -0.00000000000E+00 -0.00000000000E+00 -0.45593999997E+02  0.45594000000E+02  0.51100000000E-03 0.  1.
    9900012    2    1    2    0    0 -0.52743618115E-01 -0.67340800588E+00  0.96764480983E+00  0.90007916651E+02  0.90000180351E+02 0.  0.
        -12    1    1    2    0    0  0.52743618115E-01  0.67340800588E+00 -0.96764480983E+00  0.11800833486E+01  0.00000000000E+00 0.  1.
         11    1    3    3    0    0 -0.37654986209E+01 -0.10632542180E+02 -0.11402678172E+01  0.11337113567E+02  0.51100000000E-03 0. -1.
        -11    1    3    3    0    0 -0.11300698884E+02 -0.30352071701E+02 -0.10152368065E+02  0.33941488320E+02  0.51100000000E-03 0.  1.
         12    1    3    3    0    0  0.15013453887E+02  0.40311205874E+02  0.12260280692E+02  0.44729314765E+02  0.00000000000E+00 0. -1.
</event>
<event>
 7    1  0.2593256E-015  0.9000806E+02  0.7816164E-02  0.1186338E+00
        -11   -1    0    0    0    0  0.00000000000E+00  0.00000000000E+00  0.45593999997E+02  0.45594000000E+02  0.51100000000E-03 0.  1.
         11   -1    0    0    0    0 -0.00000000000E+00 -0.00000000000E+00 -0.45593999997E+02  0.45594000000E+02  0.51100000000E-03 0. -1.
    9900012    2    1    2    0    0 -0.11191405863E+01 -0.20871139711E+00  0.31020036544E+00  0.90008059168E+02  0.90000324749E+02 0.  0.
        -12    1    1    2    0    0  0.11191405863E+01  0.20871139711E+00 -0.31020036544E+00  0.11799408316E+01  0.00000000000E+00 0.  1.
         11    1    3    3    0    0 -0.25822537447E+02  0.23669511474E+02  0.52561784487E+01  0.35421414790E+02  0.51100000000E-03 0. -1.
        -11    1    3    3    0    0 -0.31001600413E+01  0.10037871763E+02 -0.86229119927E+00  0.10541034493E+02  0.51100000000E-03 0.  1.
        -12    1    3    3    0    0  0.27803556902E+02 -0.33916094634E+02 -0.40836868840E+01  0.44045609885E+02  0.00000000000E+00 0.  1.
</event>
<event>
 7    1  0.2593256E-015  0.9000767E+02  0.7816164E-02  0.1186339E+00
        -11   -1    0    0    0    0  0.00000000000E+00  0.00000000000E+00  0.45593999997E+02  0.45594000000E+02  0.51100000000E-03 0.  1.
         11   -1    0    0    0    0 -0.00000000000E+00 -0.00000000000E+00 -0.45593999997E+02  0.45594000000E+02  0.51100000000E-03 0. -1.
    9900012    2    1    2    0    0  0.59140580112E+00 -0.71774836443E+00  0.72681562538E+00  0.90007667636E+02  0.89999928049E+02 0.  0.
        -12    1    1    2    0    0 -0.59140580112E+00  0.71774836443E+00 -0.72681562538E+00  0.11803323640E+01  0.00000000000E+00 0.  1.
         11    1    3    3    0    0 -0.13547415605E+02  0.20205129428E+02 -0.28574039568E+02  0.37526729971E+02  0.51100000000E-03 0. -1.
        -11    1    3    3    0    0 -0.77999062344E+00  0.78034298782E+01 -0.12851955495E+01  0.79469258898E+01  0.51100000000E-03 0.  1.
        -12    1    3    3    0    0  0.14918812029E+02 -0.28726307671E+02  0.30586050743E+02  0.44534011776E+02  0.00000000000E+00 0.  1.
</event>
<event>
 7    1  0.2593256E-015  0.9000775E+02  0.7816164E-02  0.1186339E+00
        -11   -1    0    0    0    0  0.00000000000E+00  0.00000000000E+00  0.45593999997E+02  0.45594000000E+02  0.51100000000E-03 0.  1.
         11   -1    0    0    0    0 -0.00000000000E+00 -0.00000000000E+00 -0.45593999997E+02  0.45594000000E+02  0.51100000000E-03 0. -1.
    9900012    2    1    2    0    0  0.44971145586E+00  0.62672823293E+00 -0.89329148761E+00  0.90007746488E+02  0.90000007941E+02 0.  0.
        -12    1    1    2    0    0 -0.44971145586E+00 -0.62672823293E+00  0.89329148761E+00  0.11802535123E+01  0.00000000000E+00 0.  1.
         11    1    3    3    0    0  0.83293087166E+01  0.37151129826E+01  0.58986013672E+01  0.10861535182E+02  0.51100000000E-03 0. -1.
        -11    1    3    3    0    0 -0.13204257422E+02 -0.34324926894E+02 -0.23179494094E+02  0.43472312649E+02  0.51100000000E-03 0.  1.
         12    1    3    3    0    0  0.53246601614E+01  0.31236542144E+02  0.16387601240E+02  0.35673898656E+02  0.00000000000E+00 0. -1.
</event>
<event>
 7    1  0.2593256E-015  0.9000750E+02  0.7816164E-02  0.1186340E+00
        -11   -1    0    0    0    0  0.00000000000E+00  0.00000000000E+00  0.45593999997E+02  0.45594000000E+02  0.51100000000E-03 0.  1.
         11   -1    0    0    0    0 -0.00000000000E+00 -0.00000000000E+00 -0.45593999997E+02  0.45594000000E+02  0.51100000000E-03 0. -1.
    9900012    2    1    2    0    0 -0.99634072481E+00 -0.60798414773E+00  0.17677844910E+00  0.90007495793E+02  0.89999753937E+02 0.  0.
        -12    1    1    2    0    0  0.99634072481E+00  0.60798414773E+00 -0.17677844910E+00  0.11805042075E+01  0.00000000000E+00 0.  1.
         11    1    3    3    0    0  0.13498800012E+01  0.12968539581E+02  0.42311255389E+01  0.13707939979E+02  0.51100000000E-03 0. -1.
        -11    1    3    3    0    0  0.26441315006E+02 -0.32348922251E+02 -0.93512216797E+00  0.41790792811E+02  0.51100000000E-03 0.  1.
         12    1    3    3    0    0 -0.28787535733E+02  0.18772398522E+02 -0.31192249219E+01  0.34508763002E+02  0.00000000000E+00 0. -1.
</event>
<event>
 7    1  0.2593256E-015  0.9000768E+02  0.7816164E-02  0.1186339E+00
        -11   -1    0    0    0    0  0.00000000000E+00  0.00000000000E+00  0.45593999997E+02  0.45594000000E+02  0.51100000000E-03 0. -1.
         11   -1    0    0    0    0 -0.00000000000E+00 -0.00000000000E+00 -0.45593999997E+02  0.45594000000E+02  0.51100000000E-03 0.  1.
    9900012    2    1    2    0    0 -0.96311002961E+00 -0.28475452812E+00  0.62007008962E+00  0.90007680981E+02  0.89999941570E+02 0.  0.
        -12    1    1    2    0    0  0.96311002961E+00  0.28475452812E+00 -0.62007008962E+00  0.11803190189E+01  0.00000000000E+00 0.  1.
         11    1    3    3    0    0 -0.16995134474E+01  0.15138801729E+02  0.30412382430E+02  0.34014477346E+02  0.51100000000E-03 0. -1.
        -11    1    3    3    0    0 -0.71270657193E+01  0.37105869534E+01  0.89783093376E+01  0.12048799116E+02  0.51100000000E-03 0.  1.
        -12    1    3    3    0    0  0.78634691371E+01 -0.19134143210E+02 -0.38770621678E+02  0.43944404520E+02  0.00000000000E+00 0.  1.
</event>
<event>
 7    1  0.2593256E-015  0.9000774E+02  0.7816164E-02  0.1186339E+00
        -11   -1    0    0    0    0  0.00000000000E+00  0.00000000000E+00  0.45593999997E+02  0.45594000000E+02  0.51100000000E-03 0.  1.
         11   -1    0    0    0    0 -0.00000000000E+00 -0.00000000000E+00 -0.45593999997E+02  0.45594000000E+02  0.51100000000E-03 0. -1.
    9900012    2    1    2    0    0 -0.24458594024E+00  0.11519933859E+01 -0.78127090263E-01  0.90007739484E+02  0.90000000845E+02 0.  0.
        -12    1    1    2    0    0  0.24458594024E+00 -0.11519933859E+01  0.78127090263E-01  0.11802605160E+01  0.00000000000E+00 0.  1.
         11    1    3    3    0    0 -0.38175752051E+02 -0.14872956722E+02 -0.96671272420E+01  0.42095679537E+02  0.51100000000E-03 0. -1.
        -11    1    3    3    0    0  0.58317709884E+01  0.48620696568E+01 -0.67900892205E+01  0.10185999514E+02  0.51100000000E-03 0.  1.
        -12    1    3    3    0    0  0.32099395122E+02  0.11162880451E+02  0.16379089372E+02  0.37726060434E+02  0.00000000000E+00 0.  1.
</event>
<event>
 7    1  0.2593256E-015  0.9000770E+02  0.7816164E-02  0.1186339E+00
        -11   -1    0    0    0    0  0.00000000000E+00  0.00000000000E+00  0.45593999997E+02  0.45594000000E+02  0.51100000000E-03 0. -1.
         11   -1    0    0    0    0 -0.00000000000E+00 -0.00000000000E+00 -0.45593999997E+02  0.45594000000E+02  0.51100000000E-03 0.  1.
    9900012    2    1    2    0    0 -0.26038744049E+00  0.11378759448E+01  0.17474643362E+00  0.90007703596E+02  0.89999964484E+02 0.  0.
        -12    1    1    2    0    0  0.26038744049E+00 -0.11378759448E+01 -0.17474643362E+00  0.11802964039E+01  0.00000000000E+00 0.  1.
         11    1    3    3    0    0  0.15288232965E+02 -0.68095489759E+01  0.35525557188E+02  0.39270411740E+02  0.51100000000E-03 0. -1.
        -11    1    3    3    0    0 -0.63597659528E+01  0.44394533122E+01  0.49848376843E+01  0.92197600666E+01  0.51100000000E-03 0.  1.
        -12    1    3    3    0    0 -0.91888544529E+01  0.35079716086E+01 -0.40335648438E+02  0.41517531790E+02  0.00000000000E+00 0.  1.
</event>
<event>
 7    1  0.2593256E-015  0.9000774E+02  0.7816164E-02  0.1186339E+00
        -11   -1    0    0    0    0  0.00000000000E+00  0.00000000000E+00  0.45593999997E+02  0.45594000000E+02  0.51100000000E-03 0.  1.
         11   -1    0    0    0    0 -0.00000000000E+00 -0.00000000000E+00 -0.45593999997E+02  0.45594000000E+02  0.51100000000E-03 0. -1.
    9900012    2    1    2    0    0  0.40620133191E+00 -0.10695872500E+01  0.28983327377E+00  0.90007737430E+02  0.89999998764E+02 0.  0.
        -12    1    1    2    0    0 -0.40620133191E+00  0.10695872500E+01 -0.28983327377E+00  0.11802625700E+01  0.00000000000E+00 0.  1.
         11    1    3    3    0    0  0.25933525140E+02  0.11846878374E+02 -0.25547188480E+02  0.38282569047E+02  0.51100000000E-03 0. -1.
        -11    1    3    3    0    0 -0.89340522640E+01 -0.94586239032E+01 -0.69979743692E+01  0.14773439056E+02  0.51100000000E-03 0.  1.
        -12    1    3    3    0    0 -0.16593271544E+02 -0.34578417207E+01  0.32834996123E+02  0.36951729327E+02  0.00000000000E+00 0.  1.
</event>
<event>
 7    1  0.2593256E-015  0.9000773E+02  0.7816164E-02  0.1186339E+00
        -11   -1    0    0    0    0  0.00000000000E+00  0.00000000000E+00  0.45593999997E+02  0.45594000000E+02  0.51100000000E-03 0.  1.
         11   -1    0    0    0    0 -0.00000000000E+00 -0.00000000000E+00 -0.45593999997E+02  0.45594000000E+02  0.51100000000E-03 0. -1.
    9900012    2    1    2    0    0 -0.96326037456E-01  0.11755805658E+01 -0.42074968046E-01  0.90007729406E+02  0.89999990634E+02 0.  0.
        -12    1    1    2    0    0  0.96326037456E-01 -0.11755805658E+01  0.42074968046E-01  0.11802705940E+01  0.00000000000E+00 0.  1.
         11    1    3    3    0    0  0.92590216137E+01  0.14023758907E+02 -0.29020240736E+02  0.33534604034E+02  0.51100000000E-03 0. -1.
        -11    1    3    3    0    0  0.95804880854E+01  0.81348458456E+01 -0.38588727171E+01  0.13147333106E+02  0.51100000000E-03 0.  1.
        -12    1    3    3    0    0 -0.18935835736E+02 -0.20983024186E+02  0.32837038485E+02  0.43325792266E+02  0.00000000000E+00 0.  1.
</event>
<event>
 7    1  0.2593256E-015  0.9000772E+02  0.7816164E-02  0.1186339E+00
        -11   -1    0    0    0    0  0.00000000000E+00  0.00000000000E+00  0.45593999997E+02  0.45594000000E+02  0.51100000000E-03 0. -1.
         11   -1    0    0    0    0 -0.00000000000E+00 -0.00000000000E+00 -0.45593999997E+02  0.45594000000E+02  0.51100000000E-03 0.  1.
    9900012    2    1    2    0    0 -0.11132760965E+01  0.19368830417E+00  0.34083411890E+00  0.90007717524E+02  0.89999978595E+02 0.  0.
        -12    1    1    2    0    0  0.11132760965E+01 -0.19368830417E+00 -0.34083411890E+00  0.11802824758E+01  0.00000000000E+00 0.  1.
         11    1    3    3    0    0 -0.23639974864E+02 -0.26300529075E+02  0.69937943651E+01  0.36048292624E+02  0.51100000000E-03 0. -1.
        -11    1    3    3    0    0 -0.64958348301E+01 -0.61757484180E+01  0.25140136103E+01  0.93089206332E+01  0.51100000000E-03 0.  1.
        -12    1    3    3    0    0  0.29022533598E+02  0.32669965797E+02 -0.91669738565E+01  0.44650504267E+02  0.00000000000E+00 0.  1.
</event>
<event>
 7    1  0.2593256E-015  0.9000775E+02  0.7816164E-02  0.1186339E+00
        -11   -1    0    0    0    0  0.00000000000E+00  0.00000000000E+00  0.45593999997E+02  0.45594000000E+02  0.51100000000E-03 0.  1.
         11   -1    0    0    0    0 -0.00000000000E+00 -0.00000000000E+00 -0.45593999997E+02  0.45594000000E+02  0.51100000000E-03 0. -1.
    9900012    2    1    2    0    0  0.38046683354E+00  0.11000379025E+01 -0.19532883363E+00  0.90007749284E+02  0.90000010775E+02 0.  0.
        -12    1    1    2    0    0 -0.38046683354E+00 -0.11000379025E+01  0.19532883363E+00  0.11802507156E+01  0.00000000000E+00 0.  1.
         11    1    3    3    0    0  0.69769831550E+01  0.37470288513E+02 -0.61202014784E+00  0.38119225912E+02  0.51100000000E-03 0. -1.
        -11    1    3    3    0    0 -0.43232988080E+00  0.41098249669E+01  0.91329391905E+01  0.10024377731E+02  0.51100000000E-03 0.  1.
        -12    1    3    3    0    0 -0.61641864406E+01 -0.40480075577E+02 -0.87162478763E+01  0.41864145641E+02  0.00000000000E+00 0.  1.
</event>
<event>
 7    1  0.2593256E-015  0.9000781E+02  0.7816164E-02  0.1186339E+00
        -11   -1    0    0    0    0  0.00000000000E+00  0.00000000000E+00  0.45593999997E+02  0.45594000000E+02  0.51100000000E-03 0.  1.
         11   -1    0    0    0    0 -0.00000000000E+00 -0.00000000000E+00 -0.45593999997E+02  0.45594000000E+02  0.51100000000E-03 0. -1.
    9900012    2    1    2    0    0  0.22109307248E+00 -0.10899839501E+01  0.39483743398E+00  0.90007811982E+02  0.90000074300E+02 0.  0.
        -12    1    1    2    0    0 -0.22109307248E+00  0.10899839501E+01 -0.39483743398E+00  0.11801880178E+01  0.00000000000E+00 0.  1.
         11    1    3    3    0    0  0.15148663077E+01  0.50609292114E+01 -0.74135580080E+01  0.91032228915E+01  0.51100000000E-03 0. -1.
        -11    1    3    3    0    0  0.37955152203E+02 -0.81763077553E+01  0.13683907867E+02  0.41166672467E+02  0.51100000000E-03 0.  1.
         12    1    3    3    0    0 -0.39248925438E+02  0.20253945938E+01 -0.58755124252E+01  0.39737916623E+02  0.00000000000E+00 0. -1.
</event>
<event>
 7    1  0.3842428E-015  0.9000764E+02  0.7816164E-02  0.1186339E+00
        -11   -1    0    0    0    0  0.00000000000E+00  0.00000000000E+00  0.45593999997E+02  0.45594000000E+02  0.51100000000E-03 0. -1.
         11   -1    0    0    0    0 -0.00000000000E+00 -0.00000000000E+00 -0.45593999997E+02  0.45594000000E+02  0.51100000000E-03 0.  1.
    9900012    2    1    2    0    0  0.98133870872E+00 -0.16586072017E+00  0.63459812110E+00  0.90007639794E+02  0.89999899840E+02 0.  0.
        -12    1    1    2    0    0 -0.98133870872E+00  0.16586072017E+00 -0.63459812110E+00  0.11803602056E+01  0.00000000000E+00 0.  1.
         11    1    3    3    0    0 -0.36202374082E+02 -0.51325043567E+01  0.64315009765E+01  0.37125714743E+02  0.51100000000E-03 0. -1.
        -11    1    3    3    0    0 -0.53154021390E+01 -0.39611969198E+01 -0.67281055322E+01  0.94452096457E+01  0.51100000000E-03 0.  1.
        -12    1    3    3    0    0  0.42499114929E+02  0.89278405564E+01  0.93120267684E+00  0.43436715405E+02  0.00000000000E+00 0.  1.
</event>
<event>
 7    1  0.2593256E-015  0.9000774E+02  0.7816164E-02  0.1186339E+00
        -11   -1    0    0    0    0  0.00000000000E+00  0.00000000000E+00  0.45593999997E+02  0.45594000000E+02  0.51100000000E-03 0. -1.
         11   -1    0    0    0    0 -0.00000000000E+00 -0.00000000000E+00 -0.45593999997E+02  0.45594000000E+02  0.51100000000E-03 0.  1.
    9900012    2    1    2    0    0  0.11277912528E+01  0.31763625273E+00 -0.14218856261E+00  0.90007735840E+02  0.89999997154E+02 0.  0.
        -12    1    1    2    0    0 -0.11277912528E+01 -0.31763625273E+00  0.14218856261E+00  0.11802641596E+01  0.00000000000E+00 0.  1.
         11    1    3    3    0    0  0.37422267591E+02  0.64020408201E+01  0.89828098371E+01  0.39014139888E+02  0.51100000000E-03 0. -1.
        -11    1    3    3    0    0 -0.94493398338E+00  0.57861772928E+01  0.80339377288E+01  0.99456977426E+01  0.51100000000E-03 0.  1.
        -12    1    3    3    0    0 -0.35349542355E+02 -0.11870581860E+02 -0.17158936128E+02  0.41047898210E+02  0.00000000000E+00 0.  1.
</event>
<event>
 7    1  0.2593256E-015  0.9000774E+02  0.7816164E-02  0.1186339E+00
        -11   -1    0    0    0    0  0.00000000000E+00  0.00000000000E+00  0.45593999997E+02  0.45594000000E+02  0.51100000000E-03 0.  1.
         11   -1    0    0    0    0 -0.00000000000E+00 -0.00000000000E+00 -0.45593999997E+02  0.45594000000E+02  0.51100000000E-03 0. -1.
    9900012    2    1    2    0    0 -0.46261428077E+00 -0.48312643868E-01 -0.10847458207E+01  0.90007737495E+02  0.89999998830E+02 0.  0.
        -12    1    1    2    0    0  0.46261428077E+00  0.48312643868E-01  0.10847458207E+01  0.11802625046E+01  0.00000000000E+00 0.  1.
         11    1    3    3    0    0  0.39032134817E+02  0.10684581385E+01 -0.97332007657E+01  0.40241574877E+02  0.51100000000E-03 0. -1.
        -11    1    3    3    0    0 -0.67534307373E+01  0.11168961293E+02 -0.20137043706E+01  0.13206419978E+02  0.51100000000E-03 0.  1.
        -12    1    3    3    0    0 -0.32741318361E+02 -0.12285732075E+02  0.10662159316E+02  0.36559742640E+02  0.00000000000E+00 0.  1.
</event>
<event>
 7    1  0.2593256E-015  0.9000780E+02  0.7816164E-02  0.1186339E+00
        -11   -1    0    0    0    0  0.00000000000E+00  0.00000000000E+00  0.45593999997E+02  0.45594000000E+02  0.51100000000E-03 0. -1.
         11   -1    0    0    0    0 -0.00000000000E+00 -0.00000000000E+00 -0.45593999997E+02  0.45594000000E+02  0.51100000000E-03 0.  1.
    9900012    2    1    2    0    0  0.18825305540E+00  0.16071854134E-01  0.11649783871E+01  0.90007799949E+02  0.90000062109E+02 0.  0.
        -12    1    1    2    0    0 -0.18825305540E+00 -0.16071854134E-01 -0.11649783871E+01  0.11802000508E+01  0.00000000000E+00 0.  1.
         11    1    3    3    0    0 -0.38673380527E+02  0.56286156156E+00 -0.13117507960E-01  0.38677478549E+02  0.51100000000E-03 0. -1.
        -11    1    3    3    0    0 -0.10995058698E+00 -0.70570313965E+01  0.86024168576E+01  0.11127234936E+02  0.51100000000E-03 0.  1.
        -12    1    3    3    0    0  0.38971584170E+02  0.65102416891E+01 -0.74243209625E+01  0.40203086465E+02  0.00000000000E+00 0.  1.
</event>
<event>
 7    1  0.2593256E-015  0.9000777E+02  0.7816164E-02  0.1186339E+00
        -11   -1    0    0    0    0  0.00000000000E+00  0.00000000000E+00  0.45593999997E+02  0.45594000000E+02  0.51100000000E-03 0. -1.
         11   -1    0    0    0    0 -0.00000000000E+00 -0.00000000000E+00 -0.45593999997E+02  0.45594000000E+02  0.51100000000E-03 0.  1.
    9900012    2    1    2    0    0 -0.36850936529E+00 -0.68603528321E-01  0.11191206733E+01  0.90007772616E+02  0.90000034415E+02 0.  0.
        -12    1    1    2    0    0  0.36850936529E+00  0.68603528321E-01 -0.11191206733E+01  0.11802273840E+01  0.00000000000E+00 0.  1.
         11    1    3    3    0    0 -0.22840370896E+00  0.22988292517E+01  0.33859099154E+02  0.33937816370E+02  0.51100000000E-03 0. -1.
        -11    1    3    3    0    0  0.80602462816E+01  0.12111335071E+01  0.97156437698E+01  0.12681803839E+02  0.51100000000E-03 0.  1.
        -12    1    3    3    0    0 -0.82003519380E+01 -0.35785662871E+01 -0.42455622251E+02  0.43388152407E+02  0.00000000000E+00 0.  1.
</event>
<event>
 7    1  0.2593256E-015  0.9000754E+02  0.7816164E-02  0.1186339E+00
        -11   -1    0    0    0    0  0.00000000000E+00  0.00000000000E+00  0.45593999997E+02  0.45594000000E+02  0.51100000000E-03 0.  1.
         11   -1    0    0    0    0 -0.00000000000E+00 -0.00000000000E+00 -0.45593999997E+02  0.45594000000E+02  0.51100000000E-03 0. -1.
    9900012    2    1    2    0    0  0.61083217773E+00 -0.80005176508E+00 -0.61666594869E+00  0.90007544296E+02  0.89999803081E+02 0.  0.
        -12    1    1    2    0    0 -0.61083217773E+00  0.80005176508E+00  0.61666594869E+00  0.11804557037E+01  0.00000000000E+00 0.  1.
         11    1    3    3    0    0  0.72603043551E+01  0.54657060353E+01 -0.18445078644E+01  0.92729807136E+01  0.51100000000E-03 0. -1.
        -11    1    3    3    0    0 -0.31046361476E+02  0.12956070700E+02 -0.23497797410E+02  0.41035141188E+02  0.51100000000E-03 0.  1.
         12    1    3    3    0    0  0.24396889299E+02 -0.19221828501E+02  0.24725639326E+02  0.39699422395E+02  0.00000000000E+00 0. -1.
</event>
<event>
 7    1  0.2593256E-015  0.9000777E+02  0.7816164E-02  0.1186339E+00
        -11   -1    0    0    0    0  0.00000000000E+00  0.00000000000E+00  0.45593999997E+02  0.45594000000E+02  0.51100000000E-03 0. -1.
         11   -1    0    0    0    0 -0.00000000000E+00 -0.00000000000E+00 -0.45593999997E+02  0.45594000000E+02  0.51100000000E-03 0.  1.
    9900012    2    1    2    0    0  0.57330732342E+00 -0.76201865970E+00  0.69541147299E+00  0.90007766616E+02  0.90000028335E+02 0.  0.
        -12    1    1    2    0    0 -0.57330732342E+00  0.76201865970E+00 -0.69541147299E+00  0.11802333844E+01  0.00000000000E+00 0.  1.
         11    1    3    3    0    0 -0.35207603973E+02  0.51947207858E+01  0.13711920936E+02  0.38138920770E+02  0.51100000000E-03 0. -1.
        -11    1    3    3    0    0  0.12599942911E+01 -0.33059221296E+01  0.97900609029E+01  0.10409706984E+02  0.51100000000E-03 0.  1.
        -12    1    3    3    0    0  0.34520917005E+02 -0.26508173159E+01 -0.22806570366E+02  0.41459138862E+02  0.00000000000E+00 0.  1.
</event>
<event>
 7    1  0.2593256E-015  0.9000773E+02  0.7816164E-02  0.1186339E+00
        -11   -1    0    0    0    0  0.00000000000E+00  0.00000000000E+00  0.45593999997E+02  0.45594000000E+02  0.51100000000E-03 0.  1.
         11   -1    0    0    0    0 -0.00000000000E+00 -0.00000000000E+00 -0.45593999997E+02  0.45594000000E+02  0.51100000000E-03 0. -1.
    9900012    2    1    2    0    0 -0.10766585679E+01  0.40921232748E+00 -0.25765310035E+00  0.90007731589E+02  0.89999992846E+02 0.  0.
        -12    1    1    2    0    0  0.10766585679E+01 -0.40921232748E+00  0.25765310035E+00  0.11802684105E+01  0.00000000000E+00 0.  1.
         11    1    3    3    0    0 -0.24598816222E+01  0.44705560770E+01 -0.11443104932E+02  0.12529227430E+02  0.51100000000E-03 0. -1.
        -11    1    3    3    0    0 -0.34053837451E+02 -0.18082175789E+02  0.55797500020E+01  0.38958471951E+02  0.51100000000E-03 0.  1.
         12    1    3    3    0    0  0.35437060505E+02  0.14020832040E+02  0.56057018301E+01  0.38520032209E+02  0.00000000000E+00 0. -1.
</event>
<event>
 7    1  0.2593256E-015  0.9000777E+02  0.7816164E-02  0.1186339E+00
        -11   -1    0    0    0    0  0.00000000000E+00  0.00000000000E+00  0.45593999997E+02  0.45594000000E+02  0.51100000000E-03 0.  1.
         11   -1    0    0    0    0 -0.00000000000E+00 -0.00000000000E+00 -0.45593999997E+02  0.45594000000E+02  0.51100000000E-03 0. -1.
    9900012    2    1    2    0    0 -0.94246767127E+00 -0.39460561581E+00  0.59075607852E+00  0.90007766274E+02  0.90000027989E+02 0.  0.
        -12    1    1    2    0    0  0.94246767127E+00  0.39460561581E+00 -0.59075607852E+00  0.11802337259E+01  0.00000000000E+00 0.  1.
         11    1    3    3    0    0 -0.17674752353E+02 -0.13350310719E+02 -0.27470430953E+02  0.35288131773E+02  0.51100000000E-03 0. -1.
        -11    1    3    3    0    0  0.19366276893E+01 -0.13816842890E+02  0.11870444949E+01  0.14002312279E+02  0.51100000000E-03 0.  1.
        -12    1    3    3    0    0  0.14795656992E+02  0.26772547993E+02  0.26874142537E+02  0.40717322222E+02  0.00000000000E+00 0.  1.
</event>
<event>
 7    1  0.2593256E-015  0.9000773E+02  0.7816164E-02  0.1186339E+00
        -11   -1    0    0    0    0  0.00000000000E+00  0.00000000000E+00  0.45593999997E+02  0.45594000000E+02  0.51100000000E-03 0. -1.
         11   -1    0    0    0    0 -0.00000000000E+00 -0.00000000000E+00 -0.45593999997E+02  0.45594000000E+02  0.51100000000E-03 0.  1.
    9900012    2    1    2    0    0  0.11488141077E+00  0.28155854852E+00  0.11404257562E+01  0.90007727209E+02  0.89999988409E+02 0.  0.
        -12    1    1    2    0    0 -0.11488141077E+00 -0.28155854852E+00 -0.11404257562E+01  0.11802727906E+01  0.00000000000E+00 0.  1.
         11    1    3    3    0    0 -0.76110572074E+01 -0.59637273081E+01  0.18805844426E+01  0.98504230024E+01  0.51100000000E-03 0. -1.
        -11    1    3    3    0    0  0.11219738516E+02  0.50916471335E+01 -0.39421133907E+02  0.41301733640E+02  0.51100000000E-03 0.  1.
         12    1    3    3    0    0 -0.34937998982E+01  0.11536387232E+01  0.38680975221E+02  0.38855570567E+02  0.00000000000E+00 0. -1.
</event>
<event>
 7    1  0.2593256E-015  0.9000781E+02  0.7816164E-02  0.1186339E+00
        -11   -1    0    0    0    0  0.00000000000E+00  0.00000000000E+00  0.45593999997E+02  0.45594000000E+02  0.51100000000E-03 0. -1.
         11   -1    0    0    0    0 -0.00000000000E+00 -0.00000000000E+00 -0.45593999997E+02  0.45594000000E+02  0.51100000000E-03 0.  1.
    9900012    2    1    2    0    0 -0.87349755806E+00 -0.64329133099E+00 -0.46477628729E+00  0.90007814117E+02  0.90000076464E+02 0.  0.
        -12    1    1    2    0    0  0.87349755806E+00  0.64329133099E+00  0.46477628729E+00  0.11801858827E+01  0.00000000000E+00 0.  1.
         11    1    3    3    0    0  0.27325993711E+02  0.26866741808E+00  0.23357969392E+02  0.35949643236E+02  0.51100000000E-03 0. -1.
        -11    1    3    3    0    0  0.93445476513E+01  0.41893990680E+00  0.39304899726E+00  0.93621882713E+01  0.51100000000E-03 0.  1.
        -12    1    3    3    0    0 -0.37544038920E+02 -0.13308986559E+01 -0.24215794676E+02  0.44695982610E+02  0.00000000000E+00 0.  1.
</event>
<event>
 7    1  0.2593256E-015  0.9000768E+02  0.7816164E-02  0.1186339E+00
        -11   -1    0    0    0    0  0.00000000000E+00  0.00000000000E+00  0.45593999997E+02  0.45594000000E+02  0.51100000000E-03 0.  1.
         11   -1    0    0    0    0 -0.00000000000E+00 -0.00000000000E+00 -0.45593999997E+02  0.45594000000E+02  0.51100000000E-03 0. -1.
    9900012    2    1    2    0    0  0.59097795770E-01 -0.42183668079E+00 -0.11007850518E+01  0.90007675271E+02  0.89999935785E+02 0.  0.
        -12    1    1    2    0    0 -0.59097795770E-01  0.42183668079E+00  0.11007850518E+01  0.11803247286E+01  0.00000000000E+00 0.  1.
         11    1    3    3    0    0 -0.25057775457E+01  0.78595711453E+01 -0.40676249919E+01  0.91976819380E+01  0.51100000000E-03 0. -1.
        -11    1    3    3    0    0 -0.28474241681E+02  0.22468218758E+02 -0.42745405377E+01  0.36522253361E+02  0.51100000000E-03 0.  1.
         12    1    3    3    0    0  0.31039117023E+02 -0.30749626584E+02  0.72413804778E+01  0.44287739972E+02  0.00000000000E+00 0. -1.
</event>
<event>
 7    1  0.2593256E-015  0.9000774E+02  0.7816164E-02  0.1186339E+00
        -11   -1    0    0    0    0  0.00000000000E+00  0.00000000000E+00  0.45593999997E+02  0.45594000000E+02  0.51100000000E-03 0.  1.
         11   -1    0    0    0    0 -0.00000000000E+00 -0.00000000000E+00 -0.45593999997E+02  0.45594000000E+02  0.51100000000E-03 0. -1.
    9900012    2    1    2    0    0  0.73781223322E+00 -0.78841886163E+00  0.47648854225E+00  0.90007740485E+02  0.90000001859E+02 0.  0.
        -12    1    1    2    0    0 -0.73781223322E+00  0.78841886163E+00 -0.47648854225E+00  0.11802595154E+01  0.00000000000E+00 0.  1.
         11    1    3    3    0    0  0.59884713604E+01  0.35473018787E+02 -0.11657724307E+02  0.37816654894E+02  0.51100000000E-03 0. -1.
        -11    1    3    3    0    0  0.47607763192E+01  0.49352432141E+01  0.64536002634E+01  0.94165053691E+01  0.51100000000E-03 0.  1.
        -12    1    3    3    0    0 -0.10011435446E+02 -0.41196680863E+02  0.56806125856E+01  0.42774580222E+02  0.00000000000E+00 0.  1.
</event>
<event>
 7    1  0.2593256E-015  0.9000764E+02  0.7816164E-02  0.1186339E+00
        -11   -1    0    0    0    0  0.00000000000E+00  0.00000000000E+00  0.45593999997E+02  0.45594000000E+02  0.51100000000E-03 0.  1.
         11   -1    0    0    0    0 -0.00000000000E+00 -0.00000000000E+00 -0.45593999997E+02  0.45594000000E+02  0.51100000000E-03 0. -1.
    9900012    2    1    2    0    0 -0.10375113405E+01 -0.41356656308E+00 -0.38180829608E+00  0.90007642148E+02  0.89999902224E+02 0.  0.
        -12    1    1    2    0    0  0.10375113405E+01  0.41356656308E+00  0.38180829608E+00  0.11803578520E+01  0.00000000000E+00 0.  1.
         11    1    3    3    0    0  0.87044204763E+01 -0.23529096330E+01 -0.36117609042E+01  0.97132866044E+01  0.51100000000E-03 0. -1.
        -11    1    3    3    0    0  0.21741299089E+02  0.24982090766E+02 -0.16019929652E+02  0.36788953389E+02  0.51100000000E-03 0.  1.
         12    1    3    3    0    0 -0.31483230906E+02 -0.23042747696E+02  0.19249882260E+02  0.43505402155E+02  0.00000000000E+00 0. -1.
</event>
<event>
 7    1  0.2593256E-015  0.9000776E+02  0.7816164E-02  0.1186339E+00
        -11   -1    0    0    0    0  0.00000000000E+00  0.00000000000E+00  0.45593999997E+02  0.45594000000E+02  0.51100000000E-03 0.  1.
         11   -1    0    0    0    0 -0.00000000000E+00 -0.00000000000E+00 -0.45593999997E+02  0.45594000000E+02  0.51100000000E-03 0. -1.
    9900012    2    1    2    0    0  0.30867097175E+00 -0.11283432825E+01  0.15658551129E+00  0.90007764704E+02  0.90000026398E+02 0.  0.
        -12    1    1    2    0    0 -0.30867097175E+00  0.11283432825E+01 -0.15658551129E+00  0.11802352962E+01  0.00000000000E+00 0.  1.
         11    1    3    3    0    0  0.99115422031E+01  0.23002190504E+01 -0.37654193260E+02  0.39004716982E+02  0.51100000000E-03 0. -1.
        -11    1    3    3    0    0  0.46872381819E+01 -0.93974301032E+01  0.39503808915E+00  0.10508946173E+02  0.51100000000E-03 0.  1.
        -12    1    3    3    0    0 -0.14290109413E+02  0.59688677704E+01  0.37415740682E+02  0.40494101549E+02  0.00000000000E+00 0.  1.
</event>
<event>
 7    1  0.2593256E-015  0.9000772E+02  0.7816164E-02  0.1186339E+00
        -11   -1    0    0    0    0  0.00000000000E+00  0.00000000000E+00  0.45593999997E+02  0.45594000000E+02  0.51100000000E-03 0.  1.
         11   -1    0    0    0    0 -0.00000000000E+00 -0.00000000000E+00 -0.45593999997E+02  0.45594000000E+02  0.51100000000E-03 0. -1.
    9900012    2    1    2    0    0 -0.20993945639E+00 -0.47337392870E+00 -0.10606191823E+01  0.90007715923E+02  0.89999976974E+02 0.  0.
        -12    1    1    2    0    0  0.20993945639E+00  0.47337392870E+00  0.10606191823E+01  0.11802840766E+01  0.00000000000E+00 0.  1.
         11    1    3    3    0    0  0.21561770657E+01  0.25108323777E+02 -0.25972135514E+02  0.36188794479E+02  0.51100000000E-03 0. -1.
        -11    1    3    3    0    0 -0.38688273695E+01  0.81598880875E+01 -0.34980294740E+01  0.96844106314E+01  0.51100000000E-03 0.  1.
        -12    1    3    3    0    0  0.15027108474E+01 -0.33741585793E+02  0.28409545806E+02  0.44134510812E+02  0.00000000000E+00 0.  1.
</event>
<event>
 7    1  0.2593256E-015  0.9000771E+02  0.7816164E-02  0.1186339E+00
        -11   -1    0    0    0    0  0.00000000000E+00  0.00000000000E+00  0.45593999997E+02  0.45594000000E+02  0.51100000000E-03 0.  1.
         11   -1    0    0    0    0 -0.00000000000E+00 -0.00000000000E+00 -0.45593999997E+02  0.45594000000E+02  0.51100000000E-03 0. -1.
    9900012    2    1    2    0    0  0.87264906736E+00 -0.59563165272E+00 -0.52611902911E+00  0.90007705675E+02  0.89999966590E+02 0.  0.
        -12    1    1    2    0    0 -0.87264906736E+00  0.59563165272E+00  0.52611902911E+00  0.11802943249E+01  0.00000000000E+00 0.  1.
         11    1    3    3    0    0  0.33430525870E+02 -0.91424658108E+01  0.16372165570E+02  0.38330569350E+02  0.51100000000E-03 0. -1.
        -11    1    3    3    0    0 -0.24067472761E+01 -0.12170171438E+01  0.98456416714E+01  0.10208340872E+02  0.51100000000E-03 0.  1.
        -12    1    3    3    0    0 -0.30151129526E+02  0.97638513019E+01 -0.26743926270E+02  0.41468795453E+02  0.00000000000E+00 0.  1.
</event>
<event>
 7    1  0.2593256E-015  0.9000786E+02  0.7816164E-02  0.1186339E+00
        -11   -1    0    0    0    0  0.00000000000E+00  0.00000000000E+00  0.45593999997E+02  0.45594000000E+02  0.51100000000E-03 0.  1.
         11   -1    0    0    0    0 -0.00000000000E+00 -0.00000000000E+00 -0.45593999997E+02  0.45594000000E+02  0.51100000000E-03 0. -1.
    9900012    2    1    2    0    0  0.90823961314E+00  0.65752007822E+00 -0.36809012609E+00  0.90007863487E+02  0.90000126485E+02 0.  0.
        -12    1    1    2    0    0 -0.90823961314E+00 -0.65752007822E+00  0.36809012609E+00  0.11801365129E+01  0.00000000000E+00 0.  1.
         11    1    3    3    0    0 -0.13945952441E+02 -0.26294311791E+02 -0.20176518618E+02  0.35957924382E+02  0.51100000000E-03 0. -1.
        -11    1    3    3    0    0  0.11744362457E+01 -0.88972668736E+01 -0.29390205766E+01  0.94434369022E+01  0.51100000000E-03 0.  1.
        -12    1    3    3    0    0  0.13679755809E+02  0.35849098743E+02  0.22747449068E+02  0.44606502203E+02  0.00000000000E+00 0.  1.
</event>
<event>
 7    1  0.2593256E-015  0.9000776E+02  0.7816164E-02  0.1186339E+00
        -11   -1    0    0    0    0  0.00000000000E+00  0.00000000000E+00  0.45593999997E+02  0.45594000000E+02  0.51100000000E-03 0.  1.
         11   -1    0    0    0    0 -0.00000000000E+00 -0.00000000000E+00 -0.45593999997E+02  0.45594000000E+02  0.51100000000E-03 0. -1.
    9900012    2    1    2    0    0 -0.73973838576E-01  0.74229252508E+00 -0.91460801425E+00  0.90007755050E+02  0.90000016617E+02 0.  0.
        -12    1    1    2    0    0  0.73973838576E-01 -0.74229252508E+00  0.91460801425E+00  0.11802449497E+01  0.00000000000E+00 0.  1.
         11    1    3    3    0    0  0.25717017966E+02 -0.17540426320E+02 -0.11881133826E+02  0.33319557467E+02  0.51100000000E-03 0. -1.
        -11    1    3    3    0    0  0.11509057050E+02  0.23836079504E+01 -0.54353334893E+01  0.12949240574E+02  0.51100000000E-03 0.  1.
        -12    1    3    3    0    0 -0.37300048854E+02  0.15899110895E+02  0.16401859301E+02  0.43738957010E+02  0.00000000000E+00 0.  1.
</event>
<event>
 7    1  0.2593256E-015  0.9000772E+02  0.7816164E-02  0.1186339E+00
        -11   -1    0    0    0    0  0.00000000000E+00  0.00000000000E+00  0.45593999997E+02  0.45594000000E+02  0.51100000000E-03 0.  1.
         11   -1    0    0    0    0 -0.00000000000E+00 -0.00000000000E+00 -0.45593999997E+02  0.45594000000E+02  0.51100000000E-03 0. -1.
    9900012    2    1    2    0    0  0.33390841309E+00 -0.59887513408E+00 -0.96068154359E+00  0.90007722370E+02  0.89999983506E+02 0.  0.
        -12    1    1    2    0    0 -0.33390841309E+00  0.59887513408E+00  0.96068154359E+00  0.11802776295E+01  0.00000000000E+00 0.  1.
         11    1    3    3    0    0  0.28369573378E+01  0.74612331532E+01  0.30082743989E+01  0.85304186429E+01  0.51100000000E-03 0. -1.
        -11    1    3    3    0    0 -0.75185192727E+01  0.21452245271E+02  0.29064202234E+02  0.36897897108E+02  0.51100000000E-03 0.  1.
         12    1    3    3    0    0  0.50154703480E+01 -0.29512353559E+02 -0.33033158177E+02  0.44579406619E+02  0.00000000000E+00 0. -1.
</event>
<event>
 7    1  0.2593256E-015  0.9000784E+02  0.7816164E-02  0.1186339E+00
        -11   -1    0    0    0    0  0.00000000000E+00  0.00000000000E+00  0.45593999997E+02  0.45594000000E+02  0.51100000000E-03 0.  1.
         11   -1    0    0    0    0 -0.00000000000E+00 -0.00000000000E+00 -0.45593999997E+02  0.45594000000E+02  0.51100000000E-03 0. -1.
    9900012    2    1    2    0    0  0.44245077449E+00 -0.82938564290E+00 -0.71353704805E+00  0.90007839692E+02  0.90000102376E+02 0.  0.
        -12    1    1    2    0    0 -0.44245077449E+00  0.82938564290E+00  0.71353704805E+00  0.11801603075E+01  0.00000000000E+00 0.  1.
         11    1    3    3    0    0  0.11974612210E+01 -0.83659570350E+01  0.41933205640E+00  0.84616186467E+01  0.51100000000E-03 0. -1.
        -11    1    3    3    0    0 -0.60320710539E+00 -0.27793971101E+02  0.25168076032E+02  0.37500676524E+02  0.51100000000E-03 0.  1.
         12    1    3    3    0    0 -0.15180334108E+00  0.35330542493E+02 -0.26300945136E+02  0.44045544521E+02  0.00000000000E+00 0. -1.
</event>
<event>
 7    1  0.2593256E-015  0.9000771E+02  0.7816164E-02  0.1186339E+00
        -11   -1    0    0    0    0  0.00000000000E+00  0.00000000000E+00  0.45593999997E+02  0.45594000000E+02  0.51100000000E-03 0.  1.
         11   -1    0    0    0    0 -0.00000000000E+00 -0.00000000000E+00 -0.45593999997E+02  0.45594000000E+02  0.51100000000E-03 0. -1.
    9900012    2    1    2    0    0  0.14997349748E+00  0.41021215059E+00 -0.10965015767E+01  0.90007711151E+02  0.89999972139E+02 0.  0.
        -12    1    1    2    0    0 -0.14997349748E+00 -0.41021215059E+00  0.10965015767E+01  0.11802888486E+01  0.00000000000E+00 0.  1.
         11    1    3    3    0    0  0.42656367413E+00  0.63942683820E+01  0.74121228313E+01  0.97983768981E+01  0.51100000000E-03 0. -1.
        -11    1    3    3    0    0 -0.14804725447E+02  0.99473092552E+01  0.30676037333E+02  0.35484477222E+02  0.51100000000E-03 0.  1.
         12    1    3    3    0    0  0.14528135271E+02 -0.15931365487E+02 -0.39184661741E+02  0.44724857031E+02  0.00000000000E+00 0. -1.
</event>
<event>
 7    1  0.2593256E-015  0.9000773E+02  0.7816164E-02  0.1186339E+00
        -11   -1    0    0    0    0  0.00000000000E+00  0.00000000000E+00  0.45593999997E+02  0.45594000000E+02  0.51100000000E-03 0. -1.
         11   -1    0    0    0    0 -0.00000000000E+00 -0.00000000000E+00 -0.45593999997E+02  0.45594000000E+02  0.51100000000E-03 0.  1.
    9900012    2    1    2    0    0 -0.85121022797E+00 -0.12297940912E+00  0.80830382824E+00  0.90007729749E+02  0.89999990981E+02 0.  0.
        -12    1    1    2    0    0  0.85121022797E+00  0.12297940912E+00 -0.80830382824E+00  0.11802702513E+01  0.00000000000E+00 0.  1.
         11    1    3    3    0    0 -0.54875131490E+01  0.50718881352E+00 -0.80476098857E+01  0.97536693704E+01  0.51100000000E-03 0. -1.
        -11    1    3    3    0    0 -0.35942701866E+02 -0.48770801020E+01 -0.61337408198E+01  0.36787042617E+02  0.51100000000E-03 0.  1.
         12    1    3    3    0    0  0.40579004787E+02  0.42469118793E+01  0.14989654534E+02  0.43467017762E+02  0.00000000000E+00 0. -1.
</event>
<event>
 7    1  0.2593256E-015  0.9000778E+02  0.7816164E-02  0.1186339E+00
        -11   -1    0    0    0    0  0.00000000000E+00  0.00000000000E+00  0.45593999997E+02  0.45594000000E+02  0.51100000000E-03 0. -1.
         11   -1    0    0    0    0 -0.00000000000E+00 -0.00000000000E+00 -0.45593999997E+02  0.45594000000E+02  0.51100000000E-03 0.  1.
    9900012    2    1    2    0    0  0.21420425669E+00 -0.30453174184E-01  0.11602230691E+01  0.90007776110E+02  0.90000037955E+02 0.  0.
        -12    1    1    2    0    0 -0.21420425669E+00  0.30453174184E-01 -0.11602230691E+01  0.11802238896E+01  0.00000000000E+00 0.  1.
         11    1    3    3    0    0 -0.82805070996E+01  0.31245861858E+01  0.34070539139E+01  0.94835569957E+01  0.51100000000E-03 0. -1.
        -11    1    3    3    0    0 -0.19322721131E+02 -0.33205659579E+02 -0.77931278053E+01  0.39200972198E+02  0.51100000000E-03 0.  1.
         12    1    3    3    0    0  0.27817432487E+02  0.30050620220E+02  0.55462969605E+01  0.41323246917E+02  0.00000000000E+00 0. -1.
</event>
<event>
 7    1  0.2593256E-015  0.9000769E+02  0.7816164E-02  0.1186339E+00
        -11   -1    0    0    0    0  0.00000000000E+00  0.00000000000E+00  0.45593999997E+02  0.45594000000E+02  0.51100000000E-03 0.  1.
         11   -1    0    0    0    0 -0.00000000000E+00 -0.00000000000E+00 -0.45593999997E+02  0.45594000000E+02  0.51100000000E-03 0. -1.
    9900012    2    1    2    0    0 -0.81070473781E+00  0.26985331486E+00 -0.81428936854E+00  0.90007690651E+02  0.89999951368E+02 0.  0.
        -12    1    1    2    0    0  0.81070473781E+00 -0.26985331486E+00  0.81428936854E+00  0.11803093489E+01  0.00000000000E+00 0.  1.
         11    1    3    3    0    0  0.40647024028E+01  0.86297599417E+01 -0.88442616046E+00  0.95800194242E+01  0.51100000000E-03 0. -1.
        -11    1    3    3    0    0  0.42385991677E+01 -0.29552517365E+02  0.30209554115E+02  0.42472746151E+02  0.51100000000E-03 0.  1.
         12    1    3    3    0    0 -0.91140063083E+01  0.21192610738E+02 -0.30139417324E+02  0.37954925076E+02  0.00000000000E+00 0. -1.
</event>
<event>
 7    1  0.2593256E-015  0.9000778E+02  0.7816164E-02  0.1186339E+00
        -11   -1    0    0    0    0  0.00000000000E+00  0.00000000000E+00  0.45593999997E+02  0.45594000000E+02  0.51100000000E-03 0.  1.
         11   -1    0    0    0    0 -0.00000000000E+00 -0.00000000000E+00 -0.45593999997E+02  0.45594000000E+02  0.51100000000E-03 0. -1.
    9900012    2    1    2    0    0 -0.95278697442E+00  0.68936495516E+00  0.99468133156E-01  0.90007779271E+02  0.90000041157E+02 0.  0.
        -12    1    1    2    0    0  0.95278697442E+00 -0.68936495516E+00 -0.99468133156E-01  0.11802207292E+01  0.00000000000E+00 0.  1.
         11    1    3    3    0    0 -0.42958645941E+02 -0.22975511488E+01  0.21934766199E+01  0.43075925321E+02  0.51100000000E-03 0. -1.
        -11    1    3    3    0    0  0.48917190846E+01  0.74001504263E+01  0.26456536634E+01  0.92569231120E+01  0.51100000000E-03 0.  1.
        -12    1    3    3    0    0  0.37114139881E+02 -0.44132343224E+01 -0.47396621502E+01  0.37674930838E+02  0.00000000000E+00 0.  1.
</event>
<event>
 7    1  0.2593256E-015  0.9000750E+02  0.7816164E-02  0.1186340E+00
        -11   -1    0    0    0    0  0.00000000000E+00  0.00000000000E+00  0.45593999997E+02  0.45594000000E+02  0.51100000000E-03 0.  1.
         11   -1    0    0    0    0 -0.00000000000E+00 -0.00000000000E+00 -0.45593999997E+02  0.45594000000E+02  0.51100000000E-03 0. -1.
    9900012    2    1    2    0    0  0.81085097147E+00  0.51856414021E+00 -0.68351913906E+00  0.90007497362E+02  0.89999755527E+02 0.  0.
        -12    1    1    2    0    0 -0.81085097147E+00 -0.51856414021E+00  0.68351913906E+00  0.11805026382E+01  0.00000000000E+00 0.  1.
         11    1    3    3    0    0  0.13712145557E+02 -0.39232234489E+01 -0.36518896242E+02  0.39205157837E+02  0.51100000000E-03 0. -1.
        -11    1    3    3    0    0  0.33974931543E+01  0.78840726484E+01 -0.25520534029E+01  0.89562569241E+01  0.51100000000E-03 0.  1.
        -12    1    3    3    0    0 -0.16298787739E+02 -0.34422850593E+01  0.38387430506E+02  0.41846082601E+02  0.00000000000E+00 0.  1.
</event>
<event>
 7    1  0.2593256E-015  0.9000767E+02  0.7816164E-02  0.1186339E+00
        -11   -1    0    0    0    0  0.00000000000E+00  0.00000000000E+00  0.45593999997E+02  0.45594000000E+02  0.51100000000E-03 0. -1.
         11   -1    0    0    0    0 -0.00000000000E+00 -0.00000000000E+00 -0.45593999997E+02  0.45594000000E+02  0.51100000000E-03 0.  1.
    9900012    2    1    2    0    0  0.40273304041E+00 -0.37956810410E+00  0.10425468429E+01  0.90007673873E+02  0.89999934368E+02 0.  0.
        -12    1    1    2    0    0 -0.40273304041E+00  0.37956810410E+00 -0.10425468429E+01  0.11803261275E+01  0.00000000000E+00 0.  1.
         11    1    3    3    0    0  0.57280973060E+01 -0.14283552767E+02  0.35402161491E+02  0.38602383565E+02  0.51100000000E-03 0. -1.
        -11    1    3    3    0    0 -0.12472080539E+02 -0.57988254889E+01 -0.36589183934E+01  0.14232598290E+02  0.51100000000E-03 0.  1.
        -12    1    3    3    0    0  0.71467162731E+01  0.19702810152E+02 -0.30700696254E+02  0.37172692018E+02  0.00000000000E+00 0.  1.
</event>
<event>
 7    1  0.2593256E-015  0.9000769E+02  0.7816164E-02  0.1186339E+00
        -11   -1    0    0    0    0  0.00000000000E+00  0.00000000000E+00  0.45593999997E+02  0.45594000000E+02  0.51100000000E-03 0.  1.
         11   -1    0    0    0    0 -0.00000000000E+00 -0.00000000000E+00 -0.45593999997E+02  0.45594000000E+02  0.51100000000E-03 0. -1.
    9900012    2    1    2    0    0  0.18066173558E+00  0.11010991980E+01 -0.38481616846E+00  0.90007685809E+02  0.89999946461E+02 0.  0.
        -12    1    1    2    0    0 -0.18066173558E+00 -0.11010991980E+01  0.38481616846E+00  0.11803141912E+01  0.00000000000E+00 0.  1.
         11    1    3    3    0    0  0.16706654718E+02 -0.15228913334E+02 -0.27575201569E+02  0.35657030934E+02  0.51100000000E-03 0. -1.
        -11    1    3    3    0    0  0.12277024386E+02  0.13629623562E+01  0.15567544377E+02  0.19872881833E+02  0.51100000000E-03 0.  1.
        -12    1    3    3    0    0 -0.28803017368E+02  0.14967050175E+02  0.11622841023E+02  0.34477773042E+02  0.00000000000E+00 0.  1.
</event>
<event>
 7    1  0.2593256E-015  0.9000760E+02  0.7816164E-02  0.1186339E+00
        -11   -1    0    0    0    0  0.00000000000E+00  0.00000000000E+00  0.45593999997E+02  0.45594000000E+02  0.51100000000E-03 0.  1.
         11   -1    0    0    0    0 -0.00000000000E+00 -0.00000000000E+00 -0.45593999997E+02  0.45594000000E+02  0.51100000000E-03 0. -1.
    9900012    2    1    2    0    0 -0.31969447541E+00  0.11247069816E+01 -0.16180259928E+00  0.90007597343E+02  0.89999856828E+02 0.  0.
        -12    1    1    2    0    0  0.31969447541E+00 -0.11247069816E+01  0.16180259928E+00  0.11804026572E+01  0.00000000000E+00 0.  1.
         11    1    3    3    0    0  0.92445268222E+00 -0.82045818728E+01  0.31328167944E+01  0.88308729918E+01  0.51100000000E-03 0. -1.
        -11    1    3    3    0    0 -0.72313311584E+01 -0.14373611198E+02  0.33405988670E+02  0.37079009270E+02  0.51100000000E-03 0.  1.
         12    1    3    3    0    0  0.59871840008E+01  0.23702900052E+02 -0.36700608063E+02  0.44097715081E+02  0.00000000000E+00 0. -1.
</event>
<event>
 7    1  0.2593256E-015  0.9000766E+02  0.7816164E-02  0.1186339E+00
        -11   -1    0    0    0    0  0.00000000000E+00  0.00000000000E+00  0.45593999997E+02  0.45594000000E+02  0.51100000000E-03 0. -1.
         11   -1    0    0    0    0 -0.00000000000E+00 -0.00000000000E+00 -0.45593999997E+02  0.45594000000E+02  0.51100000000E-03 0.  1.
    9900012    2    1    2    0    0  0.11230567877E+01  0.18111953137E+00 -0.31485942295E+00  0.90007662214E+02  0.89999922555E+02 0.  0.
        -12    1    1    2    0    0 -0.11230567877E+01 -0.18111953137E+00  0.31485942295E+00  0.11803377861E+01  0.00000000000E+00 0.  1.
         11    1    3    3    0    0 -0.36217201265E+02 -0.14610596803E+02  0.17581307946E+01  0.39092790007E+02  0.51100000000E-03 0. -1.
        -11    1    3    3    0    0  0.11307119660E+01 -0.61689745950E+00  0.97427668179E+01  0.98275417859E+01  0.51100000000E-03 0.  1.
        -12    1    3    3    0    0  0.36209546086E+02  0.15408613794E+02 -0.11815757035E+02  0.41087330421E+02  0.00000000000E+00 0.  1.
</event>
<event>
 7    1  0.2593256E-015  0.9000745E+02  0.7816164E-02  0.1186340E+00
        -11   -1    0    0    0    0  0.00000000000E+00  0.00000000000E+00  0.45593999997E+02  0.45594000000E+02  0.51100000000E-03 0. -1.
         11   -1    0    0    0    0 -0.00000000000E+00 -0.00000000000E+00 -0.45593999997E+02  0.45594000000E+02  0.51100000000E-03 0.  1.
    9900012    2    1    2    0    0  0.94842239448E+00 -0.29141810777E+00  0.63974680108E+00  0.90007446943E+02  0.89999704442E+02 0.  0.
        -12    1    1    2    0    0 -0.94842239448E+00  0.29141810777E+00 -0.63974680108E+00  0.11805530574E+01  0.00000000000E+00 0.  1.
         11    1    3    3    0    0 -0.18784664089E+02 -0.31788371454E+02  0.64685002959E+01  0.37486072894E+02  0.51100000000E-03 0. -1.
        -11    1    3    3    0    0 -0.19080073682E+01 -0.13867298845E+01  0.98645935734E+01  0.10142668215E+02  0.51100000000E-03 0.  1.
        -12    1    3    3    0    0  0.21641093852E+02  0.32883683231E+02 -0.15693347068E+02  0.42378705834E+02  0.00000000000E+00 0.  1.
</event>
<event>
 7    1  0.2593256E-015  0.9000775E+02  0.7816164E-02  0.1186339E+00
        -11   -1    0    0    0    0  0.00000000000E+00  0.00000000000E+00  0.45593999997E+02  0.45594000000E+02  0.51100000000E-03 0.  1.
         11   -1    0    0    0    0 -0.00000000000E+00 -0.00000000000E+00 -0.45593999997E+02  0.45594000000E+02  0.51100000000E-03 0. -1.
    9900012    2    1    2    0    0  0.48057279493E+00 -0.77084043631E+00 -0.75355877883E+00  0.90007747475E+02  0.90000008942E+02 0.  0.
        -12    1    1    2    0    0 -0.48057279493E+00  0.77084043631E+00  0.75355877883E+00  0.11802525249E+01  0.00000000000E+00 0.  1.
         11    1    3    3    0    0  0.11692862900E+02 -0.42904603347E+01  0.59833828828E+01  0.13817813273E+02  0.51100000000E-03 0. -1.
        -11    1    3    3    0    0 -0.28890918034E+01  0.80678334237E+01  0.33639779331E+02  0.34714140365E+02  0.51100000000E-03 0.  1.
         12    1    3    3    0    0 -0.83231983013E+01 -0.45482135253E+01 -0.40376720993E+02  0.41475793836E+02  0.00000000000E+00 0. -1.
</event>
<event>
 7    1  0.2593256E-015  0.9000772E+02  0.7816164E-02  0.1186339E+00
        -11   -1    0    0    0    0  0.00000000000E+00  0.00000000000E+00  0.45593999997E+02  0.45594000000E+02  0.51100000000E-03 0.  1.
         11   -1    0    0    0    0 -0.00000000000E+00 -0.00000000000E+00 -0.45593999997E+02  0.45594000000E+02  0.51100000000E-03 0. -1.
    9900012    2    1    2    0    0  0.22342562598E-01  0.89444714513E+00 -0.76975512923E+00  0.90007721285E+02  0.89999982406E+02 0.  0.
        -12    1    1    2    0    0 -0.22342562598E-01 -0.89444714513E+00  0.76975512923E+00  0.11802787148E+01  0.00000000000E+00 0.  1.
         11    1    3    3    0    0  0.99715613794E+01 -0.51879225013E+01  0.13230376943E+01  0.11317994753E+02  0.51100000000E-03 0. -1.
        -11    1    3    3    0    0  0.27876740812E+02  0.11223133686E+02  0.18526743625E+02  0.35303139203E+02  0.51100000000E-03 0.  1.
         12    1    3    3    0    0 -0.37825959628E+02 -0.51407640398E+01 -0.20619536448E+02  0.43386587329E+02  0.00000000000E+00 0. -1.
</event>
<event>
 7    1  0.3348596E-015  0.9000782E+02  0.7816164E-02  0.1186339E+00
        -11   -1    0    0    0    0  0.00000000000E+00  0.00000000000E+00  0.45593999997E+02  0.45594000000E+02  0.51100000000E-03 0. -1.
         11   -1    0    0    0    0 -0.00000000000E+00 -0.00000000000E+00 -0.45593999997E+02  0.45594000000E+02  0.51100000000E-03 0.  1.
    9900012    2    1    2    0    0 -0.95689352815E-01 -0.80474735215E+00  0.85793603488E+00  0.90007818237E+02  0.90000080638E+02 0.  0.
        -12    1    1    2    0    0  0.95689352815E-01  0.80474735215E+00 -0.85793603488E+00  0.11801817627E+01  0.00000000000E+00 0.  1.
         11    1    3    3    0    0  0.12099027628E+02  0.32122515643E+02  0.14551749688E+02  0.37282648779E+02  0.51100000000E-03 0. -1.
        -11    1    3    3    0    0  0.89110982080E+01  0.95515673483E+00  0.30082585053E+01  0.94535503996E+01  0.51100000000E-03 0.  1.
        -12    1    3    3    0    0 -0.21105815189E+02 -0.33882419730E+02 -0.16702072158E+02  0.43271619058E+02  0.00000000000E+00 0.  1.
</event>
<event>
 7    1  0.2593256E-015  0.9000777E+02  0.7816164E-02  0.1186339E+00
        -11   -1    0    0    0    0  0.00000000000E+00  0.00000000000E+00  0.45593999997E+02  0.45594000000E+02  0.51100000000E-03 0.  1.
         11   -1    0    0    0    0 -0.00000000000E+00 -0.00000000000E+00 -0.45593999997E+02  0.45594000000E+02  0.51100000000E-03 0. -1.
    9900012    2    1    2    0    0  0.78260788455E+00 -0.30306157211E+00  0.82983127932E+00  0.90007770628E+02  0.90000032401E+02 0.  0.
        -12    1    1    2    0    0 -0.78260788455E+00  0.30306157211E+00 -0.82983127932E+00  0.11802293716E+01  0.00000000000E+00 0.  1.
         11    1    3    3    0    0  0.42184190581E+00 -0.95436124001E+01  0.34987848719E+01  0.10173494192E+02  0.51100000000E-03 0. -1.
        -11    1    3    3    0    0  0.12237608122E+02  0.20157080927E+02  0.33073983217E+02  0.40619642172E+02  0.51100000000E-03 0.  1.
         12    1    3    3    0    0 -0.11876842144E+02 -0.10916530099E+02 -0.35742936810E+02  0.39214634264E+02  0.00000000000E+00 0. -1.
</event>
<event>
 7    1  0.2593256E-015  0.9000776E+02  0.7816164E-02  0.1186339E+00
        -11   -1    0    0    0    0  0.00000000000E+00  0.00000000000E+00  0.45593999997E+02  0.45594000000E+02  0.51100000000E-03 0. -1.
         11   -1    0    0    0    0 -0.00000000000E+00 -0.00000000000E+00 -0.45593999997E+02  0.45594000000E+02  0.51100000000E-03 0.  1.
    9900012    2    1    2    0    0  0.10480641747E+00  0.70202552031E+00  0.94294649554E+00  0.90007757521E+02  0.90000019120E+02 0.  0.
        -12    1    1    2    0    0 -0.10480641747E+00 -0.70202552031E+00 -0.94294649554E+00  0.11802424792E+01  0.00000000000E+00 0.  1.
         11    1    3    3    0    0 -0.67965974646E+01  0.11685942670E+02  0.40234083899E+02  0.42444510842E+02  0.51100000000E-03 0. -1.
        -11    1    3    3    0    0 -0.76545431232E+01 -0.76697612355E+01 -0.10279494262E+02  0.14936039313E+02  0.51100000000E-03 0.  1.
        -12    1    3    3    0    0  0.14555947005E+02 -0.33141559146E+01 -0.29011643142E+02  0.32627207365E+02  0.00000000000E+00 0.  1.
</event>
<event>
 7    1  0.2593256E-015  0.9000774E+02  0.7816164E-02  0.1186339E+00
        -11   -1    0    0    0    0  0.00000000000E+00  0.00000000000E+00  0.45593999997E+02  0.45594000000E+02  0.51100000000E-03 0. -1.
         11   -1    0    0    0    0 -0.00000000000E+00 -0.00000000000E+00 -0.45593999997E+02  0.45594000000E+02  0.51100000000E-03 0.  1.
    9900012    2    1    2    0    0  0.10525062300E+01  0.48268104841E+00 -0.22862824842E+00  0.90007736794E+02  0.89999998120E+02 0.  0.
        -12    1    1    2    0    0 -0.10525062300E+01 -0.48268104841E+00  0.22862824842E+00  0.11802632057E+01  0.00000000000E+00 0.  1.
         11    1    3    3    0    0  0.14443619135E+01 -0.84148093804E+01 -0.46445912964E+01  0.97194355194E+01  0.51100000000E-03 0. -1.
        -11    1    3    3    0    0 -0.67998948938E+01  0.19247684026E+02 -0.34183438049E+02  0.39814813174E+02  0.51100000000E-03 0.  1.
         12    1    3    3    0    0  0.64080392103E+01 -0.10350193597E+02  0.38599401097E+02  0.40473488101E+02  0.00000000000E+00 0. -1.
</event>
<event>
 7    1  0.2593256E-015  0.9000773E+02  0.7816164E-02  0.1186339E+00
        -11   -1    0    0    0    0  0.00000000000E+00  0.00000000000E+00  0.45593999997E+02  0.45594000000E+02  0.51100000000E-03 0.  1.
         11   -1    0    0    0    0 -0.00000000000E+00 -0.00000000000E+00 -0.45593999997E+02  0.45594000000E+02  0.51100000000E-03 0. -1.
    9900012    2    1    2    0    0 -0.40454094921E+00 -0.10845701463E+01 -0.23040445623E+00  0.90007732236E+02  0.89999993501E+02 0.  0.
        -12    1    1    2    0    0  0.40454094921E+00  0.10845701463E+01  0.23040445623E+00  0.11802677642E+01  0.00000000000E+00 0.  1.
         11    1    3    3    0    0 -0.15331145980E+02 -0.38141684315E+02 -0.52966682729E+01  0.41447398163E+02  0.51100000000E-03 0. -1.
        -11    1    3    3    0    0 -0.79860632133E+01  0.87285702490E+01  0.50938062961E+00  0.11841647399E+02  0.51100000000E-03 0.  1.
        -12    1    3    3    0    0  0.22912668244E+02  0.28328543919E+02  0.45568831871E+01  0.36718686674E+02  0.00000000000E+00 0.  1.
</event>
<event>
 7    1  0.2593256E-015  0.9000772E+02  0.7816164E-02  0.1186339E+00
        -11   -1    0    0    0    0  0.00000000000E+00  0.00000000000E+00  0.45593999997E+02  0.45594000000E+02  0.51100000000E-03 0. -1.
         11   -1    0    0    0    0 -0.00000000000E+00 -0.00000000000E+00 -0.45593999997E+02  0.45594000000E+02  0.51100000000E-03 0.  1.
    9900012    2    1    2    0    0  0.74948717975E+00 -0.37091334090E+00  0.83291341995E+00  0.90007723548E+02  0.89999984698E+02 0.  0.
        -12    1    1    2    0    0 -0.74948717975E+00  0.37091334090E+00 -0.83291341995E+00  0.11802764524E+01  0.00000000000E+00 0.  1.
         11    1    3    3    0    0  0.54012548641E+01  0.54451831371E-01  0.69264446135E+01  0.87836299076E+01  0.51100000000E-03 0. -1.
        -11    1    3    3    0    0  0.36129747119E+02 -0.21092552012E+01  0.96841043047E+01  0.37464509350E+02  0.51100000000E-03 0.  1.
         12    1    3    3    0    0 -0.40781514804E+02  0.16838900289E+01 -0.15777635498E+02  0.43759584290E+02  0.00000000000E+00 0. -1.
</event>
<event>
 7    1  0.2593256E-015  0.9000774E+02  0.7816164E-02  0.1186339E+00
        -11   -1    0    0    0    0  0.00000000000E+00  0.00000000000E+00  0.45593999997E+02  0.45594000000E+02  0.51100000000E-03 0.  1.
         11   -1    0    0    0    0 -0.00000000000E+00 -0.00000000000E+00 -0.45593999997E+02  0.45594000000E+02  0.51100000000E-03 0. -1.
    9900012    2    1    2    0    0 -0.11627008141E+01 -0.32647946828E-01  0.20017603501E+00  0.90007741759E+02  0.90000003150E+02 0.  0.
        -12    1    1    2    0    0  0.11627008141E+01  0.32647946828E-01 -0.20017603501E+00  0.11802582415E+01  0.00000000000E+00 0.  1.
         11    1    3    3    0    0  0.92207483327E+01  0.12533256952E+02  0.26065566842E+00  0.15561898062E+02  0.51100000000E-03 0. -1.
        -11    1    3    3    0    0 -0.28182143895E+02  0.18009392972E+02 -0.14215315942E+02  0.36340702763E+02  0.51100000000E-03 0.  1.
         12    1    3    3    0    0  0.17798694748E+02 -0.30575297871E+02  0.14154836308E+02  0.38105140934E+02  0.00000000000E+00 0. -1.
</event>
<event>
 7    1  0.2593256E-015  0.9000798E+02  0.7816164E-02  0.1186339E+00
        -11   -1    0    0    0    0  0.00000000000E+00  0.00000000000E+00  0.45593999997E+02  0.45594000000E+02  0.51100000000E-03 0.  1.
         11   -1    0    0    0    0 -0.00000000000E+00 -0.00000000000E+00 -0.45593999997E+02  0.45594000000E+02  0.51100000000E-03 0. -1.
    9900012    2    1    2    0    0  0.20549890631E+00 -0.93963929785E+00 -0.68359487793E+00  0.90007977217E+02  0.90000241716E+02 0.  0.
        -12    1    1    2    0    0 -0.20549890631E+00  0.93963929785E+00  0.68359487793E+00  0.11800227827E+01  0.00000000000E+00 0.  1.
         11    1    3    3    0    0 -0.90232564494E+01  0.35330788423E+01  0.27435187942E+01  0.10071181594E+02  0.51100000000E-03 0. -1.
        -11    1    3    3    0    0 -0.30486314764E+02  0.10915112410E+02 -0.15165693076E+02  0.35756863866E+02  0.51100000000E-03 0.  1.
         12    1    3    3    0    0  0.39715070120E+02 -0.15387830550E+02  0.11738579403E+02  0.44179931757E+02  0.00000000000E+00 0. -1.
</event>
<event>
 7    1  0.2593256E-015  0.9000804E+02  0.7816164E-02  0.1186338E+00
        -11   -1    0    0    0    0  0.00000000000E+00  0.00000000000E+00  0.45593999997E+02  0.45594000000E+02  0.51100000000E-03 0.  1.
         11   -1    0    0    0    0 -0.00000000000E+00 -0.00000000000E+00 -0.45593999997E+02  0.45594000000E+02  0.51100000000E-03 0. -1.
    9900012    2    1    2    0    0 -0.91962685997E+00 -0.71630922137E+00  0.18300293108E+00  0.90008041299E+02  0.90000306644E+02 0.  0.
        -12    1    1    2    0    0  0.91962685997E+00  0.71630922137E+00 -0.18300293108E+00  0.11799587005E+01  0.00000000000E+00 0.  1.
         11    1    3    3    0    0 -0.47414185933E+01 -0.92309953513E+01  0.22474880300E+01  0.10618075539E+02  0.51100000000E-03 0. -1.
        -11    1    3    3    0    0  0.14081736643E+02 -0.28741559800E+02  0.17065153132E+02  0.36271090669E+02  0.51100000000E-03 0.  1.
         12    1    3    3    0    0 -0.10259944909E+02  0.37256245930E+02 -0.19129638231E+02  0.43118875092E+02  0.00000000000E+00 0. -1.
</event>
<event>
 7    1  0.2593256E-015  0.9000755E+02  0.7816164E-02  0.1186339E+00
        -11   -1    0    0    0    0  0.00000000000E+00  0.00000000000E+00  0.45593999997E+02  0.45594000000E+02  0.51100000000E-03 0.  1.
         11   -1    0    0    0    0 -0.00000000000E+00 -0.00000000000E+00 -0.45593999997E+02  0.45594000000E+02  0.51100000000E-03 0. -1.
    9900012    2    1    2    0    0  0.11066873913E+01 -0.26171481131E+00 -0.31654212454E+00  0.90007554939E+02  0.89999813864E+02 0.  0.
        -12    1    1    2    0    0 -0.11066873913E+01  0.26171481131E+00  0.31654212454E+00  0.11804450606E+01  0.00000000000E+00 0.  1.
         11    1    3    3    0    0 -0.35839138881E+02  0.18970602903E+01 -0.21765697520E+02  0.41973662007E+02  0.51100000000E-03 0. -1.
        -11    1    3    3    0    0  0.54455498229E+01  0.81785930970E+01  0.49610173737E+01  0.11007047359E+02  0.51100000000E-03 0.  1.
        -12    1    3    3    0    0  0.31500276450E+02 -0.10337368199E+02  0.16488138022E+02  0.37026845573E+02  0.00000000000E+00 0.  1.
</event>
<event>
 7    1  0.2593256E-015  0.9000775E+02  0.7816164E-02  0.1186339E+00
        -11   -1    0    0    0    0  0.00000000000E+00  0.00000000000E+00  0.45593999997E+02  0.45594000000E+02  0.51100000000E-03 0.  1.
         11   -1    0    0    0    0 -0.00000000000E+00 -0.00000000000E+00 -0.45593999997E+02  0.45594000000E+02  0.51100000000E-03 0. -1.
    9900012    2    1    2    0    0 -0.34896297451E+00 -0.10467666289E+01 -0.41890740804E+00  0.90007754708E+02  0.90000016270E+02 0.  0.
        -12    1    1    2    0    0  0.34896297451E+00  0.10467666289E+01  0.41890740804E+00  0.11802452920E+01  0.00000000000E+00 0.  1.
         11    1    3    3    0    0 -0.32978063608E+01  0.43083888579E+01 -0.29190939145E+01  0.61610754651E+01  0.51100000000E-03 0. -1.
        -11    1    3    3    0    0 -0.38082076194E+02  0.96806520472E+01 -0.46465295640E+01  0.39567029059E+02  0.51100000000E-03 0.  1.
         12    1    3    3    0    0  0.41030919580E+02 -0.15035807534E+02  0.71467160705E+01  0.44279650184E+02  0.00000000000E+00 0. -1.
</event>
<event>
 7    1  0.2593256E-015  0.9000774E+02  0.7816164E-02  0.1186339E+00
        -11   -1    0    0    0    0  0.00000000000E+00  0.00000000000E+00  0.45593999997E+02  0.45594000000E+02  0.51100000000E-03 0.  1.
         11   -1    0    0    0    0 -0.00000000000E+00 -0.00000000000E+00 -0.45593999997E+02  0.45594000000E+02  0.51100000000E-03 0. -1.
    9900012    2    1    2    0    0  0.38448607432E+00 -0.17373151933E+00 -0.11022665027E+01  0.90007744254E+02  0.90000005678E+02 0.  0.
        -12    1    1    2    0    0 -0.38448607432E+00  0.17373151933E+00  0.11022665027E+01  0.11802557457E+01  0.00000000000E+00 0.  1.
         11    1    3    3    0    0  0.59739476181E+01 -0.44223888403E+01  0.17659735326E+01  0.76396489434E+01  0.51100000000E-03 0. -1.
        -11    1    3    3    0    0  0.32442987138E+01  0.35059798634E+02 -0.25204089687E+02  0.43300820912E+02  0.51100000000E-03 0.  1.
         12    1    3    3    0    0 -0.88337602576E+01 -0.30811141313E+02  0.22335849652E+02  0.39067274399E+02  0.00000000000E+00 0. -1.
</event>
<event>
 7    1  0.2593256E-015  0.9000775E+02  0.7816164E-02  0.1186339E+00
        -11   -1    0    0    0    0  0.00000000000E+00  0.00000000000E+00  0.45593999997E+02  0.45594000000E+02  0.51100000000E-03 0. -1.
         11   -1    0    0    0    0 -0.00000000000E+00 -0.00000000000E+00 -0.45593999997E+02  0.45594000000E+02  0.51100000000E-03 0.  1.
    9900012    2    1    2    0    0 -0.47288751669E+00  0.74447168370E+00  0.78430237669E+00  0.90007749641E+02  0.90000011137E+02 0.  0.
        -12    1    1    2    0    0  0.47288751669E+00 -0.74447168370E+00 -0.78430237669E+00  0.11802503588E+01  0.00000000000E+00 0.  1.
         11    1    3    3    0    0 -0.70159284109E+00  0.61097415432E+01 -0.57771393170E+01  0.84378026280E+01  0.51100000000E-03 0. -1.
        -11    1    3    3    0    0  0.37503466337E+01  0.64943790681E+01 -0.36244427487E+02  0.37012168046E+02  0.51100000000E-03 0.  1.
         12    1    3    3    0    0 -0.35216413093E+01 -0.11859648928E+02  0.42805869181E+02  0.44557778967E+02  0.00000000000E+00 0. -1.
</event>
<event>
 7    1  0.2593256E-015  0.9000777E+02  0.7816164E-02  0.1186339E+00
        -11   -1    0    0    0    0  0.00000000000E+00  0.00000000000E+00  0.45593999997E+02  0.45594000000E+02  0.51100000000E-03 0. -1.
         11   -1    0    0    0    0 -0.00000000000E+00 -0.00000000000E+00 -0.45593999997E+02  0.45594000000E+02  0.51100000000E-03 0.  1.
    9900012    2    1    2    0    0  0.13831889306E+00 -0.11456759809E+01  0.24746860227E+00  0.90007768549E+02  0.90000030294E+02 0.  0.
        -12    1    1    2    0    0 -0.13831889306E+00  0.11456759809E+01 -0.24746860227E+00  0.11802314512E+01  0.00000000000E+00 0.  1.
         11    1    3    3    0    0  0.97151405592E+01 -0.37100492289E+02  0.12795364701E+02  0.40429591171E+02  0.51100000000E-03 0. -1.
        -11    1    3    3    0    0  0.83555009514E+01  0.69580653215E+00 -0.16217966573E+01  0.85398341634E+01  0.51100000000E-03 0.  1.
        -12    1    3    3    0    0 -0.17932322618E+02  0.35259009775E+02 -0.10926099441E+02  0.41038343215E+02  0.00000000000E+00 0.  1.
</event>
<event>
 7    1  0.2593256E-015  0.9000773E+02  0.7816164E-02  0.1186339E+00
        -11   -1    0    0    0    0  0.00000000000E+00  0.00000000000E+00  0.45593999997E+02  0.45594000000E+02  0.51100000000E-03 0.  1.
         11   -1    0    0    0    0 -0.00000000000E+00 -0.00000000000E+00 -0.45593999997E+02  0.45594000000E+02  0.51100000000E-03 0. -1.
    9900012    2    1    2    0    0  0.66367286008E+00  0.98996189720E-01 -0.97097185972E+00  0.90007725344E+02  0.89999986519E+02 0.  0.
        -12    1    1    2    0    0 -0.66367286008E+00 -0.98996189720E-01  0.97097185972E+00  0.11802746558E+01  0.00000000000E+00 0.  1.
         11    1    3    3    0    0 -0.31100716172E+02  0.18539337322E+02  0.95836902102E+01  0.37454087802E+02  0.51100000000E-03 0. -1.
        -11    1    3    3    0    0 -0.65338003579E+01 -0.45568974163E+01  0.44698729645E+01  0.91343103603E+01  0.51100000000E-03 0.  1.
        -12    1    3    3    0    0  0.38298189390E+02 -0.13883443716E+02 -0.15024535034E+02  0.43419327182E+02  0.00000000000E+00 0.  1.
</event>
<event>
 7    1  0.2593256E-015  0.9000781E+02  0.7816164E-02  0.1186339E+00
        -11   -1    0    0    0    0  0.00000000000E+00  0.00000000000E+00  0.45593999997E+02  0.45594000000E+02  0.51100000000E-03 0.  1.
         11   -1    0    0    0    0 -0.00000000000E+00 -0.00000000000E+00 -0.45593999997E+02  0.45594000000E+02  0.51100000000E-03 0. -1.
    9900012    2    1    2    0    0 -0.25204915364E+00 -0.32671435611E+00 -0.11057019230E+01  0.90007810274E+02  0.90000072570E+02 0.  0.
        -12    1    1    2    0    0  0.25204915364E+00  0.32671435611E+00  0.11057019230E+01  0.11801897258E+01  0.00000000000E+00 0.  1.
         11    1    3    3    0    0  0.25577964768E+02 -0.72968822002E+01 -0.23664133056E+02  0.35601516331E+02  0.51100000000E-03 0. -1.
        -11    1    3    3    0    0  0.19311195469E+01 -0.14454329179E+01 -0.10297883395E+02  0.10576620524E+02  0.51100000000E-03 0.  1.
        -12    1    3    3    0    0 -0.27761133468E+02  0.84156007620E+01  0.32856314529E+02  0.43829673419E+02  0.00000000000E+00 0.  1.
</event>
<event>
 7    1  0.2593256E-015  0.9000773E+02  0.7816164E-02  0.1186339E+00
        -11   -1    0    0    0    0  0.00000000000E+00  0.00000000000E+00  0.45593999997E+02  0.45594000000E+02  0.51100000000E-03 0.  1.
         11   -1    0    0    0    0 -0.00000000000E+00 -0.00000000000E+00 -0.45593999997E+02  0.45594000000E+02  0.51100000000E-03 0. -1.
    9900012    2    1    2    0    0 -0.10850816666E+01  0.43342672009E+00  0.16665929845E+00  0.90007730426E+02  0.89999991668E+02 0.  0.
        -12    1    1    2    0    0  0.10850816666E+01 -0.43342672009E+00 -0.16665929845E+00  0.11802695738E+01  0.00000000000E+00 0.  1.
         11    1    3    3    0    0 -0.20543967306E+02 -0.97071010543E+01 -0.32727020596E+02  0.39841439242E+02  0.51100000000E-03 0. -1.
        -11    1    3    3    0    0 -0.76241616812E+01  0.38294038332E+01  0.23287465176E+01  0.88439377917E+01  0.51100000000E-03 0.  1.
        -12    1    3    3    0    0  0.27083047320E+02  0.63111239413E+01  0.30564933377E+02  0.41322353392E+02  0.00000000000E+00 0.  1.
</event>
<event>
 7    1  0.2593256E-015  0.9000780E+02  0.7816164E-02  0.1186339E+00
        -11   -1    0    0    0    0  0.00000000000E+00  0.00000000000E+00  0.45593999997E+02  0.45594000000E+02  0.51100000000E-03 0. -1.
         11   -1    0    0    0    0 -0.00000000000E+00 -0.00000000000E+00 -0.45593999997E+02  0.45594000000E+02  0.51100000000E-03 0.  1.
    9900012    2    1    2    0    0  0.39452320776E+00  0.44661755973E+00  0.10187051357E+01  0.90007798339E+02  0.90000060477E+02 0.  0.
        -12    1    1    2    0    0 -0.39452320776E+00 -0.44661755973E+00 -0.10187051357E+01  0.11802016606E+01  0.00000000000E+00 0.  1.
         11    1    3    3    0    0  0.19552486800E+02  0.22597257779E+02  0.19705352296E+02  0.35794366995E+02  0.51100000000E-03 0. -1.
        -11    1    3    3    0    0  0.90584716314E+01  0.51871611400E+01  0.58248429812E+00  0.10454751896E+02  0.51100000000E-03 0.  1.
        -12    1    3    3    0    0 -0.28216435224E+02 -0.27337801359E+02 -0.19269131459E+02  0.43758679448E+02  0.00000000000E+00 0.  1.
</event>
<event>
 7    1  0.3411554E-015  0.9000772E+02  0.7816164E-02  0.1186339E+00
        -11   -1    0    0    0    0  0.00000000000E+00  0.00000000000E+00  0.45593999997E+02  0.45594000000E+02  0.51100000000E-03 0. -1.
         11   -1    0    0    0    0 -0.00000000000E+00 -0.00000000000E+00 -0.45593999997E+02  0.45594000000E+02  0.51100000000E-03 0.  1.
    9900012    2    1    2    0    0  0.61065935093E+00 -0.17916380516E+00  0.99401426796E+00  0.90007716612E+02  0.89999977671E+02 0.  0.
        -12    1    1    2    0    0 -0.61065935093E+00  0.17916380516E+00 -0.99401426796E+00  0.11802833884E+01  0.00000000000E+00 0.  1.
         11    1    3    3    0    0  0.64511802517E+01  0.28926786098E+02  0.26266268787E+02  0.39601686288E+02  0.51100000000E-03 0. -1.
        -11    1    3    3    0    0 -0.84600480773E+01  0.89364286780E+00  0.30781084770E+01  0.90468648217E+01  0.51100000000E-03 0.  1.
        -12    1    3    3    0    0  0.26195271765E+01 -0.29999592771E+02 -0.28350362996E+02  0.41359165502E+02  0.00000000000E+00 0.  1.
</event>
<event>
 7    1  0.2593256E-015  0.9000772E+02  0.7816164E-02  0.1186339E+00
        -11   -1    0    0    0    0  0.00000000000E+00  0.00000000000E+00  0.45593999997E+02  0.45594000000E+02  0.51100000000E-03 0. -1.
         11   -1    0    0    0    0 -0.00000000000E+00 -0.00000000000E+00 -0.45593999997E+02  0.45594000000E+02  0.51100000000E-03 0.  1.
    9900012    2    1    2    0    0 -0.14721014049E+00 -0.63119902336E+00  0.98639586416E+00  0.90007720443E+02  0.89999981553E+02 0.  0.
        -12    1    1    2    0    0  0.14721014049E+00  0.63119902336E+00 -0.98639586416E+00  0.11802795573E+01  0.00000000000E+00 0.  1.
         11    1    3    3    0    0  0.35403773485E+02 -0.48335182439E+01  0.20269300300E+02  0.41080830207E+02  0.51100000000E-03 0. -1.
        -11    1    3    3    0    0 -0.29453611205E+01 -0.85947896202E+01 -0.30844825657E+00  0.90906931163E+01  0.51100000000E-03 0.  1.
        -12    1    3    3    0    0 -0.32605622505E+02  0.12797108841E+02 -0.18974456180E+02  0.39836197119E+02  0.00000000000E+00 0.  1.
</event>
<event>
 7    1  0.2593256E-015  0.9000752E+02  0.7816164E-02  0.1186339E+00
        -11   -1    0    0    0    0  0.00000000000E+00  0.00000000000E+00  0.45593999997E+02  0.45594000000E+02  0.51100000000E-03 0.  1.
         11   -1    0    0    0    0 -0.00000000000E+00 -0.00000000000E+00 -0.45593999997E+02  0.45594000000E+02  0.51100000000E-03 0. -1.
    9900012    2    1    2    0    0  0.44371274773E+00 -0.74036353138E+00 -0.80530474958E+00  0.90007519208E+02  0.89999777661E+02 0.  0.
        -12    1    1    2    0    0 -0.44371274773E+00  0.74036353138E+00  0.80530474958E+00  0.11804807922E+01  0.00000000000E+00 0.  1.
         11    1    3    3    0    0  0.46896990570E+01  0.48198228358E+01  0.58571720974E+01  0.89179837774E+01  0.51100000000E-03 0. -1.
        -11    1    3    3    0    0  0.47064855245E-01  0.36386643071E+02  0.64030084038E+01  0.36945751122E+02  0.51100000000E-03 0.  1.
         12    1    3    3    0    0 -0.42930511645E+01 -0.41946829438E+02 -0.13065485251E+02  0.44143784308E+02  0.00000000000E+00 0. -1.
</event>
<event>
 7    1  0.2593256E-015  0.9000768E+02  0.7816164E-02  0.1186339E+00
        -11   -1    0    0    0    0  0.00000000000E+00  0.00000000000E+00  0.45593999997E+02  0.45594000000E+02  0.51100000000E-03 0.  1.
         11   -1    0    0    0    0 -0.00000000000E+00 -0.00000000000E+00 -0.45593999997E+02  0.45594000000E+02  0.51100000000E-03 0. -1.
    9900012    2    1    2    0    0  0.53049310535E+00  0.57349842898E+00  0.88477671537E+00  0.90007680883E+02  0.89999941470E+02 0.  0.
        -12    1    1    2    0    0 -0.53049310535E+00 -0.57349842898E+00 -0.88477671537E+00  0.11803191174E+01  0.00000000000E+00 0.  1.
         11    1    3    3    0    0 -0.93801290421E+01 -0.50484639217E+01 -0.37210337211E+02  0.38705077244E+02  0.51100000000E-03 0. -1.
        -11    1    3    3    0    0 -0.10761005248E+02 -0.94972295719E+00  0.54281078329E+01  0.12089895060E+02  0.51100000000E-03 0.  1.
        -12    1    3    3    0    0  0.20671627396E+02  0.65716853079E+01  0.32667006094E+02  0.39212708579E+02  0.00000000000E+00 0.  1.
</event>
<event>
 7    1  0.2593256E-015  0.9000783E+02  0.7816164E-02  0.1186339E+00
        -11   -1    0    0    0    0  0.00000000000E+00  0.00000000000E+00  0.45593999997E+02  0.45594000000E+02  0.51100000000E-03 0. -1.
         11   -1    0    0    0    0 -0.00000000000E+00 -0.00000000000E+00 -0.45593999997E+02  0.45594000000E+02  0.51100000000E-03 0.  1.
    9900012    2    1    2    0    0 -0.52527866242E+00 -0.58401315372E+00  0.88080615155E+00  0.90007826914E+02  0.90000089429E+02 0.  0.
        -12    1    1    2    0    0  0.52527866242E+00  0.58401315372E+00 -0.88080615155E+00  0.11801730863E+01  0.00000000000E+00 0.  1.
         11    1    3    3    0    0  0.28550304918E+02  0.18306436851E+02 -0.23398315328E+02  0.41203479241E+02  0.51100000000E-03 0. -1.
        -11    1    3    3    0    0 -0.80188217826E+01 -0.21924352872E+01 -0.44798164312E+01  0.94433590839E+01  0.51100000000E-03 0.  1.
        -12    1    3    3    0    0 -0.21056761798E+02 -0.16698014717E+02  0.28758937911E+02  0.39360988589E+02  0.00000000000E+00 0.  1.
</event>
<event>
 7    1  0.2593256E-015  0.9000774E+02  0.7816164E-02  0.1186339E+00
        -11   -1    0    0    0    0  0.00000000000E+00  0.00000000000E+00  0.45593999997E+02  0.45594000000E+02  0.51100000000E-03 0.  1.
         11   -1    0    0    0    0 -0.00000000000E+00 -0.00000000000E+00 -0.45593999997E+02  0.45594000000E+02  0.51100000000E-03 0. -1.
    9900012    2    1    2    0    0 -0.93822630222E+00 -0.42124135608E-01 -0.71481599509E+00  0.90007743696E+02  0.90000005112E+02 0.  0.
        -12    1    1    2    0    0  0.93822630222E+00  0.42124135608E-01  0.71481599509E+00  0.11802563043E+01  0.00000000000E+00 0.  1.
         11    1    3    3    0    0  0.22057780870E+02  0.28813356193E+02 -0.44790587073E+01  0.36562510297E+02  0.51100000000E-03 0. -1.
        -11    1    3    3    0    0  0.59208895195E-01  0.85722909490E+01 -0.27578219915E+01  0.90051796320E+01  0.51100000000E-03 0.  1.
        -12    1    3    3    0    0 -0.23055216068E+02 -0.37427771278E+02  0.65220647037E+01  0.44440053767E+02  0.00000000000E+00 0.  1.
</event>
<event>
 7    1  0.2593256E-015  0.9000775E+02  0.7816164E-02  0.1186339E+00
        -11   -1    0    0    0    0  0.00000000000E+00  0.00000000000E+00  0.45593999997E+02  0.45594000000E+02  0.51100000000E-03 0. -1.
         11   -1    0    0    0    0 -0.00000000000E+00 -0.00000000000E+00 -0.45593999997E+02  0.45594000000E+02  0.51100000000E-03 0.  1.
    9900012    2    1    2    0    0 -0.83000621216E+00 -0.69801350095E+00 -0.46569036685E+00  0.90007745503E+02  0.90000006944E+02 0.  0.
        -12    1    1    2    0    0  0.83000621216E+00  0.69801350095E+00  0.46569036685E+00  0.11802544969E+01  0.00000000000E+00 0.  1.
         11    1    3    3    0    0  0.32975174999E+01 -0.33711748210E+01  0.74414347562E+01  0.88098463566E+01  0.51100000000E-03 0. -1.
        -11    1    3    3    0    0  0.12976891708E+02 -0.30829014754E+02  0.15529661480E+02  0.36878154170E+02  0.51100000000E-03 0.  1.
         12    1    3    3    0    0 -0.17104415420E+02  0.33502176074E+02 -0.23436786603E+02  0.44319744976E+02  0.00000000000E+00 0. -1.
</event>
<event>
 7    1  0.2593256E-015  0.9000771E+02  0.7816164E-02  0.1186339E+00
        -11   -1    0    0    0    0  0.00000000000E+00  0.00000000000E+00  0.45593999997E+02  0.45594000000E+02  0.51100000000E-03 0. -1.
         11   -1    0    0    0    0 -0.00000000000E+00 -0.00000000000E+00 -0.45593999997E+02  0.45594000000E+02  0.51100000000E-03 0.  1.
    9900012    2    1    2    0    0 -0.29976473498E+00 -0.79252179515E+00  0.82166964527E+00  0.90007707368E+02  0.89999968305E+02 0.  0.
        -12    1    1    2    0    0  0.29976473498E+00  0.79252179515E+00 -0.82166964527E+00  0.11802926324E+01  0.00000000000E+00 0.  1.
         11    1    3    3    0    0 -0.38788115109E+02  0.17651024560E+02 -0.72775061237E+01  0.43232379501E+02  0.51100000000E-03 0. -1.
        -11    1    3    3    0    0  0.99688678342E+01  0.29607064404E+01  0.22654267482E+01  0.10643132393E+02  0.51100000000E-03 0.  1.
        -12    1    3    3    0    0  0.28519482539E+02 -0.21404252796E+02  0.58337490208E+01  0.36132195473E+02  0.00000000000E+00 0.  1.
</event>
<event>
 7    1  0.2593256E-015  0.9000779E+02  0.7816164E-02  0.1186339E+00
        -11   -1    0    0    0    0  0.00000000000E+00  0.00000000000E+00  0.45593999997E+02  0.45594000000E+02  0.51100000000E-03 0.  1.
         11   -1    0    0    0    0 -0.00000000000E+00 -0.00000000000E+00 -0.45593999997E+02  0.45594000000E+02  0.51100000000E-03 0. -1.
    9900012    2    1    2    0    0 -0.72953771483E+00 -0.38962708781E+00  0.84194019254E+00  0.90007789073E+02  0.90000051089E+02 0.  0.
        -12    1    1    2    0    0  0.72953771483E+00  0.38962708781E+00 -0.84194019254E+00  0.11802109272E+01  0.00000000000E+00 0.  1.
         11    1    3    3    0    0 -0.60497723954E+01  0.35367528362E+02 -0.87126815247E+01  0.36923876125E+02  0.51100000000E-03 0. -1.
        -11    1    3    3    0    0  0.47851251779E+01  0.70814757794E+01  0.52403315980E+01  0.10025257987E+02  0.51100000000E-03 0.  1.
        -12    1    3    3    0    0  0.53510950273E+00 -0.42838631230E+02  0.43142901192E+01  0.43058654961E+02  0.00000000000E+00 0.  1.
</event>
<event>
 7    1  0.2593256E-015  0.9000784E+02  0.7816164E-02  0.1186339E+00
        -11   -1    0    0    0    0  0.00000000000E+00  0.00000000000E+00  0.45593999997E+02  0.45594000000E+02  0.51100000000E-03 0.  1.
         11   -1    0    0    0    0 -0.00000000000E+00 -0.00000000000E+00 -0.45593999997E+02  0.45594000000E+02  0.51100000000E-03 0. -1.
    9900012    2    1    2    0    0  0.11113956055E+01  0.39507570272E+00 -0.38698044762E-01  0.90007837917E+02  0.90000100578E+02 0.  0.
        -12    1    1    2    0    0 -0.11113956055E+01 -0.39507570272E+00  0.38698044762E-01  0.11801620827E+01  0.00000000000E+00 0.  1.
         11    1    3    3    0    0 -0.53316380334E+01  0.66779664805E+01  0.24461046666E+01  0.88884773013E+01  0.51100000000E-03 0. -1.
        -11    1    3    3    0    0  0.23936510939E+02  0.29789133037E+02  0.93061587806E+01  0.39331330953E+02  0.51100000000E-03 0.  1.
         12    1    3    3    0    0 -0.17493477301E+02 -0.36072023815E+02 -0.11790961492E+02  0.41788029663E+02  0.00000000000E+00 0. -1.
</event>
<event>
 7    1  0.2593256E-015  0.9000769E+02  0.7816164E-02  0.1186339E+00
        -11   -1    0    0    0    0  0.00000000000E+00  0.00000000000E+00  0.45593999997E+02  0.45594000000E+02  0.51100000000E-03 0. -1.
         11   -1    0    0    0    0 -0.00000000000E+00 -0.00000000000E+00 -0.45593999997E+02  0.45594000000E+02  0.51100000000E-03 0.  1.
    9900012    2    1    2    0    0  0.81173547786E+00 -0.84123581759E+00 -0.16288642725E+00  0.90007693186E+02  0.89999953936E+02 0.  0.
        -12    1    1    2    0    0 -0.81173547786E+00  0.84123581759E+00  0.16288642725E+00  0.11803068139E+01  0.00000000000E+00 0.  1.
         11    1    3    3    0    0  0.14690663844E+01 -0.16330622928E+02  0.36852649114E+02  0.40335656041E+02  0.51100000000E-03 0. -1.
        -11    1    3    3    0    0 -0.40349869072E+00  0.10817358555E+02  0.14512550404E+01  0.10921730575E+02  0.51100000000E-03 0.  1.
        -12    1    3    3    0    0 -0.25383221583E+00  0.46720285555E+01 -0.38466790582E+02  0.38750306570E+02  0.00000000000E+00 0.  1.
</event>
<event>
 7    1  0.2593256E-015  0.9000772E+02  0.7816164E-02  0.1186339E+00
        -11   -1    0    0    0    0  0.00000000000E+00  0.00000000000E+00  0.45593999997E+02  0.45594000000E+02  0.51100000000E-03 0. -1.
         11   -1    0    0    0    0 -0.00000000000E+00 -0.00000000000E+00 -0.45593999997E+02  0.45594000000E+02  0.51100000000E-03 0.  1.
    9900012    2    1    2    0    0 -0.56963797038E-01  0.10560567079E+01  0.52399160002E+00  0.90007717050E+02  0.89999978115E+02 0.  0.
        -12    1    1    2    0    0  0.56963797038E-01 -0.10560567079E+01 -0.52399160002E+00  0.11802829497E+01  0.00000000000E+00 0.  1.
         11    1    3    3    0    0  0.57441799750E+01  0.11686595841E+02  0.25585453806E+01  0.13270956283E+02  0.51100000000E-03 0. -1.
        -11    1    3    3    0    0 -0.33032402330E+02  0.17175408961E+02 -0.56201911574E+01  0.37652633714E+02  0.51100000000E-03 0.  1.
         12    1    3    3    0    0  0.27231258558E+02 -0.27805948095E+02  0.35856373768E+01  0.39084127053E+02  0.00000000000E+00 0. -1.
</event>
<event>
 7    1  0.2593256E-015  0.9000776E+02  0.7816164E-02  0.1186339E+00
        -11   -1    0    0    0    0  0.00000000000E+00  0.00000000000E+00  0.45593999997E+02  0.45594000000E+02  0.51100000000E-03 0.  1.
         11   -1    0    0    0    0 -0.00000000000E+00 -0.00000000000E+00 -0.45593999997E+02  0.45594000000E+02  0.51100000000E-03 0. -1.
    9900012    2    1    2    0    0 -0.26465208377E+00  0.11263634355E+01 -0.23288895869E+00  0.90007757406E+02  0.90000019003E+02 0.  0.
        -12    1    1    2    0    0  0.26465208377E+00 -0.11263634355E+01  0.23288895869E+00  0.11802425943E+01  0.00000000000E+00 0.  1.
         11    1    3    3    0    0  0.66070294997E+01 -0.55029615214E+00 -0.64916177269E+01  0.92788342823E+01  0.51100000000E-03 0. -1.
        -11    1    3    3    0    0  0.25837343038E+02  0.24926210702E+02 -0.10250364859E+02  0.37335696796E+02  0.51100000000E-03 0.  1.
         12    1    3    3    0    0 -0.32709024622E+02 -0.23249551114E+02  0.16509093627E+02  0.43393226327E+02  0.00000000000E+00 0. -1.
</event>
<event>
 7    1  0.2593256E-015  0.9000778E+02  0.7816164E-02  0.1186339E+00
        -11   -1    0    0    0    0  0.00000000000E+00  0.00000000000E+00  0.45593999997E+02  0.45594000000E+02  0.51100000000E-03 0. -1.
         11   -1    0    0    0    0 -0.00000000000E+00 -0.00000000000E+00 -0.45593999997E+02  0.45594000000E+02  0.51100000000E-03 0.  1.
    9900012    2    1    2    0    0  0.10404795650E+01 -0.40552178236E+00  0.38192496826E+00  0.90007782934E+02  0.90000044869E+02 0.  0.
        -12    1    1    2    0    0 -0.10404795650E+01  0.40552178236E+00 -0.38192496826E+00  0.11802170659E+01  0.00000000000E+00 0.  1.
         11    1    3    3    0    0 -0.84320946714E+01  0.57092184859E+01  0.20717300980E+00  0.10185200891E+02  0.51100000000E-03 0. -1.
        -11    1    3    3    0    0 -0.32896309757E+02  0.15408614305E+01  0.12200464960E+02  0.35119692412E+02  0.51100000000E-03 0.  1.
         12    1    3    3    0    0  0.42368883994E+02 -0.76556016987E+01 -0.12025713002E+02  0.44702889632E+02  0.00000000000E+00 0. -1.
</event>
<event>
 7    1  0.2593256E-015  0.9000765E+02  0.7816164E-02  0.1186339E+00
        -11   -1    0    0    0    0  0.00000000000E+00  0.00000000000E+00  0.45593999997E+02  0.45594000000E+02  0.51100000000E-03 0.  1.
         11   -1    0    0    0    0 -0.00000000000E+00 -0.00000000000E+00 -0.45593999997E+02  0.45594000000E+02  0.51100000000E-03 0. -1.
    9900012    2    1    2    0    0  0.98746522783E+00 -0.42521453489E+00 -0.48715734015E+00  0.90007653758E+02  0.89999913988E+02 0.  0.
        -12    1    1    2    0    0 -0.98746522783E+00  0.42521453489E+00  0.48715734015E+00  0.11803462420E+01  0.00000000000E+00 0.  1.
         11    1    3    3    0    0 -0.89599409552E+01  0.10178037298E+02 -0.11154361522E+02  0.17558267750E+02  0.51100000000E-03 0. -1.
        -11    1    3    3    0    0 -0.24807315381E+02 -0.22907545857E+02 -0.99340609578E+00  0.33780843825E+02  0.51100000000E-03 0.  1.
         12    1    3    3    0    0  0.34754721564E+02  0.12304294024E+02  0.11660610278E+02  0.38668542182E+02  0.00000000000E+00 0. -1.
</event>
<event>
 7    1  0.2593256E-015  0.9000772E+02  0.7816164E-02  0.1186339E+00
        -11   -1    0    0    0    0  0.00000000000E+00  0.00000000000E+00  0.45593999997E+02  0.45594000000E+02  0.51100000000E-03 0.  1.
         11   -1    0    0    0    0 -0.00000000000E+00 -0.00000000000E+00 -0.45593999997E+02  0.45594000000E+02  0.51100000000E-03 0. -1.
    9900012    2    1    2    0    0 -0.25525297073E+00 -0.34096848798E+00 -0.11007484551E+01  0.90007720054E+02  0.89999981159E+02 0.  0.
        -12    1    1    2    0    0  0.25525297073E+00  0.34096848798E+00  0.11007484551E+01  0.11802799457E+01  0.00000000000E+00 0.  1.
         11    1    3    3    0    0  0.17069345898E+02  0.12071411943E+02 -0.33299259488E+02  0.39318217640E+02  0.51100000000E-03 0. -1.
        -11    1    3    3    0    0  0.92857029766E+01 -0.56932586099E+00  0.39259960137E+01  0.10097616385E+02  0.51100000000E-03 0.  1.
        -12    1    3    3    0    0 -0.26610301845E+02 -0.11843054570E+02  0.28272515019E+02  0.40591886029E+02  0.00000000000E+00 0.  1.
</event>
<event>
 7    1  0.2593256E-015  0.9000773E+02  0.7816164E-02  0.1186339E+00
        -11   -1    0    0    0    0  0.00000000000E+00  0.00000000000E+00  0.45593999997E+02  0.45594000000E+02  0.51100000000E-03 0. -1.
         11   -1    0    0    0    0 -0.00000000000E+00 -0.00000000000E+00 -0.45593999997E+02  0.45594000000E+02  0.51100000000E-03 0.  1.
    9900012    2    1    2    0    0 -0.49455755915E+00 -0.26796709274E-01  0.10713175132E+01  0.90007734582E+02  0.89999995878E+02 0.  0.
        -12    1    1    2    0    0  0.49455755915E+00  0.26796709274E-01 -0.10713175132E+01  0.11802654181E+01  0.00000000000E+00 0.  1.
         11    1    3    3    0    0  0.91907846345E+01  0.36240528925E+02 -0.17193216578E+02  0.41151587521E+02  0.51100000000E-03 0. -1.
        -11    1    3    3    0    0  0.64847607948E+01 -0.22091202091E+01  0.62845276508E+01  0.92966457779E+01  0.51100000000E-03 0.  1.
        -12    1    3    3    0    0 -0.16170102988E+02 -0.34058205425E+02  0.11980006441E+02  0.39559501283E+02  0.00000000000E+00 0.  1.
</event>
<event>
 7    1  0.2593256E-015  0.9000774E+02  0.7816164E-02  0.1186339E+00
        -11   -1    0    0    0    0  0.00000000000E+00  0.00000000000E+00  0.45593999997E+02  0.45594000000E+02  0.51100000000E-03 0.  1.
         11   -1    0    0    0    0 -0.00000000000E+00 -0.00000000000E+00 -0.45593999997E+02  0.45594000000E+02  0.51100000000E-03 0. -1.
    9900012    2    1    2    0    0  0.65369998760E+00 -0.90822421476E+00 -0.37526930542E+00  0.90007736491E+02  0.89999997813E+02 0.  0.
        -12    1    1    2    0    0 -0.65369998760E+00  0.90822421476E+00  0.37526930542E+00  0.11802635086E+01  0.00000000000E+00 0.  1.
         11    1    3    3    0    0 -0.61410709457E+01  0.16211780833E+02 -0.34838745209E+02  0.38913657732E+02  0.51100000000E-03 0. -1.
        -11    1    3    3    0    0 -0.80974312832E+00  0.89665638645E+01  0.29287518914E+01  0.94674462963E+01  0.51100000000E-03 0.  1.
        -12    1    3    3    0    0  0.76045140617E+01 -0.26086568912E+02  0.31534724012E+02  0.41626632463E+02  0.00000000000E+00 0.  1.
</event>
<event>
 7    1  0.2593256E-015  0.9000809E+02  0.7816164E-02  0.1186338E+00
        -11   -1    0    0    0    0  0.00000000000E+00  0.00000000000E+00  0.45593999997E+02  0.45594000000E+02  0.51100000000E-03 0.  1.
         11   -1    0    0    0    0 -0.00000000000E+00 -0.00000000000E+00 -0.45593999997E+02  0.45594000000E+02  0.51100000000E-03 0. -1.
    9900012    2    1    2    0    0 -0.32179097637E+00  0.66967956607E-01 -0.11332098869E+01  0.90008085263E+02  0.90000351187E+02 0.  0.
        -12    1    1    2    0    0  0.32179097637E+00 -0.66967956607E-01  0.11332098869E+01  0.11799147374E+01  0.00000000000E+00 0.  1.
         11    1    3    3    0    0 -0.30195322127E+02 -0.33744404016E+01 -0.20772659049E+02  0.36805538857E+02  0.51100000000E-03 0. -1.
        -11    1    3    3    0    0 -0.41753675564E-01 -0.14507129810E+01 -0.10415314841E+02  0.10515944799E+02  0.51100000000E-03 0.  1.
        -12    1    3    3    0    0  0.29915284826E+02  0.48921213392E+01  0.30054764003E+02  0.42686601606E+02  0.00000000000E+00 0.  1.
</event>
<event>
 7    1  0.2593256E-015  0.9000766E+02  0.7816164E-02  0.1186339E+00
        -11   -1    0    0    0    0  0.00000000000E+00  0.00000000000E+00  0.45593999997E+02  0.45594000000E+02  0.51100000000E-03 0. -1.
         11   -1    0    0    0    0 -0.00000000000E+00 -0.00000000000E+00 -0.45593999997E+02  0.45594000000E+02  0.51100000000E-03 0.  1.
    9900012    2    1    2    0    0 -0.67747930952E+00  0.59760431501E+00  0.75967362637E+00  0.90007655495E+02  0.89999915747E+02 0.  0.
        -12    1    1    2    0    0  0.67747930952E+00 -0.59760431501E+00 -0.75967362637E+00  0.11803445051E+01  0.00000000000E+00 0.  1.
         11    1    3    3    0    0 -0.16664735545E+01  0.83501532107E+01 -0.35801105487E+01  0.92368492763E+01  0.51100000000E-03 0. -1.
        -11    1    3    3    0    0  0.20637449520E+02  0.29271418595E+02 -0.87337877861E+01  0.36864607940E+02  0.51100000000E-03 0.  1.
         12    1    3    3    0    0 -0.19648455275E+02 -0.37023967490E+02  0.13073571961E+02  0.43906198278E+02  0.00000000000E+00 0. -1.
</event>
<event>
 7    1  0.2593256E-015  0.9000765E+02  0.7816164E-02  0.1186339E+00
        -11   -1    0    0    0    0  0.00000000000E+00  0.00000000000E+00  0.45593999997E+02  0.45594000000E+02  0.51100000000E-03 0. -1.
         11   -1    0    0    0    0 -0.00000000000E+00 -0.00000000000E+00 -0.45593999997E+02  0.45594000000E+02  0.51100000000E-03 0.  1.
    9900012    2    1    2    0    0  0.98987518238E+00  0.51442722994E+00  0.38566902899E+00  0.90007648844E+02  0.89999909009E+02 0.  0.
        -12    1    1    2    0    0 -0.98987518238E+00 -0.51442722994E+00 -0.38566902899E+00  0.11803511560E+01  0.00000000000E+00 0.  1.
         11    1    3    3    0    0 -0.43028356676E+01  0.21821020649E+02  0.28109406363E+02  0.35844247283E+02  0.51100000000E-03 0. -1.
        -11    1    3    3    0    0  0.70780599069E+01 -0.24148853193E+01  0.96734856916E+01  0.12227302599E+02  0.51100000000E-03 0.  1.
        -12    1    3    3    0    0 -0.17853490570E+01 -0.18891708100E+02 -0.37397223025E+02  0.41936098962E+02  0.00000000000E+00 0.  1.
</event>
<event>
 7    1  0.2593256E-015  0.9000761E+02  0.7816164E-02  0.1186339E+00
        -11   -1    0    0    0    0  0.00000000000E+00  0.00000000000E+00  0.45593999997E+02  0.45594000000E+02  0.51100000000E-03 0. -1.
         11   -1    0    0    0    0 -0.00000000000E+00 -0.00000000000E+00 -0.45593999997E+02  0.45594000000E+02  0.51100000000E-03 0.  1.
    9900012    2    1    2    0    0 -0.87899795433E+00  0.88026812451E-01 -0.78290413853E+00  0.90007608110E+02  0.89999867737E+02 0.  0.
        -12    1    1    2    0    0  0.87899795433E+00 -0.88026812451E-01  0.78290413853E+00  0.11803918898E+01  0.00000000000E+00 0.  1.
         11    1    3    3    0    0  0.14037731822E+01 -0.11450512081E+02  0.14005225945E+01  0.11620941006E+02  0.51100000000E-03 0. -1.
        -11    1    3    3    0    0 -0.30476804452E+02 -0.14357314309E+02  0.14437235617E+02  0.36652446798E+02  0.51100000000E-03 0.  1.
         12    1    3    3    0    0  0.28194033315E+02  0.25895853202E+02 -0.16620662350E+02  0.41734220307E+02  0.00000000000E+00 0. -1.
</event>
<event>
 7    1  0.2593256E-015  0.9000777E+02  0.7816164E-02  0.1186339E+00
        -11   -1    0    0    0    0  0.00000000000E+00  0.00000000000E+00  0.45593999997E+02  0.45594000000E+02  0.51100000000E-03 0. -1.
         11   -1    0    0    0    0 -0.00000000000E+00 -0.00000000000E+00 -0.45593999997E+02  0.45594000000E+02  0.51100000000E-03 0.  1.
    9900012    2    1    2    0    0  0.14513841995E+00 -0.11663502399E+01 -0.10727764442E+00  0.90007768440E+02  0.90000030183E+02 0.  0.
        -12    1    1    2    0    0 -0.14513841995E+00  0.11663502399E+01  0.10727764442E+00  0.11802315603E+01  0.00000000000E+00 0.  1.
         11    1    3    3    0    0  0.11578520728E+02  0.31176940767E+01 -0.14282438916E+02  0.18648598346E+02  0.51100000000E-03 0. -1.
        -11    1    3    3    0    0 -0.14188699600E+02  0.31628564239E+01 -0.26333576658E+02  0.30079563111E+02  0.51100000000E-03 0.  1.
         12    1    3    3    0    0  0.27553172916E+01 -0.74469007405E+01  0.40508737929E+02  0.41279606983E+02  0.00000000000E+00 0. -1.
</event>
<event>
 7    1  0.2593256E-015  0.9000773E+02  0.7816164E-02  0.1186339E+00
        -11   -1    0    0    0    0  0.00000000000E+00  0.00000000000E+00  0.45593999997E+02  0.45594000000E+02  0.51100000000E-03 0. -1.
         11   -1    0    0    0    0 -0.00000000000E+00 -0.00000000000E+00 -0.45593999997E+02  0.45594000000E+02  0.51100000000E-03 0.  1.
    9900012    2    1    2    0    0 -0.27960038020E+00  0.77867255203E-01  0.11440224683E+01  0.90007734314E+02  0.89999995607E+02 0.  0.
        -12    1    1    2    0    0  0.27960038020E+00 -0.77867255203E-01 -0.11440224683E+01  0.11802656862E+01  0.00000000000E+00 0.  1.
         11    1    3    3    0    0 -0.14278399757E+01  0.96157667700E+01 -0.29538911541E+01  0.10160077302E+02  0.51100000000E-03 0. -1.
        -11    1    3    3    0    0  0.22584148213E+02  0.21808319618E+02 -0.17720901967E+02  0.36051032188E+02  0.51100000000E-03 0.  1.
         12    1    3    3    0    0 -0.21435908617E+02 -0.31346219133E+02  0.21818815590E+02  0.43796624823E+02  0.00000000000E+00 0. -1.
</event>
<event>
 7    1  0.2593256E-015  0.9000774E+02  0.7816164E-02  0.1186339E+00
        -11   -1    0    0    0    0  0.00000000000E+00  0.00000000000E+00  0.45593999997E+02  0.45594000000E+02  0.51100000000E-03 0.  1.
         11   -1    0    0    0    0 -0.00000000000E+00 -0.00000000000E+00 -0.45593999997E+02  0.45594000000E+02  0.51100000000E-03 0. -1.
    9900012    2    1    2    0    0  0.41874194800E+00  0.84965099396E+00  0.70411161373E+00  0.90007735286E+02  0.89999996592E+02 0.  0.
        -12    1    1    2    0    0 -0.41874194800E+00 -0.84965099396E+00 -0.70411161373E+00  0.11802647140E+01  0.00000000000E+00 0.  1.
         11    1    3    3    0    0  0.86260818867E+01  0.25718184865E+01  0.24599745494E+00  0.90046684588E+01  0.51100000000E-03 0. -1.
        -11    1    3    3    0    0  0.13279301312E+02  0.31299609980E+02  0.17310547314E+02  0.38153118835E+02  0.51100000000E-03 0.  1.
         12    1    3    3    0    0 -0.21486641251E+02 -0.33021777473E+02 -0.16852433155E+02  0.42849947992E+02  0.00000000000E+00 0. -1.
</event>
<event>
 7    1  0.2593256E-015  0.9000777E+02  0.7816164E-02  0.1186339E+00
        -11   -1    0    0    0    0  0.00000000000E+00  0.00000000000E+00  0.45593999997E+02  0.45594000000E+02  0.51100000000E-03 0.  1.
         11   -1    0    0    0    0 -0.00000000000E+00 -0.00000000000E+00 -0.45593999997E+02  0.45594000000E+02  0.51100000000E-03 0. -1.
    9900012    2    1    2    0    0 -0.11670357804E+01  0.15417898239E+00 -0.84872972627E-01  0.90007768204E+02  0.90000029944E+02 0.  0.
        -12    1    1    2    0    0  0.11670357804E+01 -0.15417898239E+00  0.84872972627E-01  0.11802317962E+01  0.00000000000E+00 0.  1.
         11    1    3    3    0    0 -0.30624754037E+00  0.60079102240E+01 -0.48404543249E+01  0.77213192621E+01  0.51100000000E-03 0. -1.
        -11    1    3    3    0    0  0.28949665364E+01  0.35169470971E+02  0.17194576859E+02  0.39254630214E+02  0.51100000000E-03 0.  1.
         12    1    3    3    0    0 -0.37557547764E+01 -0.41023202213E+02 -0.12438995507E+02  0.43031818727E+02  0.00000000000E+00 0. -1.
</event>
<event>
 7    1  0.2593256E-015  0.9000777E+02  0.7816164E-02  0.1186339E+00
        -11   -1    0    0    0    0  0.00000000000E+00  0.00000000000E+00  0.45593999997E+02  0.45594000000E+02  0.51100000000E-03 0.  1.
         11   -1    0    0    0    0 -0.00000000000E+00 -0.00000000000E+00 -0.45593999997E+02  0.45594000000E+02  0.51100000000E-03 0. -1.
    9900012    2    1    2    0    0 -0.65115222480E+00  0.90822553615E+00 -0.37957243655E+00  0.90007767786E+02  0.90000029521E+02 0.  0.
        -12    1    1    2    0    0  0.65115222480E+00 -0.90822553615E+00  0.37957243655E+00  0.11802322140E+01  0.00000000000E+00 0.  1.
         11    1    3    3    0    0 -0.23547015569E+02  0.35912961771E+02 -0.57201260099E+01  0.43323464857E+02  0.51100000000E-03 0. -1.
        -11    1    3    3    0    0  0.20466635528E+01 -0.19623694725E+01  0.70271457833E+01  0.75776318046E+01  0.51100000000E-03 0.  1.
        -12    1    3    3    0    0  0.20849199791E+02 -0.33042366762E+02 -0.16865922099E+01  0.39106671125E+02  0.00000000000E+00 0.  1.
</event>
<event>
 7    1  0.2593256E-015  0.9000770E+02  0.7816164E-02  0.1186339E+00
        -11   -1    0    0    0    0  0.00000000000E+00  0.00000000000E+00  0.45593999997E+02  0.45594000000E+02  0.51100000000E-03 0.  1.
         11   -1    0    0    0    0 -0.00000000000E+00 -0.00000000000E+00 -0.45593999997E+02  0.45594000000E+02  0.51100000000E-03 0. -1.
    9900012    2    1    2    0    0  0.67898518927E+00 -0.63447967474E+00 -0.72768700539E+00  0.90007697614E+02  0.89999958422E+02 0.  0.
        -12    1    1    2    0    0 -0.67898518927E+00  0.63447967474E+00  0.72768700539E+00  0.11803023861E+01  0.00000000000E+00 0.  1.
         11    1    3    3    0    0 -0.15075744694E-01 -0.37860535275E+02  0.84349978767E+00  0.37869933334E+02  0.51100000000E-03 0. -1.
        -11    1    3    3    0    0 -0.91106641013E+01 -0.36208902108E+01 -0.25101069535E+01  0.10120063412E+02  0.51100000000E-03 0.  1.
        -12    1    3    3    0    0  0.98047250352E+01  0.40846945811E+02  0.93892016042E+00  0.42017700867E+02  0.00000000000E+00 0.  1.
</event>
<event>
 7    1  0.2593256E-015  0.9000776E+02  0.7816164E-02  0.1186339E+00
        -11   -1    0    0    0    0  0.00000000000E+00  0.00000000000E+00  0.45593999997E+02  0.45594000000E+02  0.51100000000E-03 0. -1.
         11   -1    0    0    0    0 -0.00000000000E+00 -0.00000000000E+00 -0.45593999997E+02  0.45594000000E+02  0.51100000000E-03 0.  1.
    9900012    2    1    2    0    0 -0.10644994143E+01 -0.48094268728E+00  0.16879630600E+00  0.90007763979E+02  0.90000025664E+02 0.  0.
        -12    1    1    2    0    0  0.10644994143E+01  0.48094268728E+00 -0.16879630600E+00  0.11802360206E+01  0.00000000000E+00 0.  1.
         11    1    3    3    0    0 -0.38733029132E+01  0.32525789389E+02 -0.22144356231E+02  0.39538613582E+02  0.51100000000E-03 0. -1.
        -11    1    3    3    0    0 -0.24610416343E+01  0.44252837442E+01  0.91207910104E+01  0.10432099073E+02  0.51100000000E-03 0.  1.
        -12    1    3    3    0    0  0.52698451332E+01 -0.37432015821E+02  0.13192361526E+02  0.40037051325E+02  0.00000000000E+00 0.  1.
</event>
<event>
 7    1  0.2593256E-015  0.9000785E+02  0.7816164E-02  0.1186339E+00
        -11   -1    0    0    0    0  0.00000000000E+00  0.00000000000E+00  0.45593999997E+02  0.45594000000E+02  0.51100000000E-03 0. -1.
         11   -1    0    0    0    0 -0.00000000000E+00 -0.00000000000E+00 -0.45593999997E+02  0.45594000000E+02  0.51100000000E-03 0.  1.
    9900012    2    1    2    0    0  0.19592935030E+00 -0.74539336498E-01  0.11613779263E+01  0.90007854623E+02  0.90000117504E+02 0.  0.
        -12    1    1    2    0    0 -0.19592935030E+00  0.74539336498E-01 -0.11613779263E+01  0.11801453769E+01  0.00000000000E+00 0.  1.
         11    1    3    3    0    0 -0.60548163541E+01  0.78193050594E+01  0.10806753532E+01  0.99483763587E+01  0.51100000000E-03 0. -1.
        -11    1    3    3    0    0 -0.22675519467E+02  0.96820885731E+01 -0.27108473548E+02  0.36644117681E+02  0.51100000000E-03 0.  1.
         12    1    3    3    0    0  0.28926265171E+02 -0.17575932969E+02  0.27189176121E+02  0.43415360584E+02  0.00000000000E+00 0. -1.
</event>
<event>
 7    1  0.2593256E-015  0.9000764E+02  0.7816164E-02  0.1186339E+00
        -11   -1    0    0    0    0  0.00000000000E+00  0.00000000000E+00  0.45593999997E+02  0.45594000000E+02  0.51100000000E-03 0.  1.
         11   -1    0    0    0    0 -0.00000000000E+00 -0.00000000000E+00 -0.45593999997E+02  0.45594000000E+02  0.51100000000E-03 0. -1.
    9900012    2    1    2    0    0 -0.95199528512E+00  0.41601883867E+00 -0.56026125092E+00  0.90007635918E+02  0.89999895912E+02 0.  0.
        -12    1    1    2    0    0  0.95199528512E+00 -0.41601883867E+00  0.56026125092E+00  0.11803640821E+01  0.00000000000E+00 0.  1.
         11    1    3    3    0    0 -0.19588595851E+01 -0.80440270501E+01 -0.17994507926E+01  0.84723978585E+01  0.51100000000E-03 0. -1.
        -11    1    3    3    0    0 -0.19802867296E+02 -0.15676077301E+02 -0.28405783960E+02  0.38010281705E+02  0.51100000000E-03 0.  1.
         12    1    3    3    0    0  0.20809731596E+02  0.24136123189E+02  0.29644973502E+02  0.43524956354E+02  0.00000000000E+00 0. -1.
</event>
<event>
 7    1  0.2593256E-015  0.9000777E+02  0.7816164E-02  0.1186339E+00
        -11   -1    0    0    0    0  0.00000000000E+00  0.00000000000E+00  0.45593999997E+02  0.45594000000E+02  0.51100000000E-03 0.  1.
         11   -1    0    0    0    0 -0.00000000000E+00 -0.00000000000E+00 -0.45593999997E+02  0.45594000000E+02  0.51100000000E-03 0. -1.
    9900012    2    1    2    0    0 -0.74300477064E+00 -0.30635116605E+00  0.86431752338E+00  0.90007766164E+02  0.90000027877E+02 0.  0.
        -12    1    1    2    0    0  0.74300477064E+00  0.30635116605E+00 -0.86431752338E+00  0.11802338359E+01  0.00000000000E+00 0.  1.
         11    1    3    3    0    0 -0.32813172500E+01  0.63486985594E+00 -0.94432921220E+01  0.10017278522E+02  0.51100000000E-03 0. -1.
        -11    1    3    3    0    0 -0.34374067047E+02 -0.15933190884E+02  0.13008663942E+02  0.40058312432E+02  0.51100000000E-03 0.  1.
         12    1    3    3    0    0  0.36912379526E+02  0.14991969862E+02 -0.27010542964E+01  0.39932175210E+02  0.00000000000E+00 0. -1.
</event>
<event>
 7    1  0.2593256E-015  0.9000767E+02  0.7816164E-02  0.1186339E+00
        -11   -1    0    0    0    0  0.00000000000E+00  0.00000000000E+00  0.45593999997E+02  0.45594000000E+02  0.51100000000E-03 0. -1.
         11   -1    0    0    0    0 -0.00000000000E+00 -0.00000000000E+00 -0.45593999997E+02  0.45594000000E+02  0.51100000000E-03 0.  1.
    9900012    2    1    2    0    0 -0.11626072690E+01 -0.19355726777E+00  0.63683277709E-01  0.90007671386E+02  0.89999931848E+02 0.  0.
        -12    1    1    2    0    0  0.11626072690E+01  0.19355726777E+00 -0.63683277709E-01  0.11803286143E+01  0.00000000000E+00 0.  1.
         11    1    3    3    0    0  0.24817415695E+01  0.10375050931E+02  0.19307033385E+02  0.22058156347E+02  0.51100000000E-03 0. -1.
        -11    1    3    3    0    0  0.13238447895E+02  0.18121644089E+02  0.91115277770E+01  0.24221280434E+02  0.51100000000E-03 0.  1.
         12    1    3    3    0    0 -0.16882796733E+02 -0.28690252288E+02 -0.28354877884E+02  0.43728234605E+02  0.00000000000E+00 0. -1.
</event>
<event>
 7    1  0.2593256E-015  0.9000773E+02  0.7816164E-02  0.1186339E+00
        -11   -1    0    0    0    0  0.00000000000E+00  0.00000000000E+00  0.45593999997E+02  0.45594000000E+02  0.51100000000E-03 0.  1.
         11   -1    0    0    0    0 -0.00000000000E+00 -0.00000000000E+00 -0.45593999997E+02  0.45594000000E+02  0.51100000000E-03 0. -1.
    9900012    2    1    2    0    0 -0.77857565468E+00  0.12605706220E+00 -0.87805248383E+00  0.90007726050E+02  0.89999987234E+02 0.  0.
        -12    1    1    2    0    0  0.77857565468E+00 -0.12605706220E+00  0.87805248383E+00  0.11802739501E+01  0.00000000000E+00 0.  1.
         11    1    3    3    0    0  0.25808507118E+02  0.52126581340E+01 -0.24216344243E+02  0.35772645600E+02  0.51100000000E-03 0. -1.
        -11    1    3    3    0    0  0.28419008890E+01  0.49176672796E+01 -0.81863337881E+01  0.99637298883E+01  0.51100000000E-03 0.  1.
        -12    1    3    3    0    0 -0.29428983662E+02 -0.10004268351E+02  0.31524625547E+02  0.44271350561E+02  0.00000000000E+00 0.  1.
</event>
<event>
 7    1  0.2593256E-015  0.9000831E+02  0.7816164E-02  0.1186338E+00
        -11   -1    0    0    0    0  0.00000000000E+00  0.00000000000E+00  0.45593999997E+02  0.45594000000E+02  0.51100000000E-03 0.  1.
         11   -1    0    0    0    0 -0.00000000000E+00 -0.00000000000E+00 -0.45593999997E+02  0.45594000000E+02  0.51100000000E-03 0. -1.
    9900012    2    1    2    0    0 -0.11620402687E+01 -0.19411174699E+00  0.60505912593E-01  0.90008306005E+02  0.90000574842E+02 0.  0.
        -12    1    1    2    0    0  0.11620402687E+01  0.19411174699E+00 -0.60505912593E-01  0.11796939950E+01  0.00000000000E+00 0.  1.
         11    1    3    3    0    0 -0.93029814252E+01  0.27283257360E+02 -0.22404768656E+02  0.36508838031E+02  0.51100000000E-03 0. -1.
        -11    1    3    3    0    0  0.14766651741E+02 -0.42535036080E+01 -0.57069673681E+01  0.16392552376E+02  0.51100000000E-03 0.  1.
        -12    1    3    3    0    0 -0.66257105847E+01 -0.23223865499E+02  0.28172241937E+02  0.37106915598E+02  0.00000000000E+00 0.  1.
</event>
<event>
 7    1  0.2593256E-015  0.9000773E+02  0.7816164E-02  0.1186339E+00
        -11   -1    0    0    0    0  0.00000000000E+00  0.00000000000E+00  0.45593999997E+02  0.45594000000E+02  0.51100000000E-03 0.  1.
         11   -1    0    0    0    0 -0.00000000000E+00 -0.00000000000E+00 -0.45593999997E+02  0.45594000000E+02  0.51100000000E-03 0. -1.
    9900012    2    1    2    0    0  0.48427766876E+00  0.50212364760E+00 -0.95204095711E+00  0.90007730962E+02  0.89999992211E+02 0.  0.
        -12    1    1    2    0    0 -0.48427766876E+00 -0.50212364760E+00  0.95204095711E+00  0.11802690380E+01  0.00000000000E+00 0.  1.
         11    1    3    3    0    0 -0.19308466412E+02 -0.29365216303E+02  0.89216904482E+01  0.36259196963E+02  0.51100000000E-03 0. -1.
        -11    1    3    3    0    0 -0.81163208843E+01  0.10974628665E+02 -0.14285810842E+02  0.19758581191E+02  0.51100000000E-03 0.  1.
        -12    1    3    3    0    0  0.27909064965E+02  0.18892711285E+02  0.44120794363E+01  0.33989952808E+02  0.00000000000E+00 0.  1.
</event>
<event>
 7    1  0.2593256E-015  0.9000773E+02  0.7816164E-02  0.1186339E+00
        -11   -1    0    0    0    0  0.00000000000E+00  0.00000000000E+00  0.45593999997E+02  0.45594000000E+02  0.51100000000E-03 0. -1.
         11   -1    0    0    0    0 -0.00000000000E+00 -0.00000000000E+00 -0.45593999997E+02  0.45594000000E+02  0.51100000000E-03 0.  1.
    9900012    2    1    2    0    0 -0.86262819647E+00 -0.63877802826E+00  0.49077813397E+00  0.90007733949E+02  0.89999995237E+02 0.  0.
        -12    1    1    2    0    0  0.86262819647E+00  0.63877802826E+00 -0.49077813397E+00  0.11802660512E+01  0.00000000000E+00 0.  1.
         11    1    3    3    0    0 -0.52926916292E+01 -0.13367894679E+02  0.77950299684E+01  0.16354683895E+02  0.51100000000E-03 0. -1.
        -11    1    3    3    0    0 -0.26562397340E+02  0.16123926230E+02  0.15788677158E+02  0.34854329375E+02  0.51100000000E-03 0.  1.
         12    1    3    3    0    0  0.30992460773E+02 -0.33948095791E+01 -0.23092928993E+02  0.38798720679E+02  0.00000000000E+00 0. -1.
</event>
<event>
 7    1  0.2593256E-015  0.9000770E+02  0.7816164E-02  0.1186339E+00
        -11   -1    0    0    0    0  0.00000000000E+00  0.00000000000E+00  0.45593999997E+02  0.45594000000E+02  0.51100000000E-03 0.  1.
         11   -1    0    0    0    0 -0.00000000000E+00 -0.00000000000E+00 -0.45593999997E+02  0.45594000000E+02  0.51100000000E-03 0. -1.
    9900012    2    1    2    0    0  0.49407920568E+00 -0.32202111806E+00 -0.10223943355E+01  0.90007702563E+02  0.89999963437E+02 0.  0.
        -12    1    1    2    0    0 -0.49407920568E+00  0.32202111806E+00  0.10223943355E+01  0.11802974367E+01  0.00000000000E+00 0.  1.
         11    1    3    3    0    0  0.38692464174E+02 -0.22928817546E+01  0.80289817901E+01  0.39583186322E+02  0.51100000000E-03 0. -1.
        -11    1    3    3    0    0  0.52740591817E+01  0.21401846133E+01  0.10641537355E+01  0.57903811502E+01  0.51100000000E-03 0.  1.
        -12    1    3    3    0    0 -0.43472444150E+02 -0.16932397674E+00 -0.10115529861E+02  0.44634135091E+02  0.00000000000E+00 0.  1.
</event>
<event>
 7    1  0.2593256E-015  0.9000768E+02  0.7816164E-02  0.1186339E+00
        -11   -1    0    0    0    0  0.00000000000E+00  0.00000000000E+00  0.45593999997E+02  0.45594000000E+02  0.51100000000E-03 0. -1.
         11   -1    0    0    0    0 -0.00000000000E+00 -0.00000000000E+00 -0.45593999997E+02  0.45594000000E+02  0.51100000000E-03 0.  1.
    9900012    2    1    2    0    0 -0.92719075841E+00  0.19941680019E+00  0.70263437382E+00  0.90007684438E+02  0.89999945073E+02 0.  0.
        -12    1    1    2    0    0  0.92719075841E+00 -0.19941680019E+00 -0.70263437382E+00  0.11803155620E+01  0.00000000000E+00 0.  1.
         11    1    3    3    0    0  0.39931835913E+01 -0.62751391239E+01  0.79507193611E+00  0.74803092091E+01  0.51100000000E-03 0. -1.
        -11    1    3    3    0    0  0.60709372622E+01  0.20184667409E+02 -0.36472937050E+02  0.42125434300E+02  0.51100000000E-03 0.  1.
         12    1    3    3    0    0 -0.10991311612E+02 -0.13710111485E+02  0.36380499488E+02  0.40401940929E+02  0.00000000000E+00 0. -1.
</event>
<event>
 7    1  0.2593256E-015  0.9000775E+02  0.7816164E-02  0.1186339E+00
        -11   -1    0    0    0    0  0.00000000000E+00  0.00000000000E+00  0.45593999997E+02  0.45594000000E+02  0.51100000000E-03 0. -1.
         11   -1    0    0    0    0 -0.00000000000E+00 -0.00000000000E+00 -0.45593999997E+02  0.45594000000E+02  0.51100000000E-03 0.  1.
    9900012    2    1    2    0    0  0.55555166866E+00  0.95420198761E+00  0.41695496941E+00  0.90007749799E+02  0.90000011297E+02 0.  0.
        -12    1    1    2    0    0 -0.55555166866E+00 -0.95420198761E+00 -0.41695496941E+00  0.11802502007E+01  0.00000000000E+00 0.  1.
         11    1    3    3    0    0  0.27579461203E+02 -0.25473774550E+02  0.65156450129E+00  0.37549492761E+02  0.51100000000E-03 0. -1.
        -11    1    3    3    0    0  0.16954066121E-01 -0.74334165138E+01 -0.48558565722E+01  0.88789251500E+01  0.51100000000E-03 0.  1.
        -12    1    3    3    0    0 -0.27040863600E+02  0.33861393051E+02  0.46212470403E+01  0.43579331888E+02  0.00000000000E+00 0.  1.
</event>
<event>
 7    1  0.2593256E-015  0.9000763E+02  0.7816164E-02  0.1186339E+00
        -11   -1    0    0    0    0  0.00000000000E+00  0.00000000000E+00  0.45593999997E+02  0.45594000000E+02  0.51100000000E-03 0. -1.
         11   -1    0    0    0    0 -0.00000000000E+00 -0.00000000000E+00 -0.45593999997E+02  0.45594000000E+02  0.51100000000E-03 0.  1.
    9900012    2    1    2    0    0  0.11313335024E+01 -0.33285230655E+00 -0.50671132129E-01  0.90007629840E+02  0.89999889754E+02 0.  0.
        -12    1    1    2    0    0 -0.11313335024E+01  0.33285230655E+00  0.50671132129E-01  0.11803701603E+01  0.00000000000E+00 0.  1.
         11    1    3    3    0    0 -0.18897392888E+01 -0.10502233362E+00 -0.94163770901E+01  0.96047020794E+01  0.51100000000E-03 0. -1.
        -11    1    3    3    0    0  0.84262290156E+01  0.19359335091E+02 -0.29658167091E+02  0.36405934490E+02  0.51100000000E-03 0.  1.
         12    1    3    3    0    0 -0.54051562244E+01 -0.19587165064E+02  0.39023873049E+02  0.43996993270E+02  0.00000000000E+00 0. -1.
</event>
<event>
 7    1  0.2593256E-015  0.9000779E+02  0.7816164E-02  0.1186339E+00
        -11   -1    0    0    0    0  0.00000000000E+00  0.00000000000E+00  0.45593999997E+02  0.45594000000E+02  0.51100000000E-03 0.  1.
         11   -1    0    0    0    0 -0.00000000000E+00 -0.00000000000E+00 -0.45593999997E+02  0.45594000000E+02  0.51100000000E-03 0. -1.
    9900012    2    1    2    0    0  0.20825070658E+00  0.72941003397E+00 -0.90414722356E+00  0.90007792579E+02  0.90000054641E+02 0.  0.
        -12    1    1    2    0    0 -0.20825070658E+00 -0.72941003397E+00  0.90414722356E+00  0.11802074209E+01  0.00000000000E+00 0.  1.
         11    1    3    3    0    0  0.12116321383E+02 -0.25331888381E+02 -0.26756150537E+02  0.38786613730E+02  0.51100000000E-03 0. -1.
        -11    1    3    3    0    0 -0.10246093559E+01  0.24254872071E+01 -0.80583472208E+01  0.84776041849E+01  0.51100000000E-03 0.  1.
        -12    1    3    3    0    0 -0.10883461321E+02  0.23635811208E+02  0.33910350534E+02  0.42743574665E+02  0.00000000000E+00 0.  1.
</event>
<event>
 7    1  0.2593256E-015  0.9000781E+02  0.7816164E-02  0.1186339E+00
        -11   -1    0    0    0    0  0.00000000000E+00  0.00000000000E+00  0.45593999997E+02  0.45594000000E+02  0.51100000000E-03 0.  1.
         11   -1    0    0    0    0 -0.00000000000E+00 -0.00000000000E+00 -0.45593999997E+02  0.45594000000E+02  0.51100000000E-03 0. -1.
    9900012    2    1    2    0    0 -0.10091355461E+01  0.12019003267E+00 -0.60004652801E+00  0.90007806783E+02  0.90000069032E+02 0.  0.
        -12    1    1    2    0    0  0.10091355461E+01 -0.12019003267E+00  0.60004652801E+00  0.11801932172E+01  0.00000000000E+00 0.  1.
         11    1    3    3    0    0  0.26038165871E+01  0.38570736056E+01  0.81809321684E+01  0.94119354557E+01  0.51100000000E-03 0. -1.
        -11    1    3    3    0    0 -0.10719509676E+02  0.19393360998E+02  0.28530638743E+02  0.36124890115E+02  0.51100000000E-03 0.  1.
         12    1    3    3    0    0  0.71065575430E+01 -0.23130244571E+02 -0.37311617439E+02  0.44470981212E+02  0.00000000000E+00 0. -1.
</event>
<event>
 7    1  0.3903693E-015  0.9000770E+02  0.7816164E-02  0.1186339E+00
        -11   -1    0    0    0    0  0.00000000000E+00  0.00000000000E+00  0.45593999997E+02  0.45594000000E+02  0.51100000000E-03 0. -1.
         11   -1    0    0    0    0 -0.00000000000E+00 -0.00000000000E+00 -0.45593999997E+02  0.45594000000E+02  0.51100000000E-03 0.  1.
    9900012    2    1    2    0    0 -0.16411519988E-01  0.17189875352E+00  0.11675981787E+01  0.90007701721E+02  0.89999962584E+02 0.  0.
        -12    1    1    2    0    0  0.16411519988E-01 -0.17189875352E+00 -0.11675981787E+01  0.11802982786E+01  0.00000000000E+00 0.  1.
         11    1    3    3    0    0  0.18214400098E+02 -0.31053917876E+02  0.16849898304E+02  0.39749581878E+02  0.51100000000E-03 0. -1.
        -11    1    3    3    0    0  0.75354438134E+01  0.99882300384E+00 -0.51006362255E+01  0.91540729199E+01  0.51100000000E-03 0.  1.
        -12    1    3    3    0    0 -0.25766255432E+02  0.30226993625E+02 -0.10581663900E+02  0.41104046923E+02  0.00000000000E+00 0.  1.
</event>
<event>
 7    1  0.2593256E-015  0.9000772E+02  0.7816164E-02  0.1186339E+00
        -11   -1    0    0    0    0  0.00000000000E+00  0.00000000000E+00  0.45593999997E+02  0.45594000000E+02  0.51100000000E-03 0.  1.
         11   -1    0    0    0    0 -0.00000000000E+00 -0.00000000000E+00 -0.45593999997E+02  0.45594000000E+02  0.51100000000E-03 0. -1.
    9900012    2    1    2    0    0 -0.65156349120E+00  0.86657378725E+00 -0.46644739579E+00  0.90007721099E+02  0.89999982217E+02 0.  0.
        -12    1    1    2    0    0  0.65156349120E+00 -0.86657378725E+00  0.46644739579E+00  0.11802789013E+01  0.00000000000E+00 0.  1.
         11    1    3    3    0    0 -0.33354155478E+02 -0.63197748641E+01 -0.16633385545E+02  0.37803554819E+02  0.51100000000E-03 0. -1.
        -11    1    3    3    0    0 -0.30809792915E+01  0.13015293412E+02  0.47616378658E+01  0.14197305780E+02  0.51100000000E-03 0.  1.
        -12    1    3    3    0    0  0.35783571279E+02 -0.58289447605E+01  0.11405300284E+02  0.38006860500E+02  0.00000000000E+00 0.  1.
</event>
<event>
 7    1  0.2593256E-015  0.9000760E+02  0.7816164E-02  0.1186339E+00
        -11   -1    0    0    0    0  0.00000000000E+00  0.00000000000E+00  0.45593999997E+02  0.45594000000E+02  0.51100000000E-03 0. -1.
         11   -1    0    0    0    0 -0.00000000000E+00 -0.00000000000E+00 -0.45593999997E+02  0.45594000000E+02  0.51100000000E-03 0.  1.
    9900012    2    1    2    0    0  0.26768959971E+00  0.60379159936E+00  0.97832452545E+00  0.90007601383E+02  0.89999860921E+02 0.  0.
        -12    1    1    2    0    0 -0.26768959971E+00 -0.60379159936E+00 -0.97832452545E+00  0.11803986167E+01  0.00000000000E+00 0.  1.
         11    1    3    3    0    0 -0.33479298145E+02 -0.12396164500E+02 -0.24082906267E+01  0.35781673558E+02  0.51100000000E-03 0. -1.
        -11    1    3    3    0    0 -0.51990746875E+01 -0.62184078247E+01 -0.56314886382E+01  0.98697840921E+01  0.51100000000E-03 0.  1.
        -12    1    3    3    0    0  0.38946062432E+02  0.19218363924E+02  0.90181037903E+01  0.44356143733E+02  0.00000000000E+00 0.  1.
</event>
<event>
 7    1  0.2593256E-015  0.9000770E+02  0.7816164E-02  0.1186339E+00
        -11   -1    0    0    0    0  0.00000000000E+00  0.00000000000E+00  0.45593999997E+02  0.45594000000E+02  0.51100000000E-03 0. -1.
         11   -1    0    0    0    0 -0.00000000000E+00 -0.00000000000E+00 -0.45593999997E+02  0.45594000000E+02  0.51100000000E-03 0.  1.
    9900012    2    1    2    0    0 -0.11555590276E+00  0.27506871858E+00 -0.11419667261E+01  0.90007701745E+02  0.89999962608E+02 0.  0.
        -12    1    1    2    0    0  0.11555590276E+00 -0.27506871858E+00  0.11419667261E+01  0.11802982547E+01  0.00000000000E+00 0.  1.
         11    1    3    3    0    0 -0.73277346040E+01 -0.24133948210E+02  0.32606080533E+02  0.41222562252E+02  0.51100000000E-03 0. -1.
        -11    1    3    3    0    0 -0.11982422199E+01 -0.47343910749E+01 -0.51339795032E+01  0.70857595971E+01  0.51100000000E-03 0.  1.
        -12    1    3    3    0    0  0.84104209211E+01  0.29143408004E+02 -0.28614067756E+02  0.41699379896E+02  0.00000000000E+00 0.  1.
</event>
<event>
 7    1  0.2593256E-015  0.9000775E+02  0.7816164E-02  0.1186339E+00
        -11   -1    0    0    0    0  0.00000000000E+00  0.00000000000E+00  0.45593999997E+02  0.45594000000E+02  0.51100000000E-03 0. -1.
         11   -1    0    0    0    0 -0.00000000000E+00 -0.00000000000E+00 -0.45593999997E+02  0.45594000000E+02  0.51100000000E-03 0.  1.
    9900012    2    1    2    0    0  0.63254790959E-01  0.94993972637E+00  0.69757193455E+00  0.90007748647E+02  0.90000010129E+02 0.  0.
        -12    1    1    2    0    0 -0.63254790959E-01 -0.94993972637E+00 -0.69757193455E+00  0.11802513530E+01  0.00000000000E+00 0.  1.
         11    1    3    3    0    0 -0.47364447759E+01 -0.33487315551E+01 -0.73674521661E+01  0.93769538671E+01  0.51100000000E-03 0. -1.
        -11    1    3    3    0    0  0.22715611459E+02  0.30814636683E+02 -0.15071023106E+02  0.41142150838E+02  0.51100000000E-03 0.  1.
         12    1    3    3    0    0 -0.17915911892E+02 -0.26515965401E+02  0.23136047206E+02  0.39488643942E+02  0.00000000000E+00 0. -1.
</event>
<event>
 7    1  0.2593256E-015  0.9000788E+02  0.7816164E-02  0.1186339E+00
        -11   -1    0    0    0    0  0.00000000000E+00  0.00000000000E+00  0.45593999997E+02  0.45594000000E+02  0.51100000000E-03 0.  1.
         11   -1    0    0    0    0 -0.00000000000E+00 -0.00000000000E+00 -0.45593999997E+02  0.45594000000E+02  0.51100000000E-03 0. -1.
    9900012    2    1    2    0    0  0.42153658043E+00  0.94890658253E+00 -0.56086194007E+00  0.90007880130E+02  0.90000143348E+02 0.  0.
        -12    1    1    2    0    0 -0.42153658043E+00 -0.94890658253E+00  0.56086194007E+00  0.11801198697E+01  0.00000000000E+00 0.  1.
         11    1    3    3    0    0  0.48186575537E+01 -0.69237614173E+01 -0.25392630070E+01  0.88094148310E+01  0.51100000000E-03 0. -1.
        -11    1    3    3    0    0  0.33649170807E+02 -0.11804702594E+02 -0.94028097155E+01  0.36878591759E+02  0.51100000000E-03 0.  1.
         12    1    3    3    0    0 -0.38046291780E+02  0.19677370594E+02  0.11381210782E+02  0.44319873540E+02  0.00000000000E+00 0. -1.
</event>
<event>
 7    1  0.2593256E-015  0.9000768E+02  0.7816164E-02  0.1186339E+00
        -11   -1    0    0    0    0  0.00000000000E+00  0.00000000000E+00  0.45593999997E+02  0.45594000000E+02  0.51100000000E-03 0.  1.
         11   -1    0    0    0    0 -0.00000000000E+00 -0.00000000000E+00 -0.45593999997E+02  0.45594000000E+02  0.51100000000E-03 0. -1.
    9900012    2    1    2    0    0  0.11228042733E+01  0.31984317010E+00  0.17371646586E+00  0.90007675257E+02  0.89999935770E+02 0.  0.
        -12    1    1    2    0    0 -0.11228042733E+01 -0.31984317010E+00 -0.17371646586E+00  0.11803247435E+01  0.00000000000E+00 0.  1.
         11    1    3    3    0    0  0.79293950429E+01 -0.18318985236E+02 -0.32658901929E+02  0.38276159698E+02  0.51100000000E-03 0. -1.
        -11    1    3    3    0    0  0.18048742716E+01 -0.96426799812E+01  0.45346687890E+01  0.10807500620E+02  0.51100000000E-03 0.  1.
        -12    1    3    3    0    0 -0.86114650412E+01  0.28281508387E+02  0.28297949606E+02  0.40924014938E+02  0.00000000000E+00 0.  1.
</event>
<event>
 7    1  0.2593256E-015  0.9000776E+02  0.7816164E-02  0.1186339E+00
        -11   -1    0    0    0    0  0.00000000000E+00  0.00000000000E+00  0.45593999997E+02  0.45594000000E+02  0.51100000000E-03 0.  1.
         11   -1    0    0    0    0 -0.00000000000E+00 -0.00000000000E+00 -0.45593999997E+02  0.45594000000E+02  0.51100000000E-03 0. -1.
    9900012    2    1    2    0    0  0.68081325196E+00 -0.88577810088E+00  0.38059846796E+00  0.90007760735E+02  0.90000022377E+02 0.  0.
        -12    1    1    2    0    0 -0.68081325196E+00  0.88577810088E+00 -0.38059846796E+00  0.11802392647E+01  0.00000000000E+00 0.  1.
         11    1    3    3    0    0 -0.22999122219E+01 -0.69069378427E+01 -0.17604124152E+01  0.74896220682E+01  0.51100000000E-03 0. -1.
        -11    1    3    3    0    0  0.36476289710E+02  0.19944165131E+02 -0.12484241828E+02  0.43406747495E+02  0.51100000000E-03 0.  1.
         12    1    3    3    0    0 -0.33495564236E+02 -0.13923005389E+02  0.14625252711E+02  0.39111391172E+02  0.00000000000E+00 0. -1.
</event>
<event>
 7    1  0.2593256E-015  0.9000781E+02  0.7816164E-02  0.1186339E+00
        -11   -1    0    0    0    0  0.00000000000E+00  0.00000000000E+00  0.45593999997E+02  0.45594000000E+02  0.51100000000E-03 0.  1.
         11   -1    0    0    0    0 -0.00000000000E+00 -0.00000000000E+00 -0.45593999997E+02  0.45594000000E+02  0.51100000000E-03 0. -1.
    9900012    2    1    2    0    0 -0.58821517945E+00 -0.43011567121E+00 -0.92836430844E+00  0.90007806424E+02  0.90000068669E+02 0.  0.
        -12    1    1    2    0    0  0.58821517945E+00  0.43011567121E+00  0.92836430844E+00  0.11801935761E+01  0.00000000000E+00 0.  1.
         11    1    3    3    0    0 -0.15305668085E+01  0.18853491066E+01  0.99794717202E+01  0.10270688004E+02  0.51100000000E-03 0. -1.
        -11    1    3    3    0    0  0.18463280387E+02 -0.14486230368E+02  0.27285606222E+02  0.35989552652E+02  0.51100000000E-03 0.  1.
         12    1    3    3    0    0 -0.17520928758E+02  0.12170765590E+02 -0.38193442251E+02  0.43747565767E+02  0.00000000000E+00 0. -1.
</event>
<event>
 7    1  0.2593256E-015  0.9000781E+02  0.7816164E-02  0.1186339E+00
        -11   -1    0    0    0    0  0.00000000000E+00  0.00000000000E+00  0.45593999997E+02  0.45594000000E+02  0.51100000000E-03 0.  1.
         11   -1    0    0    0    0 -0.00000000000E+00 -0.00000000000E+00 -0.45593999997E+02  0.45594000000E+02  0.51100000000E-03 0. -1.
    9900012    2    1    2    0    0 -0.34598241519E-01  0.10737810279E+01 -0.48852032388E+00  0.90007807286E+02  0.90000069543E+02 0.  0.
        -12    1    1    2    0    0  0.34598241519E-01 -0.10737810279E+01  0.48852032388E+00  0.11801927135E+01  0.00000000000E+00 0.  1.
         11    1    3    3    0    0  0.17907551545E+02  0.31200481937E+02 -0.11585476888E+02  0.37793832174E+02  0.51100000000E-03 0. -1.
        -11    1    3    3    0    0  0.85322229434E+01  0.23806342918E+01  0.47056778331E-01  0.88582426354E+01  0.51100000000E-03 0.  1.
        -12    1    3    3    0    0 -0.26474372730E+02 -0.32507335201E+02  0.11049899786E+02  0.43355732477E+02  0.00000000000E+00 0.  1.
</event>
<event>
 7    1  0.2593256E-015  0.9000768E+02  0.7816164E-02  0.1186339E+00
        -11   -1    0    0    0    0  0.00000000000E+00  0.00000000000E+00  0.45593999997E+02  0.45594000000E+02  0.51100000000E-03 0.  1.
         11   -1    0    0    0    0 -0.00000000000E+00 -0.00000000000E+00 -0.45593999997E+02  0.45594000000E+02  0.51100000000E-03 0. -1.
    9900012    2    1    2    0    0  0.14691814368E+00 -0.10341005421E+01  0.54972951700E+00  0.90007681647E+02  0.89999942245E+02 0.  0.
        -12    1    1    2    0    0 -0.14691814368E+00  0.10341005421E+01 -0.54972951700E+00  0.11803183528E+01  0.00000000000E+00 0.  1.
         11    1    3    3    0    0  0.30648890505E+02  0.11750988276E+02 -0.12953883901E+02  0.35288005370E+02  0.51100000000E-03 0. -1.
        -11    1    3    3    0    0  0.70751003124E+01  0.72641575003E+01  0.36039397719E+00  0.10146670030E+02  0.51100000000E-03 0.  1.
        -12    1    3    3    0    0 -0.37577072674E+02 -0.20049246318E+02  0.13143219440E+02  0.44573006247E+02  0.00000000000E+00 0.  1.
</event>
<event>
 7    1  0.2593256E-015  0.9000807E+02  0.7816164E-02  0.1186338E+00
        -11   -1    0    0    0    0  0.00000000000E+00  0.00000000000E+00  0.45593999997E+02  0.45594000000E+02  0.51100000000E-03 0.  1.
         11   -1    0    0    0    0 -0.00000000000E+00 -0.00000000000E+00 -0.45593999997E+02  0.45594000000E+02  0.51100000000E-03 0. -1.
    9900012    2    1    2    0    0 -0.19654529371E+00 -0.11503917669E+01  0.17377230225E+00  0.90008072848E+02  0.90000338609E+02 0.  0.
        -12    1    1    2    0    0  0.19654529371E+00  0.11503917669E+01 -0.17377230225E+00  0.11799271515E+01  0.00000000000E+00 0.  1.
         11    1    3    3    0    0 -0.10659232268E+01 -0.18192281058E+01  0.91686958179E+01  0.94080160761E+01  0.51100000000E-03 0. -1.
        -11    1    3    3    0    0  0.28855357053E+02  0.18570851141E+02  0.17114586371E+02  0.38346019476E+02  0.51100000000E-03 0.  1.
         12    1    3    3    0    0 -0.27985979120E+02 -0.17902014802E+02 -0.26109509887E+02  0.42254037296E+02  0.00000000000E+00 0. -1.
</event>
<event>
 7    1  0.2593256E-015  0.9000771E+02  0.7816164E-02  0.1186339E+00
        -11   -1    0    0    0    0  0.00000000000E+00  0.00000000000E+00  0.45593999997E+02  0.45594000000E+02  0.51100000000E-03 0.  1.
         11   -1    0    0    0    0 -0.00000000000E+00 -0.00000000000E+00 -0.45593999997E+02  0.45594000000E+02  0.51100000000E-03 0. -1.
    9900012    2    1    2    0    0 -0.14209058740E+00  0.10016874877E+01 -0.60787671329E+00  0.90007711198E+02  0.89999972186E+02 0.  0.
        -12    1    1    2    0    0  0.14209058740E+00 -0.10016874877E+01  0.60787671329E+00  0.11802888022E+01  0.00000000000E+00 0.  1.
         11    1    3    3    0    0  0.36824614744E+02 -0.19164556689E+00 -0.12020145692E+02  0.38737228628E+02  0.51100000000E-03 0. -1.
        -11    1    3    3    0    0  0.35681042750E+01 -0.64243438278E+01  0.63583124173E+01  0.97175973776E+01  0.51100000000E-03 0.  1.
        -12    1    3    3    0    0 -0.40534809606E+02  0.76176768824E+01  0.50539565617E+01  0.41552885192E+02  0.00000000000E+00 0.  1.
</event>
<event>
 7    1  0.2593256E-015  0.9000796E+02  0.7816164E-02  0.1186339E+00
        -11   -1    0    0    0    0  0.00000000000E+00  0.00000000000E+00  0.45593999997E+02  0.45594000000E+02  0.51100000000E-03 0.  1.
         11   -1    0    0    0    0 -0.00000000000E+00 -0.00000000000E+00 -0.45593999997E+02  0.45594000000E+02  0.51100000000E-03 0. -1.
    9900012    2    1    2    0    0  0.51572011695E+00  0.56860962989E+00 -0.89621936793E+00  0.90007960464E+02  0.90000224742E+02 0.  0.
        -12    1    1    2    0    0 -0.51572011695E+00 -0.56860962989E+00  0.89621936793E+00  0.11800395356E+01  0.00000000000E+00 0.  1.
         11    1    3    3    0    0  0.31931520475E+01  0.95816020884E+01 -0.12159942583E+01  0.10172608361E+02  0.51100000000E-03 0. -1.
        -11    1    3    3    0    0  0.12123990683E+02  0.29343327738E+02  0.16344695215E+02  0.35709537869E+02  0.51100000000E-03 0.  1.
         12    1    3    3    0    0 -0.14801422614E+02 -0.38356320197E+02 -0.16024920325E+02  0.44125814234E+02  0.00000000000E+00 0. -1.
</event>
<event>
 7    1  0.2593256E-015  0.9000771E+02  0.7816164E-02  0.1186339E+00
        -11   -1    0    0    0    0  0.00000000000E+00  0.00000000000E+00  0.45593999997E+02  0.45594000000E+02  0.51100000000E-03 0.  1.
         11   -1    0    0    0    0 -0.00000000000E+00 -0.00000000000E+00 -0.45593999997E+02  0.45594000000E+02  0.51100000000E-03 0. -1.
    9900012    2    1    2    0    0  0.11547477396E+01  0.18634181687E+00 -0.15787522028E+00  0.90007707579E+02  0.89999968519E+02 0.  0.
        -12    1    1    2    0    0 -0.11547477396E+01 -0.18634181687E+00  0.15787522028E+00  0.11802924214E+01  0.00000000000E+00 0.  1.
         11    1    3    3    0    0  0.21229140758E+01 -0.11271267060E+01 -0.10277397838E+02  0.10554718631E+02  0.51100000000E-03 0. -1.
        -11    1    3    3    0    0  0.34209360557E+02  0.63623678852E+01 -0.12900794914E+02  0.37110518515E+02  0.51100000000E-03 0.  1.
         12    1    3    3    0    0 -0.35177526893E+02 -0.50488993624E+01  0.23020317532E+02  0.42342470433E+02  0.00000000000E+00 0. -1.
</event>
<event>
 7    1  0.2593256E-015  0.9000775E+02  0.7816164E-02  0.1186339E+00
        -11   -1    0    0    0    0  0.00000000000E+00  0.00000000000E+00  0.45593999997E+02  0.45594000000E+02  0.51100000000E-03 0. -1.
         11   -1    0    0    0    0 -0.00000000000E+00 -0.00000000000E+00 -0.45593999997E+02  0.45594000000E+02  0.51100000000E-03 0.  1.
    9900012    2    1    2    0    0 -0.46884851238E+00  0.10712634545E+01  0.15988553900E+00  0.90007751000E+02  0.90000012513E+02 0.  0.
        -12    1    1    2    0    0  0.46884851238E+00 -0.10712634545E+01 -0.15988553900E+00  0.11802490000E+01  0.00000000000E+00 0.  1.
         11    1    3    3    0    0 -0.14981520169E+02 -0.30715615778E+02  0.14795825972E+02  0.37239917637E+02  0.51100000000E-03 0. -1.
        -11    1    3    3    0    0 -0.15909246413E+01 -0.77603941781E+01 -0.33520070491E+01  0.86017853107E+01  0.51100000000E-03 0.  1.
        -12    1    3    3    0    0  0.16103596297E+02  0.39547273410E+02 -0.11283933384E+02  0.44166048052E+02  0.00000000000E+00 0.  1.
</event>
<event>
 7    1  0.2593256E-015  0.9000777E+02  0.7816164E-02  0.1186339E+00
        -11   -1    0    0    0    0  0.00000000000E+00  0.00000000000E+00  0.45593999997E+02  0.45594000000E+02  0.51100000000E-03 0.  1.
         11   -1    0    0    0    0 -0.00000000000E+00 -0.00000000000E+00 -0.45593999997E+02  0.45594000000E+02  0.51100000000E-03 0. -1.
    9900012    2    1    2    0    0  0.13521015023E-01  0.49432124461E+00 -0.10716350523E+01  0.90007772058E+02  0.90000033849E+02 0.  0.
        -12    1    1    2    0    0 -0.13521015023E-01 -0.49432124461E+00  0.10716350523E+01  0.11802279424E+01  0.00000000000E+00 0.  1.
         11    1    3    3    0    0 -0.11974936360E+02  0.29010921274E+02  0.77932281919E+01  0.32338321847E+02  0.51100000000E-03 0. -1.
        -11    1    3    3    0    0 -0.99393436006E+01  0.90645905405E+01 -0.14244470777E+01  0.13527246675E+02  0.51100000000E-03 0.  1.
        -12    1    3    3    0    0  0.21927800975E+02 -0.37581190569E+02 -0.74404161665E+01  0.44142203535E+02  0.00000000000E+00 0.  1.
</event>
<event>
 7    1  0.2593256E-015  0.9000775E+02  0.7816164E-02  0.1186339E+00
        -11   -1    0    0    0    0  0.00000000000E+00  0.00000000000E+00  0.45593999997E+02  0.45594000000E+02  0.51100000000E-03 0. -1.
         11   -1    0    0    0    0 -0.00000000000E+00 -0.00000000000E+00 -0.45593999997E+02  0.45594000000E+02  0.51100000000E-03 0.  1.
    9900012    2    1    2    0    0 -0.37160625105E+00  0.56379710089E+00  0.96800428807E+00  0.90007749739E+02  0.90000011236E+02 0.  0.
        -12    1    1    2    0    0  0.37160625105E+00 -0.56379710089E+00 -0.96800428807E+00  0.11802502610E+01  0.00000000000E+00 0.  1.
         11    1    3    3    0    0  0.32373050824E+02  0.12342901159E+02  0.12606419528E+02  0.36868461349E+02  0.51100000000E-03 0. -1.
        -11    1    3    3    0    0 -0.42543208227E+01  0.22184867322E+01  0.12416490363E+02  0.13311279512E+02  0.51100000000E-03 0.  1.
        -12    1    3    3    0    0 -0.28490336252E+02 -0.13997590791E+02 -0.24054905602E+02  0.39828008879E+02  0.00000000000E+00 0.  1.
</event>
<event>
 7    1  0.2593256E-015  0.9000773E+02  0.7816164E-02  0.1186339E+00
        -11   -1    0    0    0    0  0.00000000000E+00  0.00000000000E+00  0.45593999997E+02  0.45594000000E+02  0.51100000000E-03 0.  1.
         11   -1    0    0    0    0 -0.00000000000E+00 -0.00000000000E+00 -0.45593999997E+02  0.45594000000E+02  0.51100000000E-03 0. -1.
    9900012    2    1    2    0    0  0.15900256076E+00 -0.11639484846E+01  0.11394984993E+00  0.90007727804E+02  0.89999989011E+02 0.  0.
        -12    1    1    2    0    0 -0.15900256076E+00  0.11639484846E+01 -0.11394984993E+00  0.11802721963E+01  0.00000000000E+00 0.  1.
         11    1    3    3    0    0 -0.57164112646E+01 -0.32987638360E+02 -0.29788936808E+02  0.44813417620E+02  0.51100000000E-03 0. -1.
        -11    1    3    3    0    0 -0.88918602839E+00  0.11647008170E+02  0.58005593668E+01  0.13041853408E+02  0.51100000000E-03 0.  1.
        -12    1    3    3    0    0  0.67645998538E+01  0.20176681706E+02  0.24102327291E+02  0.32152456776E+02  0.00000000000E+00 0.  1.
</event>
<event>
 7    1  0.2593256E-015  0.9000772E+02  0.7816164E-02  0.1186339E+00
        -11   -1    0    0    0    0  0.00000000000E+00  0.00000000000E+00  0.45593999997E+02  0.45594000000E+02  0.51100000000E-03 0.  1.
         11   -1    0    0    0    0 -0.00000000000E+00 -0.00000000000E+00 -0.45593999997E+02  0.45594000000E+02  0.51100000000E-03 0. -1.
    9900012    2    1    2    0    0  0.46952290447E+00 -0.90930058460E+00 -0.58802310324E+00  0.90007724405E+02  0.89999985567E+02 0.  0.
        -12    1    1    2    0    0 -0.46952290447E+00  0.90930058460E+00  0.58802310324E+00  0.11802755953E+01  0.00000000000E+00 0.  1.
         11    1    3    3    0    0 -0.23597753651E+02  0.21375105922E+01 -0.28304424035E+02  0.36912915749E+02  0.51100000000E-03 0. -1.
        -11    1    3    3    0    0 -0.70843669145E+01  0.88697066957E-01 -0.43214225163E+01  0.82988441710E+01  0.51100000000E-03 0.  1.
        -12    1    3    3    0    0  0.31151643470E+02 -0.31355082438E+01  0.32037823448E+02  0.44795964485E+02  0.00000000000E+00 0.  1.
</event>
<event>
 7    1  0.2593256E-015  0.9000780E+02  0.7816164E-02  0.1186339E+00
        -11   -1    0    0    0    0  0.00000000000E+00  0.00000000000E+00  0.45593999997E+02  0.45594000000E+02  0.51100000000E-03 0.  1.
         11   -1    0    0    0    0 -0.00000000000E+00 -0.00000000000E+00 -0.45593999997E+02  0.45594000000E+02  0.51100000000E-03 0. -1.
    9900012    2    1    2    0    0  0.14618528219E+00 -0.20478770937E+00 -0.11530631002E+01  0.90007803976E+02  0.90000066188E+02 0.  0.
        -12    1    1    2    0    0 -0.14618528219E+00  0.20478770937E+00  0.11530631002E+01  0.11801960242E+01  0.00000000000E+00 0.  1.
         11    1    3    3    0    0 -0.23869669367E+02 -0.22788809293E+02 -0.20781406714E+02  0.38999459098E+02  0.51100000000E-03 0. -1.
        -11    1    3    3    0    0 -0.30857152442E+01  0.38402859385E+01 -0.70569338965E+01  0.86063785031E+01  0.51100000000E-03 0.  1.
        -12    1    3    3    0    0  0.27101569893E+02  0.18743735645E+02  0.26685277510E+02  0.42401966374E+02  0.00000000000E+00 0.  1.
</event>
<event>
 7    1  0.2593256E-015  0.9000770E+02  0.7816164E-02  0.1186339E+00
        -11   -1    0    0    0    0  0.00000000000E+00  0.00000000000E+00  0.45593999997E+02  0.45594000000E+02  0.51100000000E-03 0. -1.
         11   -1    0    0    0    0 -0.00000000000E+00 -0.00000000000E+00 -0.45593999997E+02  0.45594000000E+02  0.51100000000E-03 0.  1.
    9900012    2    1    2    0    0 -0.10327317199E+01 -0.55190761812E+00  0.14823003473E+00  0.90007699628E+02  0.89999960463E+02 0.  0.
        -12    1    1    2    0    0  0.10327317199E+01  0.55190761812E+00 -0.14823003473E+00  0.11803003717E+01  0.00000000000E+00 0.  1.
         11    1    3    3    0    0 -0.10484161958E+02 -0.10064279203E+02  0.20632330272E+01  0.14678702212E+02  0.51100000000E-03 0. -1.
        -11    1    3    3    0    0 -0.43667649469E+01  0.10779606863E+02 -0.36370205899E+02  0.38184557580E+02  0.51100000000E-03 0.  1.
         12    1    3    3    0    0  0.13818195185E+02 -0.12672352779E+01  0.34455202906E+02  0.37144439836E+02  0.00000000000E+00 0. -1.
</event>
<event>
 7    1  0.3646951E-015  0.9000772E+02  0.7816164E-02  0.1186339E+00
        -11   -1    0    0    0    0  0.00000000000E+00  0.00000000000E+00  0.45593999997E+02  0.45594000000E+02  0.51100000000E-03 0. -1.
         11   -1    0    0    0    0 -0.00000000000E+00 -0.00000000000E+00 -0.45593999997E+02  0.45594000000E+02  0.51100000000E-03 0.  1.
    9900012    2    1    2    0    0 -0.11704390148E+01  0.11115679889E+00 -0.10384065464E+00  0.90007717744E+02  0.89999978819E+02 0.  0.
        -12    1    1    2    0    0  0.11704390148E+01 -0.11115679889E+00  0.10384065464E+00  0.11802822556E+01  0.00000000000E+00 0.  1.
         11    1    3    3    0    0  0.25605784887E+02 -0.27605069031E+02  0.94695206403E+01  0.38824835831E+02  0.51100000000E-03 0. -1.
        -11    1    3    3    0    0 -0.53746762042E+01 -0.23023307175E+01  0.83473861662E+01  0.10191502691E+02  0.51100000000E-03 0.  1.
        -12    1    3    3    0    0 -0.21401547698E+02  0.30018556547E+02 -0.17920747461E+02  0.40991379223E+02  0.00000000000E+00 0.  1.
</event>
<event>
 7    1  0.2593256E-015  0.9000765E+02  0.7816164E-02  0.1186339E+00
        -11   -1    0    0    0    0  0.00000000000E+00  0.00000000000E+00  0.45593999997E+02  0.45594000000E+02  0.51100000000E-03 0.  1.
         11   -1    0    0    0    0 -0.00000000000E+00 -0.00000000000E+00 -0.45593999997E+02  0.45594000000E+02  0.51100000000E-03 0. -1.
    9900012    2    1    2    0    0  0.11855409897E+00  0.92032779022E+00 -0.72949948352E+00  0.90007649284E+02  0.89999909455E+02 0.  0.
        -12    1    1    2    0    0 -0.11855409897E+00 -0.92032779022E+00  0.72949948352E+00  0.11803507158E+01  0.00000000000E+00 0.  1.
         11    1    3    3    0    0  0.35714334932E-01 -0.69137201398E+01  0.74135788579E+01  0.10137157068E+02  0.51100000000E-03 0. -1.
        -11    1    3    3    0    0 -0.25578378490E+01  0.25578122628E+02  0.28920645737E+02  0.38693496117E+02  0.51100000000E-03 0.  1.
         12    1    3    3    0    0  0.26406776130E+01 -0.17744074698E+02 -0.37063724078E+02  0.41176996099E+02  0.00000000000E+00 0. -1.
</event>
<event>
 7    1  0.2593256E-015  0.9000771E+02  0.7816164E-02  0.1186339E+00
        -11   -1    0    0    0    0  0.00000000000E+00  0.00000000000E+00  0.45593999997E+02  0.45594000000E+02  0.51100000000E-03 0. -1.
         11   -1    0    0    0    0 -0.00000000000E+00 -0.00000000000E+00 -0.45593999997E+02  0.45594000000E+02  0.51100000000E-03 0.  1.
    9900012    2    1    2    0    0  0.64166953197E+00  0.11432243147E+00  0.98401278552E+00  0.90007707422E+02  0.89999968360E+02 0.  0.
        -12    1    1    2    0    0 -0.64166953197E+00 -0.11432243147E+00 -0.98401278552E+00  0.11802925776E+01  0.00000000000E+00 0.  1.
         11    1    3    3    0    0 -0.84801979348E+01 -0.12686167021E+01  0.57412860463E+01  0.10319181706E+02  0.51100000000E-03 0. -1.
        -11    1    3    3    0    0 -0.20482686514E+02 -0.29745015653E+02  0.21488706237E+01  0.36179055381E+02  0.51100000000E-03 0.  1.
         12    1    3    3    0    0  0.29604553981E+02  0.31127954786E+02 -0.69061438845E+01  0.43509470336E+02  0.00000000000E+00 0. -1.
</event>
<event>
 7    1  0.2593256E-015  0.9000776E+02  0.7816164E-02  0.1186339E+00
        -11   -1    0    0    0    0  0.00000000000E+00  0.00000000000E+00  0.45593999997E+02  0.45594000000E+02  0.51100000000E-03 0.  1.
         11   -1    0    0    0    0 -0.00000000000E+00 -0.00000000000E+00 -0.45593999997E+02  0.45594000000E+02  0.51100000000E-03 0. -1.
    9900012    2    1    2    0    0  0.93097406941E+00 -0.17429057349E+00 -0.70419110358E+00  0.90007756367E+02  0.90000017951E+02 0.  0.
        -12    1    1    2    0    0 -0.93097406941E+00  0.17429057349E+00  0.70419110358E+00  0.11802436326E+01  0.00000000000E+00 0.  1.
         11    1    3    3    0    0 -0.30958881103E+02  0.17534902302E+02 -0.10844732076E+02  0.37195877889E+02  0.51100000000E-03 0. -1.
        -11    1    3    3    0    0 -0.76360770571E+01  0.71251445718E+00  0.43612464813E+01  0.88225744998E+01  0.51100000000E-03 0.  1.
        -12    1    3    3    0    0  0.39525932229E+02 -0.18421707333E+02  0.57792944912E+01  0.43989303978E+02  0.00000000000E+00 0.  1.
</event>
<event>
 7    1  0.2593256E-015  0.9000778E+02  0.7816164E-02  0.1186339E+00
        -11   -1    0    0    0    0  0.00000000000E+00  0.00000000000E+00  0.45593999997E+02  0.45594000000E+02  0.51100000000E-03 0.  1.
         11   -1    0    0    0    0 -0.00000000000E+00 -0.00000000000E+00 -0.45593999997E+02  0.45594000000E+02  0.51100000000E-03 0. -1.
    9900012    2    1    2    0    0 -0.52959762953E+00 -0.89559405889E+00 -0.55710098862E+00  0.90007778038E+02  0.90000039908E+02 0.  0.
        -12    1    1    2    0    0  0.52959762953E+00  0.89559405889E+00  0.55710098862E+00  0.11802219618E+01  0.00000000000E+00 0.  1.
         11    1    3    3    0    0  0.78017266000E+01  0.35847197309E+00  0.76040484388E+01  0.10900320776E+02  0.51100000000E-03 0. -1.
        -11    1    3    3    0    0  0.11310558936E+02  0.21753370659E+02 -0.32197181161E+02  0.40469696731E+02  0.51100000000E-03 0.  1.
         12    1    3    3    0    0 -0.19641883166E+02 -0.23007436691E+02  0.24036031734E+02  0.38637760532E+02  0.00000000000E+00 0. -1.
</event>
<event>
 7    1  0.2593256E-015  0.9000776E+02  0.7816164E-02  0.1186339E+00
        -11   -1    0    0    0    0  0.00000000000E+00  0.00000000000E+00  0.45593999997E+02  0.45594000000E+02  0.51100000000E-03 0.  1.
         11   -1    0    0    0    0 -0.00000000000E+00 -0.00000000000E+00 -0.45593999997E+02  0.45594000000E+02  0.51100000000E-03 0. -1.
    9900012    2    1    2    0    0  0.26211894776E+00  0.31037876196E+00 -0.11081161289E+01  0.90007761603E+02  0.90000023256E+02 0.  0.
        -12    1    1    2    0    0 -0.26211894776E+00 -0.31037876196E+00  0.11081161289E+01  0.11802383970E+01  0.00000000000E+00 0.  1.
         11    1    3    3    0    0  0.33423287358E+02 -0.24483966084E+02 -0.10390071087E+02  0.42714567895E+02  0.51100000000E-03 0. -1.
        -11    1    3    3    0    0 -0.37184086166E+01  0.86030465705E+01 -0.51840333897E+01  0.10710423679E+02  0.51100000000E-03 0.  1.
        -12    1    3    3    0    0 -0.29442759793E+02  0.16191298276E+02  0.14465988348E+02  0.36582770029E+02  0.00000000000E+00 0.  1.
</event>
<event>
 7    1  0.2593256E-015  0.9000771E+02  0.7816164E-02  0.1186339E+00
        -11   -1    0    0    0    0  0.00000000000E+00  0.00000000000E+00  0.45593999997E+02  0.45594000000E+02  0.51100000000E-03 0.  1.
         11   -1    0    0    0    0 -0.00000000000E+00 -0.00000000000E+00 -0.45593999997E+02  0.45594000000E+02  0.51100000000E-03 0. -1.
    9900012    2    1    2    0    0 -0.11709872469E+01 -0.89397838606E-01 -0.11782348346E+00  0.90007709578E+02  0.89999970545E+02 0.  0.
        -12    1    1    2    0    0  0.11709872469E+01  0.89397838606E-01  0.11782348346E+00  0.11802904215E+01  0.00000000000E+00 0.  1.
         11    1    3    3    0    0  0.11623508733E+00 -0.28172477774E+02 -0.24121126509E+02  0.37088148495E+02  0.51100000000E-03 0. -1.
        -11    1    3    3    0    0 -0.22101094486E+00 -0.94538728805E+01  0.31584796238E+01  0.99699825513E+01  0.51100000000E-03 0.  1.
        -12    1    3    3    0    0 -0.10662113894E+01  0.37536952815E+02  0.20844823402E+02  0.42949578532E+02  0.00000000000E+00 0.  1.
</event>
<event>
 7    1  0.2593256E-015  0.9000771E+02  0.7816164E-02  0.1186339E+00
        -11   -1    0    0    0    0  0.00000000000E+00  0.00000000000E+00  0.45593999997E+02  0.45594000000E+02  0.51100000000E-03 0.  1.
         11   -1    0    0    0    0 -0.00000000000E+00 -0.00000000000E+00 -0.45593999997E+02  0.45594000000E+02  0.51100000000E-03 0. -1.
    9900012    2    1    2    0    0 -0.37226361867E+00  0.10596403818E+01 -0.36286810551E+00  0.90007707154E+02  0.89999968088E+02 0.  0.
        -12    1    1    2    0    0  0.37226361867E+00 -0.10596403818E+01  0.36286810551E+00  0.11802928461E+01  0.00000000000E+00 0.  1.
         11    1    3    3    0    0 -0.90535524656E+01  0.19063587223E+02 -0.40140546579E+01  0.21482546523E+02  0.51100000000E-03 0. -1.
        -11    1    3    3    0    0 -0.17679838607E+02  0.16939629624E+02  0.36339256359E+01  0.24753447452E+02  0.51100000000E-03 0.  1.
         12    1    3    3    0    0  0.26361127454E+02 -0.34943576464E+02  0.17260916480E-01  0.43771713180E+02  0.00000000000E+00 0. -1.
</event>
<event>
 7    1  0.2593256E-015  0.9000691E+02  0.7816164E-02  0.1186341E+00
        -11   -1    0    0    0    0  0.00000000000E+00  0.00000000000E+00  0.45593999997E+02  0.45594000000E+02  0.51100000000E-03 0.  1.
         11   -1    0    0    0    0 -0.00000000000E+00 -0.00000000000E+00 -0.45593999997E+02  0.45594000000E+02  0.51100000000E-03 0. -1.
    9900012    2    1    2    0    0  0.11747253010E+01 -0.10183589024E+00  0.67991521798E-01  0.90006910279E+02  0.89999160691E+02 0.  0.
        -12    1    1    2    0    0 -0.11747253010E+01  0.10183589024E+00 -0.67991521798E-01  0.11810897207E+01  0.00000000000E+00 0.  1.
         11    1    3    3    0    0 -0.12877871721E+02  0.26731373667E+00  0.12704937458E+01  0.12943152294E+02  0.51100000000E-03 0. -1.
        -11    1    3    3    0    0  0.88994413824E+01  0.29476360444E+02  0.22886818380E+02  0.38364858110E+02  0.51100000000E-03 0.  1.
         12    1    3    3    0    0  0.51531556392E+01 -0.29845510071E+02 -0.24089320604E+02  0.38698899876E+02  0.00000000000E+00 0. -1.
</event>
<event>
 7    1  0.2593256E-015  0.9000774E+02  0.7816164E-02  0.1186339E+00
        -11   -1    0    0    0    0  0.00000000000E+00  0.00000000000E+00  0.45593999997E+02  0.45594000000E+02  0.51100000000E-03 0. -1.
         11   -1    0    0    0    0 -0.00000000000E+00 -0.00000000000E+00 -0.45593999997E+02  0.45594000000E+02  0.51100000000E-03 0.  1.
    9900012    2    1    2    0    0  0.99464507915E+00  0.42817423556E+00 -0.46941745393E+00  0.90007743775E+02  0.90000005193E+02 0.  0.
        -12    1    1    2    0    0 -0.99464507915E+00 -0.42817423556E+00  0.46941745393E+00  0.11802562245E+01  0.00000000000E+00 0.  1.
         11    1    3    3    0    0  0.29831636329E+02  0.14602665255E+02 -0.17146890345E+02  0.37378873811E+02  0.51100000000E-03 0. -1.
        -11    1    3    3    0    0  0.69668759124E+01  0.56674151258E+01  0.28554820580E+01  0.94239446216E+01  0.51100000000E-03 0.  1.
        -12    1    3    3    0    0 -0.35803867162E+02 -0.19841906146E+02  0.13821990833E+02  0.43204925343E+02  0.00000000000E+00 0.  1.
</event>
<event>
 7    1  0.2593256E-015  0.9000778E+02  0.7816164E-02  0.1186339E+00
        -11   -1    0    0    0    0  0.00000000000E+00  0.00000000000E+00  0.45593999997E+02  0.45594000000E+02  0.51100000000E-03 0. -1.
         11   -1    0    0    0    0 -0.00000000000E+00 -0.00000000000E+00 -0.45593999997E+02  0.45594000000E+02  0.51100000000E-03 0.  1.
    9900012    2    1    2    0    0  0.69770388996E+00 -0.94613032537E+00  0.10474679859E+00  0.90007777478E+02  0.90000039340E+02 0.  0.
        -12    1    1    2    0    0 -0.69770388996E+00  0.94613032537E+00 -0.10474679859E+00  0.11802225224E+01  0.00000000000E+00 0.  1.
         11    1    3    3    0    0  0.16874541814E+02 -0.31968125402E+01  0.35685588910E+02  0.39603421922E+02  0.51100000000E-03 0. -1.
        -11    1    3    3    0    0 -0.67538043047E+01  0.91472811512E+00  0.51715201046E+01  0.85554205370E+01  0.51100000000E-03 0.  1.
        -12    1    3    3    0    0 -0.94230336191E+01  0.13359540997E+01 -0.40752362216E+02  0.41848935018E+02  0.00000000000E+00 0.  1.
</event>
<event>
 7    1  0.2593256E-015  0.9000784E+02  0.7816164E-02  0.1186339E+00
        -11   -1    0    0    0    0  0.00000000000E+00  0.00000000000E+00  0.45593999997E+02  0.45594000000E+02  0.51100000000E-03 0. -1.
         11   -1    0    0    0    0 -0.00000000000E+00 -0.00000000000E+00 -0.45593999997E+02  0.45594000000E+02  0.51100000000E-03 0.  1.
    9900012    2    1    2    0    0 -0.78646960092E+00  0.40969157422E+00  0.77871836807E+00  0.90007837335E+02  0.90000099988E+02 0.  0.
        -12    1    1    2    0    0  0.78646960092E+00 -0.40969157422E+00 -0.77871836807E+00  0.11801626650E+01  0.00000000000E+00 0.  1.
         11    1    3    3    0    0  0.35343671842E+00  0.90447340641E+01  0.21631030228E+00  0.90542212372E+01  0.51100000000E-03 0. -1.
        -11    1    3    3    0    0 -0.15287412711E+02  0.20108278170E+02 -0.28229220311E+02  0.37880558576E+02  0.51100000000E-03 0.  1.
         12    1    3    3    0    0  0.14147506392E+02 -0.28743320660E+02  0.28791628377E+02  0.43073057522E+02  0.00000000000E+00 0. -1.
</event>
<event>
 7    1  0.2593256E-015  0.9000772E+02  0.7816164E-02  0.1186339E+00
        -11   -1    0    0    0    0  0.00000000000E+00  0.00000000000E+00  0.45593999997E+02  0.45594000000E+02  0.51100000000E-03 0.  1.
         11   -1    0    0    0    0 -0.00000000000E+00 -0.00000000000E+00 -0.45593999997E+02  0.45594000000E+02  0.51100000000E-03 0. -1.
    9900012    2    1    2    0    0 -0.39321474636E+00  0.95499917210E+00 -0.57133544897E+00  0.90007718063E+02  0.89999979141E+02 0.  0.
        -12    1    1    2    0    0  0.39321474636E+00 -0.95499917210E+00  0.57133544897E+00  0.11802819370E+01  0.00000000000E+00 0.  1.
         11    1    3    3    0    0  0.83802490121E+01 -0.63790702775E+00 -0.31827958297E+01  0.89869732633E+01  0.51100000000E-03 0. -1.
        -11    1    3    3    0    0  0.15557933741E+02  0.22484960576E+02 -0.26229618309E+02  0.37889518753E+02  0.51100000000E-03 0.  1.
         12    1    3    3    0    0 -0.24331397500E+02 -0.20892054376E+02  0.28841078690E+02  0.43131226047E+02  0.00000000000E+00 0. -1.
</event>
<event>
 7    1  0.3226447E-015  0.9000784E+02  0.7816164E-02  0.1186339E+00
        -11   -1    0    0    0    0  0.00000000000E+00  0.00000000000E+00  0.45593999997E+02  0.45594000000E+02  0.51100000000E-03 0.  1.
         11   -1    0    0    0    0 -0.00000000000E+00 -0.00000000000E+00 -0.45593999997E+02  0.45594000000E+02  0.51100000000E-03 0. -1.
    9900012    2    1    2    0    0  0.95143968128E+00 -0.48502008465E-02 -0.69822629193E+00  0.90007838593E+02  0.90000101262E+02 0.  0.
        -12    1    1    2    0    0 -0.95143968128E+00  0.48502008465E-02  0.69822629193E+00  0.11801614069E+01  0.00000000000E+00 0.  1.
         11    1    3    3    0    0  0.55638783147E+01  0.14816230059E+02 -0.32924222180E+02  0.36530560103E+02  0.51100000000E-03 0. -1.
        -11    1    3    3    0    0  0.61122572538E+01  0.44811839769E+01 -0.57736655453E+01  0.95276394066E+01  0.51100000000E-03 0.  1.
        -12    1    3    3    0    0 -0.10724695887E+02 -0.19302264237E+02  0.37999661433E+02  0.43949639083E+02  0.00000000000E+00 0.  1.
</event>
<event>
 7    1  0.2593256E-015  0.9000787E+02  0.7816164E-02  0.1186339E+00
        -11   -1    0    0    0    0  0.00000000000E+00  0.00000000000E+00  0.45593999997E+02  0.45594000000E+02  0.51100000000E-03 0.  1.
         11   -1    0    0    0    0 -0.00000000000E+00 -0.00000000000E+00 -0.45593999997E+02  0.45594000000E+02  0.51100000000E-03 0. -1.
    9900012    2    1    2    0    0  0.38694966767E+00  0.93298835573E+00 -0.61033907693E+00  0.90007868183E+02  0.90000131243E+02 0.  0.
        -12    1    1    2    0    0 -0.38694966767E+00 -0.93298835573E+00  0.61033907693E+00  0.11801318172E+01  0.00000000000E+00 0.  1.
         11    1    3    3    0    0 -0.64432782376E+01 -0.30599118742E+01  0.38863549143E+01  0.81229705100E+01  0.51100000000E-03 0. -1.
        -11    1    3    3    0    0 -0.39895482729E+01 -0.38078619485E+02 -0.32807042600E+01  0.38427344144E+02  0.51100000000E-03 0.  1.
         12    1    3    3    0    0  0.10819776178E+02  0.42071519715E+02 -0.12159897313E+01  0.43457553528E+02  0.00000000000E+00 0. -1.
</event>
<event>
 7    1  0.2593256E-015  0.9000745E+02  0.7816164E-02  0.1186340E+00
        -11   -1    0    0    0    0  0.00000000000E+00  0.00000000000E+00  0.45593999997E+02  0.45594000000E+02  0.51100000000E-03 0. -1.
         11   -1    0    0    0    0 -0.00000000000E+00 -0.00000000000E+00 -0.45593999997E+02  0.45594000000E+02  0.51100000000E-03 0.  1.
    9900012    2    1    2    0    0  0.39155622854E+00  0.44352464880E+00  0.10216021535E+01  0.90007448707E+02  0.89999706230E+02 0.  0.
        -12    1    1    2    0    0 -0.39155622854E+00 -0.44352464880E+00 -0.10216021535E+01  0.11805512925E+01  0.00000000000E+00 0.  1.
         11    1    3    3    0    0  0.49411365976E+01 -0.35876502674E+01 -0.56981933635E+01  0.83519742089E+01  0.51100000000E-03 0. -1.
        -11    1    3    3    0    0  0.98586968682E+01  0.40556889326E+02 -0.45552950542E+00  0.41740420255E+02  0.51100000000E-03 0.  1.
         12    1    3    3    0    0 -0.14408277237E+02 -0.36525714409E+02  0.71753250225E+01  0.39915054243E+02  0.00000000000E+00 0. -1.
</event>
<event>
 7    1  0.2593256E-015  0.9000778E+02  0.7816164E-02  0.1186339E+00
        -11   -1    0    0    0    0  0.00000000000E+00  0.00000000000E+00  0.45593999997E+02  0.45594000000E+02  0.51100000000E-03 0. -1.
         11   -1    0    0    0    0 -0.00000000000E+00 -0.00000000000E+00 -0.45593999997E+02  0.45594000000E+02  0.51100000000E-03 0.  1.
    9900012    2    1    2    0    0  0.77042326774E+00  0.82300743357E+00  0.34931367530E+00  0.90007782524E+02  0.90000044453E+02 0.  0.
        -12    1    1    2    0    0 -0.77042326774E+00 -0.82300743357E+00 -0.34931367530E+00  0.11802174761E+01  0.00000000000E+00 0.  1.
         11    1    3    3    0    0 -0.22191518461E+02  0.16773715976E+02  0.27416141333E+02  0.39057212459E+02  0.51100000000E-03 0. -1.
        -11    1    3    3    0    0  0.70692474718E+01  0.78062326916E+01  0.13836083373E+01  0.10621953725E+02  0.51100000000E-03 0.  1.
        -12    1    3    3    0    0  0.15892694257E+02 -0.23756941234E+02 -0.28450435995E+02  0.40328616339E+02  0.00000000000E+00 0.  1.
</event>
<event>
 7    1  0.2593256E-015  0.9000775E+02  0.7816164E-02  0.1186339E+00
        -11   -1    0    0    0    0  0.00000000000E+00  0.00000000000E+00  0.45593999997E+02  0.45594000000E+02  0.51100000000E-03 0. -1.
         11   -1    0    0    0    0 -0.00000000000E+00 -0.00000000000E+00 -0.45593999997E+02  0.45594000000E+02  0.51100000000E-03 0.  1.
    9900012    2    1    2    0    0 -0.37752917002E+00  0.44653096934E+00  0.10252215414E+01  0.90007746896E+02  0.90000008355E+02 0.  0.
        -12    1    1    2    0    0  0.37752917002E+00 -0.44653096934E+00 -0.10252215414E+01  0.11802531041E+01  0.00000000000E+00 0.  1.
         11    1    3    3    0    0  0.41615420647E+01 -0.57833009955E+01 -0.64833253672E+00  0.71543929233E+01  0.51100000000E-03 0. -1.
        -11    1    3    3    0    0 -0.12154078535E+02 -0.29988640208E+02  0.23404265186E+02  0.39934944543E+02  0.51100000000E-03 0.  1.
         12    1    3    3    0    0  0.76150072998E+01  0.36218472173E+02 -0.21730711108E+02  0.42918409429E+02  0.00000000000E+00 0. -1.
</event>
<event>
 7    1  0.2593256E-015  0.9000773E+02  0.7816164E-02  0.1186339E+00
        -11   -1    0    0    0    0  0.00000000000E+00  0.00000000000E+00  0.45593999997E+02  0.45594000000E+02  0.51100000000E-03 0. -1.
         11   -1    0    0    0    0 -0.00000000000E+00 -0.00000000000E+00 -0.45593999997E+02  0.45594000000E+02  0.51100000000E-03 0.  1.
    9900012    2    1    2    0    0 -0.36128183468E+00  0.10838064341E+01 -0.29643825320E+00  0.90007730290E+02  0.89999991530E+02 0.  0.
        -12    1    1    2    0    0  0.36128183468E+00 -0.10838064341E+01  0.29643825320E+00  0.11802697101E+01  0.00000000000E+00 0.  1.
         11    1    3    3    0    0  0.22577191640E+02 -0.28051907292E+02 -0.13643091566E+02  0.38506792035E+02  0.51100000000E-03 0. -1.
        -11    1    3    3    0    0  0.79213923163E+01  0.59932073498E+01 -0.17359006274E+01  0.10083667082E+02  0.51100000000E-03 0.  1.
        -12    1    3    3    0    0 -0.30859865791E+02  0.23142506377E+02  0.15082553940E+02  0.41417271173E+02  0.00000000000E+00 0.  1.
</event>
<event>
 7    1  0.2593256E-015  0.9000852E+02  0.7816164E-02  0.1186337E+00
        -11   -1    0    0    0    0  0.00000000000E+00  0.00000000000E+00  0.45593999997E+02  0.45594000000E+02  0.51100000000E-03 0.  1.
         11   -1    0    0    0    0 -0.00000000000E+00 -0.00000000000E+00 -0.45593999997E+02  0.45594000000E+02  0.51100000000E-03 0. -1.
    9900012    2    1    2    0    0  0.91144964461E-01 -0.10831342022E+01 -0.45791075924E+00  0.90008521569E+02  0.90000793251E+02 0.  0.
        -12    1    1    2    0    0 -0.91144964461E-01  0.10831342022E+01  0.45791075924E+00  0.11794784305E+01  0.00000000000E+00 0.  1.
         11    1    3    3    0    0  0.55591693736E+01  0.31442587981E+01  0.70053840834E-01  0.63871461010E+01  0.51100000000E-03 0. -1.
        -11    1    3    3    0    0  0.16326537951E+02  0.27599276050E+02  0.22058760490E+02  0.38921264041E+02  0.51100000000E-03 0.  1.
         12    1    3    3    0    0 -0.21794562360E+02 -0.31826669051E+02 -0.22586725090E+02  0.44700111427E+02  0.00000000000E+00 0. -1.
</event>
<event>
 7    1  0.2593256E-015  0.9000772E+02  0.7816164E-02  0.1186339E+00
        -11   -1    0    0    0    0  0.00000000000E+00  0.00000000000E+00  0.45593999997E+02  0.45594000000E+02  0.51100000000E-03 0.  1.
         11   -1    0    0    0    0 -0.00000000000E+00 -0.00000000000E+00 -0.45593999997E+02  0.45594000000E+02  0.51100000000E-03 0. -1.
    9900012    2    1    2    0    0  0.81827377107E+00  0.74297227124E+00  0.41411135454E+00  0.90007716994E+02  0.89999978058E+02 0.  0.
        -12    1    1    2    0    0 -0.81827377107E+00 -0.74297227124E+00 -0.41411135454E+00  0.11802830060E+01  0.00000000000E+00 0.  1.
         11    1    3    3    0    0  0.24296303301E+02 -0.28156632092E+02 -0.16342623595E+02  0.40622501536E+02  0.51100000000E-03 0. -1.
        -11    1    3    3    0    0  0.64010964024E+01  0.62370743010E+01  0.37526373940E+01  0.96931635012E+01  0.51100000000E-03 0.  1.
        -12    1    3    3    0    0 -0.29879125933E+02  0.22662530062E+02  0.13004097555E+02  0.39692051957E+02  0.00000000000E+00 0.  1.
</event>
<event>
 7    1  0.2593256E-015  0.9000793E+02  0.7816164E-02  0.1186339E+00
        -11   -1    0    0    0    0  0.00000000000E+00  0.00000000000E+00  0.45593999997E+02  0.45594000000E+02  0.51100000000E-03 0.  1.
         11   -1    0    0    0    0 -0.00000000000E+00 -0.00000000000E+00 -0.45593999997E+02  0.45594000000E+02  0.51100000000E-03 0. -1.
    9900012    2    1    2    0    0  0.37929235291E+00  0.10861833555E+01 -0.26251900980E+00  0.90007926612E+02  0.90000190443E+02 0.  0.
        -12    1    1    2    0    0 -0.37929235291E+00 -0.10861833555E+01  0.26251900980E+00  0.11800733880E+01  0.00000000000E+00 0.  1.
         11    1    3    3    0    0  0.21601782706E+02  0.17288647089E+02 -0.26181758835E+02  0.38092241076E+02  0.51100000000E-03 0. -1.
        -11    1    3    3    0    0  0.80424876968E+00 -0.26847303036E+01 -0.84564539088E+01  0.89087712879E+01  0.51100000000E-03 0.  1.
        -12    1    3    3    0    0 -0.22026739123E+02 -0.13517733430E+02  0.34375693734E+02  0.43006914248E+02  0.00000000000E+00 0.  1.
</event>
<event>
 7    1  0.2593256E-015  0.9000776E+02  0.7816164E-02  0.1186339E+00
        -11   -1    0    0    0    0  0.00000000000E+00  0.00000000000E+00  0.45593999997E+02  0.45594000000E+02  0.51100000000E-03 0.  1.
         11   -1    0    0    0    0 -0.00000000000E+00 -0.00000000000E+00 -0.45593999997E+02  0.45594000000E+02  0.51100000000E-03 0. -1.
    9900012    2    1    2    0    0  0.56271801114E+00 -0.10959265227E+00 -0.10316488725E+01  0.90007762098E+02  0.90000023758E+02 0.  0.
        -12    1    1    2    0    0 -0.56271801114E+00  0.10959265227E+00  0.10316488725E+01  0.11802379021E+01  0.00000000000E+00 0.  1.
         11    1    3    3    0    0  0.30455480922E+02  0.13462213485E+02  0.16212642608E+02  0.37035351905E+02  0.51100000000E-03 0. -1.
        -11    1    3    3    0    0  0.22221900104E+01  0.91927138719E+01  0.11404067614E+01  0.95259983527E+01  0.51100000000E-03 0.  1.
        -12    1    3    3    0    0 -0.32114952921E+02 -0.22764520010E+02 -0.18384698242E+02  0.43446411841E+02  0.00000000000E+00 0.  1.
</event>
<event>
 7    1  0.2593256E-015  0.9000776E+02  0.7816164E-02  0.1186339E+00
        -11   -1    0    0    0    0  0.00000000000E+00  0.00000000000E+00  0.45593999997E+02  0.45594000000E+02  0.51100000000E-03 0.  1.
         11   -1    0    0    0    0 -0.00000000000E+00 -0.00000000000E+00 -0.45593999997E+02  0.45594000000E+02  0.51100000000E-03 0. -1.
    9900012    2    1    2    0    0 -0.73791060871E+00  0.65421670462E+00 -0.64842089782E+00  0.90007762217E+02  0.90000023879E+02 0.  0.
        -12    1    1    2    0    0  0.73791060871E+00 -0.65421670462E+00  0.64842089782E+00  0.11802377827E+01  0.00000000000E+00 0.  1.
         11    1    3    3    0    0 -0.23267254475E+02  0.27506901169E+02 -0.87422718353E+01  0.37073198673E+02  0.51100000000E-03 0. -1.
        -11    1    3    3    0    0 -0.65800911057E+01  0.40160758340E+01  0.71204727962E+01  0.10494169675E+02  0.51100000000E-03 0.  1.
        -12    1    3    3    0    0  0.29109434972E+02 -0.30868760298E+02  0.97337814125E+00  0.42440393869E+02  0.00000000000E+00 0.  1.
</event>
<event>
 7    1  0.2593256E-015  0.9000770E+02  0.7816164E-02  0.1186339E+00
        -11   -1    0    0    0    0  0.00000000000E+00  0.00000000000E+00  0.45593999997E+02  0.45594000000E+02  0.51100000000E-03 0.  1.
         11   -1    0    0    0    0 -0.00000000000E+00 -0.00000000000E+00 -0.45593999997E+02  0.45594000000E+02  0.51100000000E-03 0. -1.
    9900012    2    1    2    0    0 -0.15226543115E+00 -0.92634051270E+00 -0.71541470268E+00  0.90007699316E+02  0.89999960147E+02 0.  0.
        -12    1    1    2    0    0  0.15226543115E+00  0.92634051270E+00  0.71541470268E+00  0.11803006836E+01  0.00000000000E+00 0.  1.
         11    1    3    3    0    0  0.82722228108E+01 -0.32859976103E+01  0.52799241071E+01  0.10349156940E+02  0.51100000000E-03 0. -1.
        -11    1    3    3    0    0  0.23588397038E+02  0.27338361045E+02 -0.13149940849E+02  0.38428106954E+02  0.51100000000E-03 0.  1.
         12    1    3    3    0    0 -0.32012885280E+02 -0.24978703947E+02  0.71546020388E+01  0.41230435423E+02  0.00000000000E+00 0. -1.
</event>
<event>
 7    1  0.2593256E-015  0.9000781E+02  0.7816164E-02  0.1186339E+00
        -11   -1    0    0    0    0  0.00000000000E+00  0.00000000000E+00  0.45593999997E+02  0.45594000000E+02  0.51100000000E-03 0.  1.
         11   -1    0    0    0    0 -0.00000000000E+00 -0.00000000000E+00 -0.45593999997E+02  0.45594000000E+02  0.51100000000E-03 0. -1.
    9900012    2    1    2    0    0  0.30663908888E+00  0.73989911172E-01 -0.11372558933E+01  0.90007808065E+02  0.90000070331E+02 0.  0.
        -12    1    1    2    0    0 -0.30663908888E+00 -0.73989911172E-01  0.11372558933E+01  0.11801919355E+01  0.00000000000E+00 0.  1.
         11    1    3    3    0    0 -0.32392999948E+02 -0.63861140945E+01 -0.19653938447E+02  0.38423510974E+02  0.51100000000E-03 0. -1.
        -11    1    3    3    0    0  0.37556119882E+00 -0.87205820842E+01 -0.37496704543E+01  0.94999803620E+01  0.51100000000E-03 0.  1.
        -12    1    3    3    0    0  0.32324077838E+02  0.15180686090E+02  0.22266353008E+02  0.42084316728E+02  0.00000000000E+00 0.  1.
</event>
<event>
 7    1  0.2593256E-015  0.9000776E+02  0.7816164E-02  0.1186339E+00
        -11   -1    0    0    0    0  0.00000000000E+00  0.00000000000E+00  0.45593999997E+02  0.45594000000E+02  0.51100000000E-03 0. -1.
         11   -1    0    0    0    0 -0.00000000000E+00 -0.00000000000E+00 -0.45593999997E+02  0.45594000000E+02  0.51100000000E-03 0.  1.
    9900012    2    1    2    0    0 -0.48479546001E+00 -0.10620556861E+01 -0.17315196921E+00  0.90007758278E+02  0.90000019887E+02 0.  0.
        -12    1    1    2    0    0  0.48479546001E+00  0.10620556861E+01  0.17315196921E+00  0.11802417222E+01  0.00000000000E+00 0.  1.
         11    1    3    3    0    0  0.45212867753E+01 -0.42957552116E+02  0.27602470178E+01  0.43282932916E+02  0.51100000000E-03 0. -1.
        -11    1    3    3    0    0 -0.10518334395E+02  0.10976161143E+02 -0.16519868492E+01  0.15291845301E+02  0.51100000000E-03 0.  1.
        -12    1    3    3    0    0  0.55122521600E+01  0.30919335287E+02 -0.12814121378E+01  0.31432980062E+02  0.00000000000E+00 0.  1.
</event>
<event>
 7    1  0.2593256E-015  0.9000773E+02  0.7816164E-02  0.1186339E+00
        -11   -1    0    0    0    0  0.00000000000E+00  0.00000000000E+00  0.45593999997E+02  0.45594000000E+02  0.51100000000E-03 0. -1.
         11   -1    0    0    0    0 -0.00000000000E+00 -0.00000000000E+00 -0.45593999997E+02  0.45594000000E+02  0.51100000000E-03 0.  1.
    9900012    2    1    2    0    0 -0.73574623005E+00 -0.35664373179E+00  0.85119059809E+00  0.90007727701E+02  0.89999988906E+02 0.  0.
        -12    1    1    2    0    0  0.73574623005E+00  0.35664373179E+00 -0.85119059809E+00  0.11802722994E+01  0.00000000000E+00 0.  1.
         11    1    3    3    0    0 -0.51924422812E+00 -0.38064370547E+02  0.90139190636E+01  0.39120540089E+02  0.51100000000E-03 0. -1.
        -11    1    3    3    0    0 -0.31361566831E+01 -0.57242676201E+01 -0.25040003878E+01  0.69909038565E+01  0.51100000000E-03 0.  1.
        -12    1    3    3    0    0  0.29196546812E+01  0.43431994435E+02 -0.56587280778E+01  0.43896283755E+02  0.00000000000E+00 0.  1.
</event>
<event>
 7    1  0.2593256E-015  0.9000780E+02  0.7816164E-02  0.1186339E+00
        -11   -1    0    0    0    0  0.00000000000E+00  0.00000000000E+00  0.45593999997E+02  0.45594000000E+02  0.51100000000E-03 0.  1.
         11   -1    0    0    0    0 -0.00000000000E+00 -0.00000000000E+00 -0.45593999997E+02  0.45594000000E+02  0.51100000000E-03 0. -1.
    9900012    2    1    2    0    0 -0.93953226560E+00  0.45533299231E+00 -0.55028676746E+00  0.90007803178E+02  0.90000065380E+02 0.  0.
        -12    1    1    2    0    0  0.93953226560E+00 -0.45533299231E+00  0.55028676746E+00  0.11801968219E+01  0.00000000000E+00 0.  1.
         11    1    3    3    0    0  0.22917365839E+02 -0.15430931303E+02  0.14928960869E+02  0.31403712691E+02  0.51100000000E-03 0.  1.
        -11    1    3    3    0    0  0.66971665888E-01  0.27777102346E+02 -0.15660160939E+02  0.31887498191E+02  0.51100000000E-03 0. -1.
        -12    1    3    3    0    0 -0.23923869770E+02 -0.11890838051E+02  0.18091330249E+00  0.26716592297E+02  0.00000000000E+00 0.  1.
</event>
<event>
 7    1  0.2593256E-015  0.9000784E+02  0.7816164E-02  0.1186339E+00
        -11   -1    0    0    0    0  0.00000000000E+00  0.00000000000E+00  0.45593999997E+02  0.45594000000E+02  0.51100000000E-03 0.  1.
         11   -1    0    0    0    0 -0.00000000000E+00 -0.00000000000E+00 -0.45593999997E+02  0.45594000000E+02  0.51100000000E-03 0. -1.
    9900012    2    1    2    0    0  0.52296597032E+00 -0.51941277247E+00 -0.92167616436E+00  0.90007843237E+02  0.90000105967E+02 0.  0.
        -12    1    1    2    0    0 -0.52296597032E+00  0.51941277247E+00  0.92167616436E+00  0.11801567634E+01  0.00000000000E+00 0.  1.
         11    1    3    3    0    0 -0.50156798460E+01  0.45358216670E+01  0.46555475775E+01  0.82100454335E+01  0.51100000000E-03 0. -1.
        -11    1    3    3    0    0  0.28932105256E+02  0.18907167287E+02  0.19753190283E+02  0.39808745471E+02  0.51100000000E-03 0.  1.
         12    1    3    3    0    0 -0.23393459439E+02 -0.23962401727E+02 -0.25330414025E+02  0.41989052332E+02  0.00000000000E+00 0. -1.
</event>
<event>
 7    1  0.2593256E-015  0.9000778E+02  0.7816164E-02  0.1186339E+00
        -11   -1    0    0    0    0  0.00000000000E+00  0.00000000000E+00  0.45593999997E+02  0.45594000000E+02  0.51100000000E-03 0. -1.
         11   -1    0    0    0    0 -0.00000000000E+00 -0.00000000000E+00 -0.45593999997E+02  0.45594000000E+02  0.51100000000E-03 0.  1.
    9900012    2    1    2    0    0 -0.76394022110E-01 -0.10428685612E+00  0.11731137611E+01  0.90007784896E+02  0.90000046857E+02 0.  0.
        -12    1    1    2    0    0  0.76394022110E-01  0.10428685612E+00 -0.11731137611E+01  0.11802151039E+01  0.00000000000E+00 0.  1.
         11    1    3    3    0    0  0.49684863298E+01  0.28264024834E+02  0.22017184653E+02  0.36170393646E+02  0.51100000000E-03 0. -1.
        -11    1    3    3    0    0  0.75932818524E+01  0.69012889621E+01  0.12589619381E+01  0.10337828788E+02  0.51100000000E-03 0.  1.
        -12    1    3    3    0    0 -0.12638162204E+02 -0.35269600652E+02 -0.22103032830E+02  0.43499562462E+02  0.00000000000E+00 0.  1.
</event>
<event>
 7    1  0.2593256E-015  0.9000771E+02  0.7816164E-02  0.1186339E+00
        -11   -1    0    0    0    0  0.00000000000E+00  0.00000000000E+00  0.45593999997E+02  0.45594000000E+02  0.51100000000E-03 0. -1.
         11   -1    0    0    0    0 -0.00000000000E+00 -0.00000000000E+00 -0.45593999997E+02  0.45594000000E+02  0.51100000000E-03 0.  1.
    9900012    2    1    2    0    0 -0.82957870424E+00  0.28654016185E+00  0.78915917646E+00  0.90007712621E+02  0.89999973628E+02 0.  0.
        -12    1    1    2    0    0  0.82957870424E+00 -0.28654016185E+00 -0.78915917646E+00  0.11802873788E+01  0.00000000000E+00 0.  1.
         11    1    3    3    0    0 -0.27936143910E+02  0.32362795207E+02 -0.85949609645E+01  0.43607935108E+02  0.51100000000E-03 0. -1.
        -11    1    3    3    0    0 -0.12226008759E+00 -0.98845079683E+01 -0.53423876786E+00  0.98996897238E+01  0.51100000000E-03 0.  1.
        -12    1    3    3    0    0  0.27228825293E+02 -0.22191747077E+02  0.99183589089E+01  0.36500087789E+02  0.00000000000E+00 0.  1.
</event>
<event>
 7    1  0.2593256E-015  0.9000773E+02  0.7816164E-02  0.1186339E+00
        -11   -1    0    0    0    0  0.00000000000E+00  0.00000000000E+00  0.45593999997E+02  0.45594000000E+02  0.51100000000E-03 0.  1.
         11   -1    0    0    0    0 -0.00000000000E+00 -0.00000000000E+00 -0.45593999997E+02  0.45594000000E+02  0.51100000000E-03 0. -1.
    9900012    2    1    2    0    0  0.79235781330E+00  0.87476256765E+00  0.21490766411E-02  0.90007726696E+02  0.89999987888E+02 0.  0.
        -12    1    1    2    0    0 -0.79235781330E+00 -0.87476256765E+00 -0.21490766411E-02  0.11802733042E+01  0.00000000000E+00 0.  1.
         11    1    3    3    0    0 -0.35650873286E+01  0.82787285454E+00 -0.30014163179E+02  0.30236488102E+02  0.51100000000E-03 0. -1.
        -11    1    3    3    0    0  0.57349654404E+01 -0.12754946604E+02 -0.10351843849E+02  0.17399401219E+02  0.51100000000E-03 0.  1.
        -12    1    3    3    0    0 -0.13775202985E+01  0.12801836317E+02  0.40368156104E+02  0.42371837375E+02  0.00000000000E+00 0.  1.
</event>
<event>
 7    1  0.2807762E-015  0.9000771E+02  0.7816164E-02  0.1186339E+00
        -11   -1    0    0    0    0  0.00000000000E+00  0.00000000000E+00  0.45593999997E+02  0.45594000000E+02  0.51100000000E-03 0. -1.
         11   -1    0    0    0    0 -0.00000000000E+00 -0.00000000000E+00 -0.45593999997E+02  0.45594000000E+02  0.51100000000E-03 0.  1.
    9900012    2    1    2    0    0 -0.83279728725E+00 -0.47656703090E-01  0.83502555219E+00  0.90007707597E+02  0.89999968538E+02 0.  0.
        -12    1    1    2    0    0  0.83279728725E+00  0.47656703090E-01 -0.83502555219E+00  0.11802924027E+01  0.00000000000E+00 0.  1.
         11    1    3    3    0    0 -0.13380205340E+02  0.11690532065E+02  0.31889927514E+02  0.36505696980E+02  0.51100000000E-03 0. -1.
        -11    1    3    3    0    0 -0.56902759785E+01  0.83689576750E+01  0.24180107344E+01  0.10405069411E+02  0.51100000000E-03 0.  1.
        -12    1    3    3    0    0  0.18237684031E+02 -0.20107146443E+02 -0.33472912696E+02  0.43096941206E+02  0.00000000000E+00 0.  1.
</event>
<event>
 7    1  0.2593256E-015  0.9000811E+02  0.7816164E-02  0.1186338E+00
        -11   -1    0    0    0    0  0.00000000000E+00  0.00000000000E+00  0.45593999997E+02  0.45594000000E+02  0.51100000000E-03 0. -1.
         11   -1    0    0    0    0 -0.00000000000E+00 -0.00000000000E+00 -0.45593999997E+02  0.45594000000E+02  0.51100000000E-03 0.  1.
    9900012    2    1    2    0    0 -0.10581097557E+01 -0.30685743675E+00  0.42234823109E+00  0.90008111967E+02  0.90000378244E+02 0.  0.
        -12    1    1    2    0    0  0.10581097557E+01  0.30685743675E+00 -0.42234823109E+00  0.11798880328E+01  0.00000000000E+00 0.  1.
         11    1    3    3    0    0  0.14111523563E+02 -0.20846249833E+02  0.19893422599E+02  0.32085035333E+02  0.51100000000E-03 0. -1.
        -11    1    3    3    0    0  0.12481023284E+02  0.10210544020E+02  0.76410745435E+01  0.17844247585E+02  0.51100000000E-03 0.  1.
        -12    1    3    3    0    0 -0.27650656603E+02  0.10328848376E+02 -0.27112148911E+02  0.40078829049E+02  0.00000000000E+00 0.  1.
</event>
<event>
 7    1  0.2593256E-015  0.9000782E+02  0.7816164E-02  0.1186339E+00
        -11   -1    0    0    0    0  0.00000000000E+00  0.00000000000E+00  0.45593999997E+02  0.45594000000E+02  0.51100000000E-03 0.  1.
         11   -1    0    0    0    0 -0.00000000000E+00 -0.00000000000E+00 -0.45593999997E+02  0.45594000000E+02  0.51100000000E-03 0. -1.
    9900012    2    1    2    0    0  0.10233915372E+01 -0.41418070690E+00 -0.41707482465E+00  0.90007818952E+02  0.90000081362E+02 0.  0.
        -12    1    1    2    0    0 -0.10233915372E+01  0.41418070690E+00  0.41707482465E+00  0.11801810479E+01  0.00000000000E+00 0.  1.
         11    1    3    3    0    0 -0.45592017373E+01  0.47486176945E+01 -0.26101980129E+02  0.26919306407E+02  0.51100000000E-03 0. -1.
        -11    1    3    3    0    0 -0.21730915401E+02  0.11298985254E+02  0.47749453745E+01  0.24953954707E+02  0.51100000000E-03 0.  1.
        -12    1    3    3    0    0  0.27313508675E+02 -0.16461783656E+02  0.20909959930E+02  0.38134557839E+02  0.00000000000E+00 0.  1.
</event>
<event>
 7    1  0.2593256E-015  0.9000777E+02  0.7816164E-02  0.1186339E+00
        -11   -1    0    0    0    0  0.00000000000E+00  0.00000000000E+00  0.45593999997E+02  0.45594000000E+02  0.51100000000E-03 0.  1.
         11   -1    0    0    0    0 -0.00000000000E+00 -0.00000000000E+00 -0.45593999997E+02  0.45594000000E+02  0.51100000000E-03 0. -1.
    9900012    2    1    2    0    0 -0.90649517193E+00 -0.26159919340E+00  0.70907303882E+00  0.90007766036E+02  0.90000027748E+02 0.  0.
        -12    1    1    2    0    0  0.90649517193E+00  0.26159919340E+00 -0.70907303882E+00  0.11802339637E+01  0.00000000000E+00 0.  1.
         11    1    3    3    0    0 -0.95097994132E+01 -0.16193816175E+01 -0.17229437169E+01  0.97993477852E+01  0.51100000000E-03 0. -1.
        -11    1    3    3    0    0 -0.21976267192E+02  0.28581146841E+02 -0.10011517679E+02  0.37417492713E+02  0.51100000000E-03 0.  1.
         12    1    3    3    0    0  0.30579571433E+02 -0.27223364417E+02  0.12443534435E+02  0.42790925538E+02  0.00000000000E+00 0. -1.
</event>
<event>
 7    1  0.2593256E-015  0.9000787E+02  0.7816164E-02  0.1186339E+00
        -11   -1    0    0    0    0  0.00000000000E+00  0.00000000000E+00  0.45593999997E+02  0.45594000000E+02  0.51100000000E-03 0. -1.
         11   -1    0    0    0    0 -0.00000000000E+00 -0.00000000000E+00 -0.45593999997E+02  0.45594000000E+02  0.51100000000E-03 0.  1.
    9900012    2    1    2    0    0 -0.86309071868E+00  0.53319065773E+00  0.60289474592E+00  0.90007872913E+02  0.90000136036E+02 0.  0.
        -12    1    1    2    0    0  0.86309071868E+00 -0.53319065773E+00 -0.60289474592E+00  0.11801270867E+01  0.00000000000E+00 0.  1.
         11    1    3    3    0    0  0.35962074402E+01  0.32738353083E+01 -0.86204985838E+01  0.98976614245E+01  0.51100000000E-03 0. -1.
        -11    1    3    3    0    0  0.12001059644E+02  0.33683122055E+02 -0.79112528544E+01  0.36621934219E+02  0.51100000000E-03 0.  1.
         12    1    3    3    0    0 -0.16460357803E+02 -0.36423766706E+02  0.17134646184E+02  0.43488277270E+02  0.00000000000E+00 0. -1.
</event>
<event>
 7    1  0.2593256E-015  0.9000773E+02  0.7816164E-02  0.1186339E+00
        -11   -1    0    0    0    0  0.00000000000E+00  0.00000000000E+00  0.45593999997E+02  0.45594000000E+02  0.51100000000E-03 0. -1.
         11   -1    0    0    0    0 -0.00000000000E+00 -0.00000000000E+00 -0.45593999997E+02  0.45594000000E+02  0.51100000000E-03 0.  1.
    9900012    2    1    2    0    0 -0.64005812887E+00  0.97791487417E+00  0.16448518183E+00  0.90007725759E+02  0.89999986939E+02 0.  0.
        -12    1    1    2    0    0  0.64005812887E+00 -0.97791487417E+00 -0.16448518183E+00  0.11802742412E+01  0.00000000000E+00 0.  1.
         11    1    3    3    0    0 -0.68004274608E+01 -0.31516985505E+01 -0.24463907199E+01  0.78844051912E+01  0.51100000000E-03 0. -1.
        -11    1    3    3    0    0  0.10775956513E+01 -0.69403682700E+01 -0.38556818775E+02  0.39191302586E+02  0.51100000000E-03 0.  1.
         12    1    3    3    0    0  0.50827736807E+01  0.11069981695E+02  0.41167694676E+02  0.42932017982E+02  0.00000000000E+00 0. -1.
</event>
<event>
 7    1  0.2593256E-015  0.9000841E+02  0.7816164E-02  0.1186338E+00
        -11   -1    0    0    0    0  0.00000000000E+00  0.00000000000E+00  0.45593999997E+02  0.45594000000E+02  0.51100000000E-03 0.  1.
         11   -1    0    0    0    0 -0.00000000000E+00 -0.00000000000E+00 -0.45593999997E+02  0.45594000000E+02  0.51100000000E-03 0. -1.
    9900012    2    1    2    0    0  0.10040657951E+01 -0.61201759535E+00  0.93312845270E-01  0.90008414927E+02  0.90000685201E+02 0.  0.
        -12    1    1    2    0    0 -0.10040657951E+01  0.61201759535E+00 -0.93312845270E-01  0.11795850733E+01  0.00000000000E+00 0.  1.
         11    1    3    3    0    0  0.26241509572E+02 -0.29751364269E+02 -0.14891659886E+02  0.42373600683E+02  0.51100000000E-03 0. -1.
        -11    1    3    3    0    0 -0.18129565219E+02  0.36009717075E+01  0.38408691357E+01  0.18878570080E+02  0.51100000000E-03 0.  1.
        -12    1    3    3    0    0 -0.71078785573E+01  0.25538374966E+02  0.11144103595E+02  0.28756244164E+02  0.00000000000E+00 0.  1.
</event>
<event>
 7    1  0.2593256E-015  0.9000775E+02  0.7816164E-02  0.1186339E+00
        -11   -1    0    0    0    0  0.00000000000E+00  0.00000000000E+00  0.45593999997E+02  0.45594000000E+02  0.51100000000E-03 0.  1.
         11   -1    0    0    0    0 -0.00000000000E+00 -0.00000000000E+00 -0.45593999997E+02  0.45594000000E+02  0.51100000000E-03 0. -1.
    9900012    2    1    2    0    0  0.12437771647E-01 -0.11675069653E+01  0.17251779843E+00  0.90007750195E+02  0.90000011697E+02 0.  0.
        -12    1    1    2    0    0 -0.12437771647E-01  0.11675069653E+01 -0.17251779843E+00  0.11802498053E+01  0.00000000000E+00 0.  1.
         11    1    3    3    0    0 -0.93817278070E+01  0.97795318339E+01 -0.34532254453E+02  0.37096262041E+02  0.51100000000E-03 0. -1.
        -11    1    3    3    0    0 -0.70960087396E+01  0.38116692695E+01 -0.34822263459E+01  0.87754238210E+01  0.51100000000E-03 0.  1.
        -12    1    3    3    0    0  0.16490174318E+02 -0.14758708069E+02  0.38186998597E+02  0.44136064333E+02  0.00000000000E+00 0.  1.
</event>
<event>
 7    1  0.2593256E-015  0.9000773E+02  0.7816164E-02  0.1186339E+00
        -11   -1    0    0    0    0  0.00000000000E+00  0.00000000000E+00  0.45593999997E+02  0.45594000000E+02  0.51100000000E-03 0.  1.
         11   -1    0    0    0    0 -0.00000000000E+00 -0.00000000000E+00 -0.45593999997E+02  0.45594000000E+02  0.51100000000E-03 0. -1.
    9900012    2    1    2    0    0 -0.64673657280E+00 -0.84783142435E+00  0.50590630075E+00  0.90007734138E+02  0.89999995429E+02 0.  0.
        -12    1    1    2    0    0  0.64673657280E+00  0.84783142435E+00 -0.50590630075E+00  0.11802658615E+01  0.00000000000E+00 0.  1.
         11    1    3    3    0    0 -0.13761854149E+02  0.81860683361E+01 -0.21876499990E+02  0.27110544010E+02  0.51100000000E-03 0. -1.
        -11    1    3    3    0    0  0.17837440844E+02 -0.22509462648E+02 -0.75822691088E+01  0.29704225452E+02  0.51100000000E-03 0.  1.
         12    1    3    3    0    0 -0.47223232679E+01  0.13475562888E+02  0.29964675400E+02  0.33192964677E+02  0.00000000000E+00 0. -1.
</event>
<event>
 7    1  0.2593256E-015  0.9000772E+02  0.7816164E-02  0.1186339E+00
        -11   -1    0    0    0    0  0.00000000000E+00  0.00000000000E+00  0.45593999997E+02  0.45594000000E+02  0.51100000000E-03 0. -1.
         11   -1    0    0    0    0 -0.00000000000E+00 -0.00000000000E+00 -0.45593999997E+02  0.45594000000E+02  0.51100000000E-03 0.  1.
    9900012    2    1    2    0    0  0.84499524463E+00 -0.81357821437E+00  0.13085525742E+00  0.90007724789E+02  0.89999985957E+02 0.  0.
        -12    1    1    2    0    0 -0.84499524463E+00  0.81357821437E+00 -0.13085525742E+00  0.11802752106E+01  0.00000000000E+00 0.  1.
         11    1    3    3    0    0 -0.56338124202E+01 -0.78994595075E+01 -0.11332518946E+02  0.14918689246E+02  0.51100000000E-03 0. -1.
        -11    1    3    3    0    0  0.42418605239E+01 -0.11221319557E+02 -0.28583722923E+02  0.30999042078E+02  0.51100000000E-03 0.  1.
         12    1    3    3    0    0  0.22369471410E+01  0.18307200851E+02  0.40047097127E+02  0.44089993466E+02  0.00000000000E+00 0. -1.
</event>
<event>
 7    1  0.2593256E-015  0.9000787E+02  0.7816164E-02  0.1186339E+00
        -11   -1    0    0    0    0  0.00000000000E+00  0.00000000000E+00  0.45593999997E+02  0.45594000000E+02  0.51100000000E-03 0. -1.
         11   -1    0    0    0    0 -0.00000000000E+00 -0.00000000000E+00 -0.45593999997E+02  0.45594000000E+02  0.51100000000E-03 0.  1.
    9900012    2    1    2    0    0 -0.60681751924E+00 -0.95420116214E+00  0.33759139758E+00  0.90007874875E+02  0.90000138023E+02 0.  0.
        -12    1    1    2    0    0  0.60681751924E+00  0.95420116214E+00 -0.33759139758E+00  0.11801251252E+01  0.00000000000E+00 0.  1.
         11    1    3    3    0    0  0.31311552072E+01 -0.90319961505E+01  0.15787310129E+01  0.96888327092E+01  0.51100000000E-03 0. -1.
        -11    1    3    3    0    0  0.31842850926E+02 -0.88329902325E+01  0.16706496483E+02  0.37028312094E+02  0.51100000000E-03 0.  1.
         12    1    3    3    0    0 -0.35580823653E+02  0.16910785221E+02 -0.17947636098E+02  0.43290730071E+02  0.00000000000E+00 0. -1.
</event>
<event>
 7    1  0.2593256E-015  0.9000792E+02  0.7816164E-02  0.1186339E+00
        -11   -1    0    0    0    0  0.00000000000E+00  0.00000000000E+00  0.45593999997E+02  0.45594000000E+02  0.51100000000E-03 0.  1.
         11   -1    0    0    0    0 -0.00000000000E+00 -0.00000000000E+00 -0.45593999997E+02  0.45594000000E+02  0.51100000000E-03 0. -1.
    9900012    2    1    2    0    0  0.57180624453E-01 -0.11517450969E+01 -0.25061771864E+00  0.90007917108E+02  0.90000180813E+02 0.  0.
        -12    1    1    2    0    0 -0.57180624453E-01  0.11517450969E+01  0.25061771864E+00  0.11800828924E+01  0.00000000000E+00 0.  1.
         11    1    3    3    0    0 -0.24624482933E+02  0.23852057073E+02 -0.14779935198E+02  0.37332723863E+02  0.51100000000E-03 0. -1.
        -11    1    3    3    0    0 -0.68491158468E+01 -0.66210580501E+01 -0.55431974955E+01  0.11021607701E+02  0.51100000000E-03 0.  1.
        -12    1    3    3    0    0  0.31530779404E+02 -0.18382744120E+02  0.20072514975E+02  0.41653585543E+02  0.00000000000E+00 0.  1.
</event>
<event>
 7    1  0.2593256E-015  0.9000770E+02  0.7816164E-02  0.1186339E+00
        -11   -1    0    0    0    0  0.00000000000E+00  0.00000000000E+00  0.45593999997E+02  0.45594000000E+02  0.51100000000E-03 0.  1.
         11   -1    0    0    0    0 -0.00000000000E+00 -0.00000000000E+00 -0.45593999997E+02  0.45594000000E+02  0.51100000000E-03 0. -1.
    9900012    2    1    2    0    0 -0.91128735979E+00  0.53925251290E+00 -0.52142067942E+00  0.90007696035E+02  0.89999956823E+02 0.  0.
        -12    1    1    2    0    0  0.91128735979E+00 -0.53925251290E+00  0.52142067942E+00  0.11803039650E+01  0.00000000000E+00 0.  1.
         11    1    3    3    0    0 -0.40805099665E+01  0.10007071969E+02  0.24054429634E+01  0.11071504283E+02  0.51100000000E-03 0. -1.
        -11    1    3    3    0    0  0.48346300750E+00 -0.25681102396E+02  0.31585249257E+02  0.40710941130E+02  0.51100000000E-03 0.  1.
         12    1    3    3    0    0  0.26857595992E+01  0.16213282940E+02 -0.34512112900E+02  0.38225250623E+02  0.00000000000E+00 0. -1.
</event>
<event>
 7    1  0.2593256E-015  0.9000786E+02  0.7816164E-02  0.1186339E+00
        -11   -1    0    0    0    0  0.00000000000E+00  0.00000000000E+00  0.45593999997E+02  0.45594000000E+02  0.51100000000E-03 0.  1.
         11   -1    0    0    0    0 -0.00000000000E+00 -0.00000000000E+00 -0.45593999997E+02  0.45594000000E+02  0.51100000000E-03 0. -1.
    9900012    2    1    2    0    0  0.29946029876E+00  0.64022914600E+00 -0.94507535790E+00  0.90007857101E+02  0.90000120015E+02 0.  0.
        -12    1    1    2    0    0 -0.29946029876E+00 -0.64022914600E+00  0.94507535790E+00  0.11801428990E+01  0.00000000000E+00 0.  1.
         11    1    3    3    0    0  0.57239669913E+01 -0.29163716166E+02 -0.29249014819E+02  0.41698813015E+02  0.51100000000E-03 0. -1.
        -11    1    3    3    0    0  0.81929667816E+01  0.35618969836E+01  0.30913656559E+01  0.94534838386E+01  0.51100000000E-03 0.  1.
        -12    1    3    3    0    0 -0.13617473474E+02  0.26242048328E+02  0.25212573805E+02  0.38855560248E+02  0.00000000000E+00 0.  1.
</event>
<event>
 7    1  0.2593256E-015  0.9000758E+02  0.7816164E-02  0.1186339E+00
        -11   -1    0    0    0    0  0.00000000000E+00  0.00000000000E+00  0.45593999997E+02  0.45594000000E+02  0.51100000000E-03 0. -1.
         11   -1    0    0    0    0 -0.00000000000E+00 -0.00000000000E+00 -0.45593999997E+02  0.45594000000E+02  0.51100000000E-03 0.  1.
    9900012    2    1    2    0    0 -0.11358925356E+01  0.10009402156E+00  0.30514138882E+00  0.90007584000E+02  0.89999843309E+02 0.  0.
        -12    1    1    2    0    0  0.11358925356E+01 -0.10009402156E+00 -0.30514138882E+00  0.11804159999E+01  0.00000000000E+00 0.  1.
         11    1    3    3    0    0 -0.19644419449E+02  0.25161332072E+02 -0.20987771687E+02  0.38203172745E+02  0.51100000000E-03 0. -1.
        -11    1    3    3    0    0 -0.56890068852E+01 -0.15554073311E+01 -0.59986113582E+01  0.84123379505E+01  0.51100000000E-03 0.  1.
        -12    1    3    3    0    0  0.24197533798E+02 -0.23505830720E+02  0.27291524434E+02  0.43392073305E+02  0.00000000000E+00 0.  1.
</event>
<event>
 7    1  0.2593256E-015  0.9000769E+02  0.7816164E-02  0.1186339E+00
        -11   -1    0    0    0    0  0.00000000000E+00  0.00000000000E+00  0.45593999997E+02  0.45594000000E+02  0.51100000000E-03 0. -1.
         11   -1    0    0    0    0 -0.00000000000E+00 -0.00000000000E+00 -0.45593999997E+02  0.45594000000E+02  0.51100000000E-03 0.  1.
    9900012    2    1    2    0    0  0.95055037176E-01  0.56653731307E+00  0.10310785112E+01  0.90007693733E+02  0.89999954490E+02 0.  0.
        -12    1    1    2    0    0 -0.95055037176E-01 -0.56653731307E+00 -0.10310785112E+01  0.11803062668E+01  0.00000000000E+00 0.  1.
         11    1    3    3    0    0 -0.58890133310E+01  0.45105650466E+00 -0.47533099865E+01  0.75814171546E+01  0.51100000000E-03 0. -1.
        -11    1    3    3    0    0 -0.19630040672E+02  0.33096066971E+02 -0.62132154350E+01  0.38978098876E+02  0.51100000000E-03 0.  1.
         12    1    3    3    0    0  0.25614109040E+02 -0.32980586162E+02  0.11997603933E+02  0.43448177702E+02  0.00000000000E+00 0. -1.
</event>
<event>
 7    1  0.2593256E-015  0.9000774E+02  0.7816164E-02  0.1186339E+00
        -11   -1    0    0    0    0  0.00000000000E+00  0.00000000000E+00  0.45593999997E+02  0.45594000000E+02  0.51100000000E-03 0.  1.
         11   -1    0    0    0    0 -0.00000000000E+00 -0.00000000000E+00 -0.45593999997E+02  0.45594000000E+02  0.51100000000E-03 0. -1.
    9900012    2    1    2    0    0 -0.11108322062E+00  0.30775320711E+00 -0.11340003900E+01  0.90007742230E+02  0.90000003628E+02 0.  0.
        -12    1    1    2    0    0  0.11108322062E+00 -0.30775320711E+00  0.11340003900E+01  0.11802577697E+01  0.00000000000E+00 0.  1.
         11    1    3    3    0    0 -0.95199967954E+01 -0.29876922394E+02 -0.19542065571E+02  0.36947979076E+02  0.51100000000E-03 0. -1.
        -11    1    3    3    0    0  0.44656618843E+01 -0.45763510244E+01 -0.71798449610E+01  0.96143277814E+01  0.51100000000E-03 0.  1.
        -12    1    3    3    0    0  0.49432516905E+01  0.34761026626E+02  0.25587910142E+02  0.43445435373E+02  0.00000000000E+00 0.  1.
</event>
<event>
 7    1  0.2593256E-015  0.9000768E+02  0.7816164E-02  0.1186339E+00
        -11   -1    0    0    0    0  0.00000000000E+00  0.00000000000E+00  0.45593999997E+02  0.45594000000E+02  0.51100000000E-03 0.  1.
         11   -1    0    0    0    0 -0.00000000000E+00 -0.00000000000E+00 -0.45593999997E+02  0.45594000000E+02  0.51100000000E-03 0. -1.
    9900012    2    1    2    0    0 -0.52897233634E+00 -0.34462356687E+00 -0.99728382766E+00  0.90007681328E+02  0.89999941921E+02 0.  0.
        -12    1    1    2    0    0  0.52897233634E+00  0.34462356687E+00  0.99728382766E+00  0.11803186724E+01  0.00000000000E+00 0.  1.
         11    1    3    3    0    0  0.90611975328E+01  0.72220816812E+01  0.10098391311E+02  0.15370142220E+02  0.51100000000E-03 0. -1.
        -11    1    3    3    0    0 -0.57076466515E+01  0.26421004971E+02 -0.25832671231E+02  0.37389485650E+02  0.51100000000E-03 0.  1.
         12    1    3    3    0    0 -0.38825232177E+01 -0.33987710219E+02  0.14736996092E+02  0.37248053457E+02  0.00000000000E+00 0. -1.
</event>
<event>
 7    1  0.2593256E-015  0.9000775E+02  0.7816164E-02  0.1186339E+00
        -11   -1    0    0    0    0  0.00000000000E+00  0.00000000000E+00  0.45593999997E+02  0.45594000000E+02  0.51100000000E-03 0. -1.
         11   -1    0    0    0    0 -0.00000000000E+00 -0.00000000000E+00 -0.45593999997E+02  0.45594000000E+02  0.51100000000E-03 0.  1.
    9900012    2    1    2    0    0  0.33403147030E+00 -0.54550267173E+00  0.99188805483E+00  0.90007749136E+02  0.90000010625E+02 0.  0.
        -12    1    1    2    0    0 -0.33403147030E+00  0.54550267173E+00 -0.99188805483E+00  0.11802508637E+01  0.00000000000E+00 0.  1.
         11    1    3    3    0    0 -0.19703390179E+02 -0.17582651549E+02  0.29560088499E+02  0.39638012720E+02  0.51100000000E-03 0. -1.
        -11    1    3    3    0    0 -0.81789596221E+01  0.59933886496E+01 -0.26098685462E+01  0.10470315282E+02  0.51100000000E-03 0.  1.
        -12    1    3    3    0    0  0.28216381271E+02  0.11043760227E+02 -0.25958331898E+02  0.39899421135E+02  0.00000000000E+00 0.  1.
</event>
<event>
 7    1  0.2593256E-015  0.9000780E+02  0.7816164E-02  0.1186339E+00
        -11   -1    0    0    0    0  0.00000000000E+00  0.00000000000E+00  0.45593999997E+02  0.45594000000E+02  0.51100000000E-03 0. -1.
         11   -1    0    0    0    0 -0.00000000000E+00 -0.00000000000E+00 -0.45593999997E+02  0.45594000000E+02  0.51100000000E-03 0.  1.
    9900012    2    1    2    0    0 -0.11335340059E+01  0.26384128907E+00 -0.19584510827E+00  0.90007802188E+02  0.90000064377E+02 0.  0.
        -12    1    1    2    0    0  0.11335340059E+01 -0.26384128907E+00  0.19584510827E+00  0.11801978117E+01  0.00000000000E+00 0.  1.
         11    1    3    3    0    0  0.59819952251E+01  0.73432654140E+01 -0.23928297692E+01  0.97690044723E+01  0.51100000000E-03 0. -1.
        -11    1    3    3    0    0 -0.92465434158E+01 -0.28270061819E+02 -0.29603734311E+02  0.41965176585E+02  0.51100000000E-03 0.  1.
         12    1    3    3    0    0  0.21310141848E+01  0.21190637694E+02  0.31800718972E+02  0.38273621131E+02  0.00000000000E+00 0. -1.
</event>
<event>
 7    1  0.2593256E-015  0.9000772E+02  0.7816164E-02  0.1186339E+00
        -11   -1    0    0    0    0  0.00000000000E+00  0.00000000000E+00  0.45593999997E+02  0.45594000000E+02  0.51100000000E-03 0. -1.
         11   -1    0    0    0    0 -0.00000000000E+00 -0.00000000000E+00 -0.45593999997E+02  0.45594000000E+02  0.51100000000E-03 0.  1.
    9900012    2    1    2    0    0  0.58398185601E+00  0.39233610079E+00  0.94768286185E+00  0.90007718156E+02  0.89999979236E+02 0.  0.
        -12    1    1    2    0    0 -0.58398185601E+00 -0.39233610079E+00 -0.94768286185E+00  0.11802818438E+01  0.00000000000E+00 0.  1.
         11    1    3    3    0    0 -0.37990134580E+01 -0.75599683111E+01 -0.86112403146E+01  0.12072244370E+02  0.51100000000E-03 0. -1.
        -11    1    3    3    0    0 -0.26960874273E+02 -0.13431584699E+02  0.22768382130E+02  0.37758382303E+02  0.51100000000E-03 0.  1.
         12    1    3    3    0    0  0.31343869587E+02  0.21383889111E+02 -0.13209458954E+02  0.40177091483E+02  0.00000000000E+00 0. -1.
</event>
<event>
 7    1  0.2593256E-015  0.9000773E+02  0.7816164E-02  0.1186339E+00
        -11   -1    0    0    0    0  0.00000000000E+00  0.00000000000E+00  0.45593999997E+02  0.45594000000E+02  0.51100000000E-03 0. -1.
         11   -1    0    0    0    0 -0.00000000000E+00 -0.00000000000E+00 -0.45593999997E+02  0.45594000000E+02  0.51100000000E-03 0.  1.
    9900012    2    1    2    0    0  0.10666069983E+01 -0.18702072221E+00 -0.46947396782E+00  0.90007731791E+02  0.89999993050E+02 0.  0.
        -12    1    1    2    0    0 -0.10666069983E+01  0.18702072221E+00  0.46947396782E+00  0.11802682093E+01  0.00000000000E+00 0.  1.
         11    1    3    3    0    0  0.65943923448E+01  0.32213575351E+01 -0.11111569916E+02  0.13316536375E+02  0.51100000000E-03 0. -1.
        -11    1    3    3    0    0 -0.68899764656E+01  0.33729875069E+02  0.17936689796E+02  0.38818823900E+02  0.51100000000E-03 0.  1.
         12    1    3    3    0    0  0.13621911191E+01 -0.37138253327E+02 -0.72945938482E+01  0.37872371516E+02  0.00000000000E+00 0. -1.
</event>
<event>
 7    1  0.2593256E-015  0.9000773E+02  0.7816164E-02  0.1186339E+00
        -11   -1    0    0    0    0  0.00000000000E+00  0.00000000000E+00  0.45593999997E+02  0.45594000000E+02  0.51100000000E-03 0.  1.
         11   -1    0    0    0    0 -0.00000000000E+00 -0.00000000000E+00 -0.45593999997E+02  0.45594000000E+02  0.51100000000E-03 0. -1.
    9900012    2    1    2    0    0  0.94237315288E+00 -0.38620341124E+00 -0.59650313218E+00  0.90007730446E+02  0.89999991688E+02 0.  0.
        -12    1    1    2    0    0 -0.94237315288E+00  0.38620341124E+00  0.59650313218E+00  0.11802695543E+01  0.00000000000E+00 0.  1.
         11    1    3    3    0    0  0.18644272104E+02 -0.36642735951E+02 -0.12801633536E+02  0.43060199741E+02  0.51100000000E-03 0. -1.
        -11    1    3    3    0    0 -0.71235610843E+01  0.10651134311E+01  0.66118997859E+01  0.97773620257E+01  0.51100000000E-03 0.  1.
        -12    1    3    3    0    0 -0.10578337867E+02  0.35191419109E+02  0.55932306175E+01  0.37170168679E+02  0.00000000000E+00 0.  1.
</event>
<event>
 7    1  0.2593256E-015  0.9000770E+02  0.7816164E-02  0.1186339E+00
        -11   -1    0    0    0    0  0.00000000000E+00  0.00000000000E+00  0.45593999997E+02  0.45594000000E+02  0.51100000000E-03 0. -1.
         11   -1    0    0    0    0 -0.00000000000E+00 -0.00000000000E+00 -0.45593999997E+02  0.45594000000E+02  0.51100000000E-03 0.  1.
    9900012    2    1    2    0    0 -0.37951283989E+00 -0.91909997385E+00  0.63586302013E+00  0.90007704894E+02  0.89999965798E+02 0.  0.
        -12    1    1    2    0    0  0.37951283989E+00  0.91909997385E+00 -0.63586302013E+00  0.11802951063E+01  0.00000000000E+00 0.  1.
         11    1    3    3    0    0  0.35741166192E+02 -0.43831693007E+01  0.56195722319E+01  0.36444790111E+02  0.51100000000E-03 0. -1.
        -11    1    3    3    0    0  0.75813171803E+01 -0.42735969050E+01 -0.27420648369E+01  0.91246326242E+01  0.51100000000E-03 0.  1.
        -12    1    3    3    0    0 -0.43701996213E+02  0.77376662319E+01 -0.22416443748E+01  0.44438282158E+02  0.00000000000E+00 0.  1.
</event>
<event>
 7    1  0.2593256E-015  0.9000777E+02  0.7816164E-02  0.1186339E+00
        -11   -1    0    0    0    0  0.00000000000E+00  0.00000000000E+00  0.45593999997E+02  0.45594000000E+02  0.51100000000E-03 0.  1.
         11   -1    0    0    0    0 -0.00000000000E+00 -0.00000000000E+00 -0.45593999997E+02  0.45594000000E+02  0.51100000000E-03 0. -1.
    9900012    2    1    2    0    0  0.93556049676E+00 -0.10272162311E+00 -0.71212281123E+00  0.90007769483E+02  0.90000031240E+02 0.  0.
        -12    1    1    2    0    0 -0.93556049676E+00  0.10272162311E+00  0.71212281123E+00  0.11802305170E+01  0.00000000000E+00 0.  1.
         11    1    3    3    0    0 -0.22693480612E+02  0.89320752458E+01  0.23984666426E+02  0.34205851171E+02  0.51100000000E-03 0.  1.
        -11    1    3    3    0    0  0.10031467371E+02  0.47150579758E+01  0.10738793705E+02  0.15433204458E+02  0.51100000000E-03 0. -1.
        -12    1    3    3    0    0  0.13597573738E+02 -0.13749854845E+02 -0.35435582943E+02  0.40368713855E+02  0.00000000000E+00 0.  1.
</event>
<event>
 7    1  0.2593256E-015  0.9000783E+02  0.7816164E-02  0.1186339E+00
        -11   -1    0    0    0    0  0.00000000000E+00  0.00000000000E+00  0.45593999997E+02  0.45594000000E+02  0.51100000000E-03 0.  1.
         11   -1    0    0    0    0 -0.00000000000E+00 -0.00000000000E+00 -0.45593999997E+02  0.45594000000E+02  0.51100000000E-03 0. -1.
    9900012    2    1    2    0    0 -0.65655559527E+00  0.52319923930E+00 -0.82946190414E+00  0.90007826392E+02  0.90000088901E+02 0.  0.
        -12    1    1    2    0    0  0.65655559527E+00 -0.52319923930E+00  0.82946190414E+00  0.11801736076E+01  0.00000000000E+00 0.  1.
         11    1    3    3    0    0 -0.26261836846E+02  0.28635859726E+02 -0.12559909963E+02  0.40834395738E+02  0.51100000000E-03 0. -1.
        -11    1    3    3    0    0  0.32439478575E+01  0.48530969467E+01  0.69144775028E+01  0.90490743766E+01  0.51100000000E-03 0.  1.
        -12    1    3    3    0    0  0.22361333393E+02 -0.32965757434E+02  0.48159705563E+01  0.40124356277E+02  0.00000000000E+00 0.  1.
</event>
<event>
 7    1  0.2593256E-015  0.9000775E+02  0.7816164E-02  0.1186339E+00
        -11   -1    0    0    0    0  0.00000000000E+00  0.00000000000E+00  0.45593999997E+02  0.45594000000E+02  0.51100000000E-03 0. -1.
         11   -1    0    0    0    0 -0.00000000000E+00 -0.00000000000E+00 -0.45593999997E+02  0.45594000000E+02  0.51100000000E-03 0.  1.
    9900012    2    1    2    0    0 -0.64318943285E+00 -0.97519157765E+00 -0.16821251102E+00  0.90007751421E+02  0.90000012940E+02 0.  0.
        -12    1    1    2    0    0  0.64318943285E+00  0.97519157765E+00  0.16821251102E+00  0.11802485791E+01  0.00000000000E+00 0.  1.
         11    1    3    3    0    0  0.14789958942E+02  0.37464483887E+02 -0.27485337106E+01  0.40371832708E+02  0.51100000000E-03 0. -1.
        -11    1    3    3    0    0 -0.11405339876E+02 -0.54999603860E+00 -0.31474782056E+00  0.11422930438E+02  0.51100000000E-03 0.  1.
        -12    1    3    3    0    0 -0.40278084992E+01 -0.37889679426E+02  0.28950690202E+01  0.38212988275E+02  0.00000000000E+00 0.  1.
</event>
<event>
 7    1  0.2593256E-015  0.9000672E+02  0.7816164E-02  0.1186341E+00
        -11   -1    0    0    0    0  0.00000000000E+00  0.00000000000E+00  0.45593999997E+02  0.45594000000E+02  0.51100000000E-03 0.  1.
         11   -1    0    0    0    0 -0.00000000000E+00 -0.00000000000E+00 -0.45593999997E+02  0.45594000000E+02  0.51100000000E-03 0. -1.
    9900012    2    1    2    0    0 -0.79388655124E+00  0.63244357934E+00 -0.60429739617E+00  0.90006722691E+02  0.89998970625E+02 0.  0.
        -12    1    1    2    0    0  0.79388655124E+00 -0.63244357934E+00  0.60429739617E+00  0.11812773088E+01  0.00000000000E+00 0.  1.
         11    1    3    3    0    0  0.65806879128E+01 -0.33919438202E+01 -0.55922912196E+01  0.92781710283E+01  0.51100000000E-03 0. -1.
        -11    1    3    3    0    0  0.14176498245E+02 -0.18160506315E+01  0.38156083547E+02  0.40745034719E+02  0.51100000000E-03 0.  1.
         12    1    3    3    0    0 -0.21551072709E+02  0.58404380310E+01 -0.33168089723E+02  0.39983516944E+02  0.00000000000E+00 0. -1.
</event>
<event>
 7    1  0.2593256E-015  0.9000772E+02  0.7816164E-02  0.1186339E+00
        -11   -1    0    0    0    0  0.00000000000E+00  0.00000000000E+00  0.45593999997E+02  0.45594000000E+02  0.51100000000E-03 0.  1.
         11   -1    0    0    0    0 -0.00000000000E+00 -0.00000000000E+00 -0.45593999997E+02  0.45594000000E+02  0.51100000000E-03 0. -1.
    9900012    2    1    2    0    0 -0.39277231971E+00  0.58490725080E-01 -0.11114762610E+01  0.90007715823E+02  0.89999976872E+02 0.  0.
        -12    1    1    2    0    0  0.39277231971E+00 -0.58490725080E-01  0.11114762610E+01  0.11802841771E+01  0.00000000000E+00 0.  1.
         11    1    3    3    0    0  0.83994928666E+01  0.23251919349E+02 -0.32366115883E+01  0.24933489300E+02  0.51100000000E-03 0. -1.
        -11    1    3    3    0    0  0.20919845252E+02 -0.14133616133E+02  0.17197865841E+02  0.30547759658E+02  0.51100000000E-03 0.  1.
         12    1    3    3    0    0 -0.29712110438E+02 -0.90598124909E+01 -0.15072730514E+02  0.34526466865E+02  0.00000000000E+00 0. -1.
</event>
<event>
 7    1  0.3751022E-015  0.9000764E+02  0.7816164E-02  0.1186339E+00
        -11   -1    0    0    0    0  0.00000000000E+00  0.00000000000E+00  0.45593999997E+02  0.45594000000E+02  0.51100000000E-03 0.  1.
         11   -1    0    0    0    0 -0.00000000000E+00 -0.00000000000E+00 -0.45593999997E+02  0.45594000000E+02  0.51100000000E-03 0. -1.
    9900012    2    1    2    0    0  0.23845602973E+00  0.11390916943E+01 -0.19712859108E+00  0.90007639526E+02  0.89999899568E+02 0.  0.
        -12    1    1    2    0    0 -0.23845602973E+00 -0.11390916943E+01  0.19712859108E+00  0.11803604736E+01  0.00000000000E+00 0.  1.
         11    1    3    3    0    0  0.28182201432E+01  0.19087941700E+02 -0.31320099630E+02  0.36786417659E+02  0.51100000000E-03 0. -1.
        -11    1    3    3    0    0 -0.49028132163E+01  0.46874175137E+00 -0.82971682838E+01  0.96488495716E+01  0.51100000000E-03 0.  1.
        -12    1    3    3    0    0  0.23230491028E+01 -0.18417591757E+02  0.39420139322E+02  0.43572372296E+02  0.00000000000E+00 0.  1.
</event>
<event>
 7    1  0.2593256E-015  0.9000772E+02  0.7816164E-02  0.1186339E+00
        -11   -1    0    0    0    0  0.00000000000E+00  0.00000000000E+00  0.45593999997E+02  0.45594000000E+02  0.51100000000E-03 0.  1.
         11   -1    0    0    0    0 -0.00000000000E+00 -0.00000000000E+00 -0.45593999997E+02  0.45594000000E+02  0.51100000000E-03 0. -1.
    9900012    2    1    2    0    0 -0.52839875635E+00 -0.96776562469E+00 -0.42104336010E+00  0.90007723312E+02  0.89999984459E+02 0.  0.
        -12    1    1    2    0    0  0.52839875635E+00  0.96776562469E+00  0.42104336010E+00  0.11802766884E+01  0.00000000000E+00 0.  1.
         11    1    3    3    0    0  0.20489177746E+02  0.27342486171E+02  0.16250774975E+02  0.37835243389E+02  0.51100000000E-03 0. -1.
        -11    1    3    3    0    0  0.45033899950E+01 -0.39963024421E+01  0.73613909602E+01  0.95100489896E+01  0.51100000000E-03 0.  1.
        -12    1    3    3    0    0 -0.25520966498E+02 -0.24313949354E+02 -0.24033209295E+02  0.42662430933E+02  0.00000000000E+00 0.  1.
</event>
<event>
 7    1  0.2593256E-015  0.9000770E+02  0.7816164E-02  0.1186339E+00
        -11   -1    0    0    0    0  0.00000000000E+00  0.00000000000E+00  0.45593999997E+02  0.45594000000E+02  0.51100000000E-03 0.  1.
         11   -1    0    0    0    0 -0.00000000000E+00 -0.00000000000E+00 -0.45593999997E+02  0.45594000000E+02  0.51100000000E-03 0. -1.
    9900012    2    1    2    0    0 -0.11732753246E+01  0.25337204264E-01  0.12606144328E+00  0.90007699848E+02  0.89999960686E+02 0.  0.
        -12    1    1    2    0    0  0.11732753246E+01 -0.25337204264E-01 -0.12606144328E+00  0.11803001520E+01  0.00000000000E+00 0.  1.
         11    1    3    3    0    0  0.42029803905E+01 -0.62827574623E+01  0.54225838617E+01  0.93028222326E+01  0.51100000000E-03 0. -1.
        -11    1    3    3    0    0 -0.22486209366E+02 -0.30757516313E+02 -0.10574948706E+02  0.39540915035E+02  0.51100000000E-03 0.  1.
         12    1    3    3    0    0  0.17109953651E+02  0.37065610980E+02  0.52784262880E+01  0.41163962580E+02  0.00000000000E+00 0. -1.
</event>
<event>
 7    1  0.2593256E-015  0.9000774E+02  0.7816164E-02  0.1186339E+00
        -11   -1    0    0    0    0  0.00000000000E+00  0.00000000000E+00  0.45593999997E+02  0.45594000000E+02  0.51100000000E-03 0. -1.
         11   -1    0    0    0    0 -0.00000000000E+00 -0.00000000000E+00 -0.45593999997E+02  0.45594000000E+02  0.51100000000E-03 0.  1.
    9900012    2    1    2    0    0 -0.70152887451E+00 -0.58049872032E+00  0.75092337319E+00  0.90007742639E+02  0.90000004042E+02 0.  0.
        -12    1    1    2    0    0  0.70152887451E+00  0.58049872032E+00 -0.75092337319E+00  0.11802573611E+01  0.00000000000E+00 0.  1.
         11    1    3    3    0    0  0.82042819596E+00  0.91666007306E+01 -0.27256648400E+01  0.95983811374E+01  0.51100000000E-03 0. -1.
        -11    1    3    3    0    0  0.33179368117E+02 -0.20676162273E+02  0.15554707854E+02  0.42075207565E+02  0.51100000000E-03 0.  1.
         12    1    3    3    0    0 -0.34701325187E+02  0.10929062822E+02 -0.12078119641E+02  0.38334153936E+02  0.00000000000E+00 0. -1.
</event>
<event>
 7    1  0.2593256E-015  0.9000774E+02  0.7816164E-02  0.1186339E+00
        -11   -1    0    0    0    0  0.00000000000E+00  0.00000000000E+00  0.45593999997E+02  0.45594000000E+02  0.51100000000E-03 0.  1.
         11   -1    0    0    0    0 -0.00000000000E+00 -0.00000000000E+00 -0.45593999997E+02  0.45594000000E+02  0.51100000000E-03 0. -1.
    9900012    2    1    2    0    0 -0.59374461803E+00 -0.67563055968E+00 -0.76420184376E+00  0.90007739951E+02  0.90000001319E+02 0.  0.
        -12    1    1    2    0    0  0.59374461803E+00  0.67563055968E+00  0.76420184376E+00  0.11802600487E+01  0.00000000000E+00 0.  1.
         11    1    3    3    0    0 -0.24044518936E+02 -0.24049132226E+01 -0.27363233114E+02  0.36505739620E+02  0.51100000000E-03 0. -1.
        -11    1    3    3    0    0 -0.94486460358E+01 -0.24873806022E+01 -0.16808767888E+01  0.99140970950E+01  0.51100000000E-03 0.  1.
        -12    1    3    3    0    0  0.32899420354E+02  0.42166632651E+01  0.28279908059E+02  0.43587903236E+02  0.00000000000E+00 0.  1.
</event>
<event>
 7    1  0.2593256E-015  0.9000798E+02  0.7816164E-02  0.1186339E+00
        -11   -1    0    0    0    0  0.00000000000E+00  0.00000000000E+00  0.45593999997E+02  0.45594000000E+02  0.51100000000E-03 0.  1.
         11   -1    0    0    0    0 -0.00000000000E+00 -0.00000000000E+00 -0.45593999997E+02  0.45594000000E+02  0.51100000000E-03 0. -1.
    9900012    2    1    2    0    0 -0.46844519535E+00  0.43198966285E+00 -0.99317151494E+00  0.90007980666E+02  0.90000245211E+02 0.  0.
        -12    1    1    2    0    0  0.46844519535E+00 -0.43198966285E+00  0.99317151494E+00  0.11800193337E+01  0.00000000000E+00 0.  1.
         11    1    3    3    0    0  0.22869069123E+02  0.23142854045E+01 -0.28462714702E+02  0.36585193288E+02  0.51100000000E-03 0. -1.
        -11    1    3    3    0    0  0.55953675181E+01 -0.83592626912E+01 -0.34027400940E+01  0.10619041897E+02  0.51100000000E-03 0.  1.
        -12    1    3    3    0    0 -0.28932881836E+02  0.64769669495E+01  0.30872283281E+02  0.42803745481E+02  0.00000000000E+00 0.  1.
</event>
<event>
 7    1  0.2593256E-015  0.9000770E+02  0.7816164E-02  0.1186339E+00
        -11   -1    0    0    0    0  0.00000000000E+00  0.00000000000E+00  0.45593999997E+02  0.45594000000E+02  0.51100000000E-03 0.  1.
         11   -1    0    0    0    0 -0.00000000000E+00 -0.00000000000E+00 -0.45593999997E+02  0.45594000000E+02  0.51100000000E-03 0. -1.
    9900012    2    1    2    0    0 -0.10228476344E+01  0.57269923897E+00 -0.13748275990E+00  0.90007702067E+02  0.89999962934E+02 0.  0.
        -12    1    1    2    0    0  0.10228476344E+01 -0.57269923897E+00  0.13748275990E+00  0.11802979331E+01  0.00000000000E+00 0.  1.
         11    1    3    3    0    0 -0.28985595325E+02  0.17027162943E+02 -0.78276209774E+01  0.34516092836E+02  0.51100000000E-03 0. -1.
        -11    1    3    3    0    0 -0.97515869913E+01  0.56720996088E+00  0.10091056857E+02  0.14044379828E+02  0.51100000000E-03 0.  1.
        -12    1    3    3    0    0  0.37714334682E+02 -0.17021673665E+02 -0.24009186398E+01  0.41447229403E+02  0.00000000000E+00 0.  1.
</event>
<event>
 7    1  0.2593256E-015  0.9000801E+02  0.7816164E-02  0.1186338E+00
        -11   -1    0    0    0    0  0.00000000000E+00  0.00000000000E+00  0.45593999997E+02  0.45594000000E+02  0.51100000000E-03 0. -1.
         11   -1    0    0    0    0 -0.00000000000E+00 -0.00000000000E+00 -0.45593999997E+02  0.45594000000E+02  0.51100000000E-03 0.  1.
    9900012    2    1    2    0    0  0.13563806586E+00  0.31275439794E+00  0.11296693105E+01  0.90008014513E+02  0.90000279504E+02 0.  0.
        -12    1    1    2    0    0 -0.13563806586E+00 -0.31275439794E+00 -0.11296693105E+01  0.11799854869E+01  0.00000000000E+00 0.  1.
         11    1    3    3    0    0 -0.21061106332E+01 -0.13013954582E+01  0.90414866967E+01  0.93743167264E+01  0.51100000000E-03 0. -1.
        -11    1    3    3    0    0  0.93883408978E+01 -0.18163331401E+02  0.30572052689E+02  0.36779042379E+02  0.51100000000E-03 0.  1.
         12    1    3    3    0    0 -0.71465921987E+01  0.19777481258E+02 -0.38483870076E+02  0.43854655408E+02  0.00000000000E+00 0. -1.
</event>
<event>
 7    1  0.2593256E-015  0.9000780E+02  0.7816164E-02  0.1186339E+00
        -11   -1    0    0    0    0  0.00000000000E+00  0.00000000000E+00  0.45593999997E+02  0.45594000000E+02  0.51100000000E-03 0. -1.
         11   -1    0    0    0    0 -0.00000000000E+00 -0.00000000000E+00 -0.45593999997E+02  0.45594000000E+02  0.51100000000E-03 0.  1.
    9900012    2    1    2    0    0  0.77007645575E+00  0.56424455130E+00  0.69389673238E+00  0.90007795638E+02  0.90000057740E+02 0.  0.
        -12    1    1    2    0    0 -0.77007645575E+00 -0.56424455130E+00 -0.69389673238E+00  0.11802043622E+01  0.00000000000E+00 0.  1.
         11    1    3    3    0    0 -0.34030006078E+02  0.80474711410E+01 -0.12329117624E+02  0.37078433719E+02  0.51100000000E-03 0. -1.
        -11    1    3    3    0    0 -0.48090122362E+01  0.60265054145E+01  0.74302469828E+01  0.10707657852E+02  0.51100000000E-03 0.  1.
        -12    1    3    3    0    0  0.39609094770E+02 -0.13509732004E+02  0.55927673731E+01  0.42221704066E+02  0.00000000000E+00 0.  1.
</event>
<event>
 7    1  0.2593256E-015  0.9000786E+02  0.7816164E-02  0.1186339E+00
        -11   -1    0    0    0    0  0.00000000000E+00  0.00000000000E+00  0.45593999997E+02  0.45594000000E+02  0.51100000000E-03 0.  1.
         11   -1    0    0    0    0 -0.00000000000E+00 -0.00000000000E+00 -0.45593999997E+02  0.45594000000E+02  0.51100000000E-03 0. -1.
    9900012    2    1    2    0    0  0.80915853739E+00 -0.73258961993E+00  0.44866005140E+00  0.90007864020E+02  0.90000127025E+02 0.  0.
        -12    1    1    2    0    0 -0.80915853739E+00  0.73258961993E+00 -0.44866005140E+00  0.11801359801E+01  0.00000000000E+00 0.  1.
         11    1    3    3    0    0 -0.29631992180E+01 -0.40216687567E+00  0.90249634366E+01  0.95074840570E+01  0.51100000000E-03 0. -1.
        -11    1    3    3    0    0 -0.33619546492E+02 -0.90009181648E+01  0.12168094752E+02  0.36869404176E+02  0.51100000000E-03 0.  1.
         12    1    3    3    0    0  0.37391904247E+02  0.86704954205E+01 -0.20744398138E+02  0.43630975787E+02  0.00000000000E+00 0. -1.
</event>
<event>
 7    1  0.2593256E-015  0.9000773E+02  0.7816164E-02  0.1186339E+00
        -11   -1    0    0    0    0  0.00000000000E+00  0.00000000000E+00  0.45593999997E+02  0.45594000000E+02  0.51100000000E-03 0. -1.
         11   -1    0    0    0    0 -0.00000000000E+00 -0.00000000000E+00 -0.45593999997E+02  0.45594000000E+02  0.51100000000E-03 0.  1.
    9900012    2    1    2    0    0  0.18563859763E+00 -0.11013047787E+01  0.38172368940E+00  0.90007725930E+02  0.89999987113E+02 0.  0.
        -12    1    1    2    0    0 -0.18563859763E+00  0.11013047787E+01 -0.38172368940E+00  0.11802740696E+01  0.00000000000E+00 0.  1.
         11    1    3    3    0    0 -0.14684451839E+02  0.18835212111E+01 -0.72579000626E+01  0.16488113644E+02  0.51100000000E-03 0. -1.
        -11    1    3    3    0    0  0.46292595554E+01  0.88890062214E+01 -0.30594997932E+02  0.32194694817E+02  0.51100000000E-03 0.  1.
         12    1    3    3    0    0  0.10240830881E+02 -0.11873832211E+02  0.38234621684E+02  0.41324917469E+02  0.00000000000E+00 0. -1.
</event>
<event>
 7    1  0.2593256E-015  0.9000777E+02  0.7816164E-02  0.1186339E+00
        -11   -1    0    0    0    0  0.00000000000E+00  0.00000000000E+00  0.45593999997E+02  0.45594000000E+02  0.51100000000E-03 0. -1.
         11   -1    0    0    0    0 -0.00000000000E+00 -0.00000000000E+00 -0.45593999997E+02  0.45594000000E+02  0.51100000000E-03 0.  1.
    9900012    2    1    2    0    0  0.54306147271E+00 -0.49235175300E-01  0.10467063715E+01  0.90007773711E+02  0.90000035524E+02 0.  0.
        -12    1    1    2    0    0 -0.54306147271E+00  0.49235175300E-01 -0.10467063715E+01  0.11802262892E+01  0.00000000000E+00 0.  1.
         11    1    3    3    0    0 -0.84706936757E+01 -0.18987011938E+02 -0.32079462579E+02  0.38227623432E+02  0.51100000000E-03 0. -1.
        -11    1    3    3    0    0 -0.26474395554E+01  0.37044958922E+01 -0.63941157126E+01  0.78496459807E+01  0.51100000000E-03 0.  1.
        -12    1    3    3    0    0  0.11661194704E+02  0.15233280870E+02  0.39520284663E+02  0.43930504298E+02  0.00000000000E+00 0.  1.
</event>
<event>
 7    1  0.2593256E-015  0.9000781E+02  0.7816164E-02  0.1186339E+00
        -11   -1    0    0    0    0  0.00000000000E+00  0.00000000000E+00  0.45593999997E+02  0.45594000000E+02  0.51100000000E-03 0.  1.
         11   -1    0    0    0    0 -0.00000000000E+00 -0.00000000000E+00 -0.45593999997E+02  0.45594000000E+02  0.51100000000E-03 0. -1.
    9900012    2    1    2    0    0 -0.97589936176E+00  0.84879018720E-01 -0.65823167048E+00  0.90007808090E+02  0.90000070357E+02 0.  0.
        -12    1    1    2    0    0  0.97589936176E+00 -0.84879018720E-01  0.65823167048E+00  0.11801919099E+01  0.00000000000E+00 0.  1.
         11    1    3    3    0    0 -0.82178594482E+01 -0.29019461471E+01 -0.62468880655E+01  0.10722784905E+02  0.51100000000E-03 0. -1.
        -11    1    3    3    0    0 -0.91292796835E+01  0.76128025967E+01  0.39551747182E+02  0.41299385181E+02  0.51100000000E-03 0.  1.
         12    1    3    3    0    0  0.16371239770E+02 -0.46259774309E+01 -0.33963090787E+02  0.37985638004E+02  0.00000000000E+00 0. -1.
</event>
<event>
 7    1  0.2593256E-015  0.9000771E+02  0.7816164E-02  0.1186339E+00
        -11   -1    0    0    0    0  0.00000000000E+00  0.00000000000E+00  0.45593999997E+02  0.45594000000E+02  0.51100000000E-03 0.  1.
         11   -1    0    0    0    0 -0.00000000000E+00 -0.00000000000E+00 -0.45593999997E+02  0.45594000000E+02  0.51100000000E-03 0. -1.
    9900012    2    1    2    0    0 -0.53845919765E+00 -0.97502459274E+00 -0.39048601705E+00  0.90007707412E+02  0.89999968350E+02 0.  0.
        -12    1    1    2    0    0  0.53845919765E+00  0.97502459274E+00  0.39048601705E+00  0.11802925881E+01  0.00000000000E+00 0.  1.
         11    1    3    3    0    0 -0.71121915068E+01  0.62128640445E+01  0.44624694379E+01  0.10444930895E+02  0.51100000000E-03 0. -1.
        -11    1    3    3    0    0 -0.17137315566E+02 -0.14775531911E+02  0.29474256938E+02  0.37158252790E+02  0.51100000000E-03 0.  1.
         12    1    3    3    0    0  0.23711047875E+02  0.75876432742E+01 -0.34327212393E+02  0.42404523727E+02  0.00000000000E+00 0. -1.
</event>
<event>
 7    1  0.2593256E-015  0.9000774E+02  0.7816164E-02  0.1186339E+00
        -11   -1    0    0    0    0  0.00000000000E+00  0.00000000000E+00  0.45593999997E+02  0.45594000000E+02  0.51100000000E-03 0. -1.
         11   -1    0    0    0    0 -0.00000000000E+00 -0.00000000000E+00 -0.45593999997E+02  0.45594000000E+02  0.51100000000E-03 0.  1.
    9900012    2    1    2    0    0  0.60319274963E+00 -0.60721333351E+00  0.81268761132E+00  0.90007741266E+02  0.90000002651E+02 0.  0.
        -12    1    1    2    0    0 -0.60319274963E+00  0.60721333351E+00 -0.81268761132E+00  0.11802587340E+01  0.00000000000E+00 0.  1.
         11    1    3    3    0    0 -0.37151702748E+01 -0.58949630580E+01 -0.42950222751E+01  0.81853708670E+01  0.51100000000E-03 0. -1.
        -11    1    3    3    0    0 -0.19410396097E+02 -0.74101752137E+01 -0.30674721178E+02  0.37048788009E+02  0.51100000000E-03 0.  1.
         12    1    3    3    0    0  0.23728759122E+02  0.12697924938E+02  0.35782431064E+02  0.44773582390E+02  0.00000000000E+00 0. -1.
</event>
<event>
 7    1  0.2593256E-015  0.9000771E+02  0.7816164E-02  0.1186339E+00
        -11   -1    0    0    0    0  0.00000000000E+00  0.00000000000E+00  0.45593999997E+02  0.45594000000E+02  0.51100000000E-03 0. -1.
         11   -1    0    0    0    0 -0.00000000000E+00 -0.00000000000E+00 -0.45593999997E+02  0.45594000000E+02  0.51100000000E-03 0.  1.
    9900012    2    1    2    0    0 -0.59961233937E+00  0.96555326680E+00  0.31820400442E+00  0.90007711113E+02  0.89999972100E+02 0.  0.
        -12    1    1    2    0    0  0.59961233937E+00 -0.96555326680E+00 -0.31820400442E+00  0.11802888871E+01  0.00000000000E+00 0.  1.
         11    1    3    3    0    0  0.14614658819E+02  0.52696635269E+00 -0.13863392474E+02  0.20150920503E+02  0.51100000000E-03 0. -1.
        -11    1    3    3    0    0  0.29570250436E+01  0.23660972132E+02 -0.15162004214E+02  0.28257246352E+02  0.51100000000E-03 0.  1.
         12    1    3    3    0    0 -0.18171296202E+02 -0.23222385218E+02  0.29343600693E+02  0.41599544258E+02  0.00000000000E+00 0. -1.
</event>
<event>
 7    1  0.2593256E-015  0.9000775E+02  0.7816164E-02  0.1186339E+00
        -11   -1    0    0    0    0  0.00000000000E+00  0.00000000000E+00  0.45593999997E+02  0.45594000000E+02  0.51100000000E-03 0.  1.
         11   -1    0    0    0    0 -0.00000000000E+00 -0.00000000000E+00 -0.45593999997E+02  0.45594000000E+02  0.51100000000E-03 0. -1.
    9900012    2    1    2    0    0 -0.71779699481E-02 -0.91756333932E+00 -0.74230876435E+00  0.90007747355E+02  0.90000008820E+02 0.  0.
        -12    1    1    2    0    0  0.71779699481E-02  0.91756333932E+00  0.74230876435E+00  0.11802526452E+01  0.00000000000E+00 0.  1.
         11    1    3    3    0    0  0.70128673919E+01  0.35438572558E+02 -0.80734241948E+01  0.37016927378E+02  0.51100000000E-03 0. -1.
        -11    1    3    3    0    0  0.10391959732E+02  0.17932064209E+01  0.13683524478E+01  0.10633945882E+02  0.51100000000E-03 0.  1.
        -12    1    3    3    0    0 -0.17412005094E+02 -0.38149342318E+02  0.59627629826E+01  0.42356874095E+02  0.00000000000E+00 0.  1.
</event>
<event>
 7    1  0.2593256E-015  0.9000777E+02  0.7816164E-02  0.1186339E+00
        -11   -1    0    0    0    0  0.00000000000E+00  0.00000000000E+00  0.45593999997E+02  0.45594000000E+02  0.51100000000E-03 0. -1.
         11   -1    0    0    0    0 -0.00000000000E+00 -0.00000000000E+00 -0.45593999997E+02  0.45594000000E+02  0.51100000000E-03 0.  1.
    9900012    2    1    2    0    0 -0.29827555179E+00  0.88583263334E+00 -0.72059974612E+00  0.90007774702E+02  0.90000036528E+02 0.  0.
        -12    1    1    2    0    0  0.29827555179E+00 -0.88583263334E+00  0.72059974612E+00  0.11802252976E+01  0.00000000000E+00 0.  1.
         11    1    3    3    0    0 -0.70701168950E+01 -0.21180279352E+01 -0.78293276866E+00  0.74219659946E+01  0.51100000000E-03 0. -1.
        -11    1    3    3    0    0 -0.28644851317E+02  0.22882715074E+02  0.14579427359E+02  0.39455111943E+02  0.51100000000E-03 0.  1.
         12    1    3    3    0    0  0.35416692660E+02 -0.19878854505E+02 -0.14517094336E+02  0.43130696764E+02  0.00000000000E+00 0. -1.
</event>
<event>
 7    1  0.2593256E-015  0.9000762E+02  0.7816164E-02  0.1186339E+00
        -11   -1    0    0    0    0  0.00000000000E+00  0.00000000000E+00  0.45593999997E+02  0.45594000000E+02  0.51100000000E-03 0. -1.
         11   -1    0    0    0    0 -0.00000000000E+00 -0.00000000000E+00 -0.45593999997E+02  0.45594000000E+02  0.51100000000E-03 0.  1.
    9900012    2    1    2    0    0 -0.62554080489E+00 -0.78858562916E+00  0.61653849578E+00  0.90007623658E+02  0.89999883490E+02 0.  0.
        -12    1    1    2    0    0  0.62554080489E+00  0.78858562916E+00 -0.61653849578E+00  0.11803763425E+01  0.00000000000E+00 0.  1.
         11    1    3    3    0    0 -0.45260712266E+01 -0.80750769954E+01  0.22398653061E+01  0.95241370254E+01  0.51100000000E-03 0. -1.
        -11    1    3    3    0    0  0.21724364695E+01 -0.10358151543E+02 -0.38305988793E+02  0.39741157020E+02  0.51100000000E-03 0.  1.
         12    1    3    3    0    0  0.17280939522E+01  0.17644642909E+02  0.36682661983E+02  0.40742329612E+02  0.00000000000E+00 0. -1.
</event>
<event>
 7    1  0.2593256E-015  0.9000707E+02  0.7816164E-02  0.1186340E+00
        -11   -1    0    0    0    0  0.00000000000E+00  0.00000000000E+00  0.45593999997E+02  0.45594000000E+02  0.51100000000E-03 0.  1.
         11   -1    0    0    0    0 -0.00000000000E+00 -0.00000000000E+00 -0.45593999997E+02  0.45594000000E+02  0.51100000000E-03 0. -1.
    9900012    2    1    2    0    0 -0.63437592770E+00 -0.32194435818E-01 -0.99555726332E+00  0.90007066656E+02  0.89999319133E+02 0.  0.
        -12    1    1    2    0    0  0.63437592770E+00  0.32194435818E-01  0.99555726332E+00  0.11809333444E+01  0.00000000000E+00 0.  1.
         11    1    3    3    0    0 -0.41849244471E+01 -0.87136629773E+01 -0.21339419973E+01  0.98992537001E+01  0.51100000000E-03 0. -1.
        -11    1    3    3    0    0  0.17177308533E+02  0.77243049541E+01  0.37117619459E+02  0.41622619932E+02  0.51100000000E-03 0.  1.
         12    1    3    3    0    0 -0.13626760014E+02  0.95716358739E+00 -0.35979234725E+02  0.38485193023E+02  0.00000000000E+00 0. -1.
</event>
<event>
 7    1  0.2593256E-015  0.9000774E+02  0.7816164E-02  0.1186339E+00
        -11   -1    0    0    0    0  0.00000000000E+00  0.00000000000E+00  0.45593999997E+02  0.45594000000E+02  0.51100000000E-03 0. -1.
         11   -1    0    0    0    0 -0.00000000000E+00 -0.00000000000E+00 -0.45593999997E+02  0.45594000000E+02  0.51100000000E-03 0.  1.
    9900012    2    1    2    0    0  0.57540235933E+00  0.97092293486E+00  0.34531598949E+00  0.90007736320E+02  0.89999997640E+02 0.  0.
        -12    1    1    2    0    0 -0.57540235933E+00 -0.97092293486E+00 -0.34531598949E+00  0.11802636795E+01  0.00000000000E+00 0.  1.
         11    1    3    3    0    0 -0.13629363788E+01  0.17013038869E+01 -0.79292996338E+00  0.23196483950E+01  0.51100000000E-03 0. -1.
        -11    1    3    3    0    0 -0.41101756041E+02 -0.11469362362E+02  0.58822066077E+01  0.43075526433E+02  0.51100000000E-03 0.  1.
         12    1    3    3    0    0  0.43040094779E+02  0.10738981410E+02 -0.47439606548E+01  0.44612561493E+02  0.00000000000E+00 0. -1.
</event>
<event>
 7    1  0.2593256E-015  0.9000770E+02  0.7816164E-02  0.1186339E+00
        -11   -1    0    0    0    0  0.00000000000E+00  0.00000000000E+00  0.45593999997E+02  0.45594000000E+02  0.51100000000E-03 0. -1.
         11   -1    0    0    0    0 -0.00000000000E+00 -0.00000000000E+00 -0.45593999997E+02  0.45594000000E+02  0.51100000000E-03 0.  1.
    9900012    2    1    2    0    0 -0.53795573737E+00 -0.10268735596E+01  0.22191829431E+00  0.90007697745E+02  0.89999958556E+02 0.  0.
        -12    1    1    2    0    0  0.53795573737E+00  0.10268735596E+01 -0.22191829431E+00  0.11803022546E+01  0.00000000000E+00 0.  1.
         11    1    3    3    0    0  0.10881039798E+02 -0.19177440908E+01  0.42979690807E+00  0.11057101569E+02  0.51100000000E-03 0. -1.
        -11    1    3    3    0    0  0.27657681114E+02  0.25462853710E+01 -0.20846415696E+02  0.34727567456E+02  0.51100000000E-03 0.  1.
         12    1    3    3    0    0 -0.39076676649E+02 -0.16554148398E+01  0.20638537083E+02  0.44223028720E+02  0.00000000000E+00 0. -1.
</event>
<event>
 7    1  0.2593256E-015  0.9000772E+02  0.7816164E-02  0.1186339E+00
        -11   -1    0    0    0    0  0.00000000000E+00  0.00000000000E+00  0.45593999997E+02  0.45594000000E+02  0.51100000000E-03 0.  1.
         11   -1    0    0    0    0 -0.00000000000E+00 -0.00000000000E+00 -0.45593999997E+02  0.45594000000E+02  0.51100000000E-03 0. -1.
    9900012    2    1    2    0    0 -0.22476059400E+00 -0.69203181993E+00 -0.92931389163E+00  0.90007724747E+02  0.89999985913E+02 0.  0.
        -12    1    1    2    0    0  0.22476059400E+00  0.69203181993E+00  0.92931389163E+00  0.11802752533E+01  0.00000000000E+00 0.  1.
         11    1    3    3    0    0 -0.30764090266E+02  0.22884165866E+02 -0.11945172250E+02  0.40159699172E+02  0.51100000000E-03 0. -1.
        -11    1    3    3    0    0  0.86910701380E+00  0.33688253859E+01  0.90779731339E+01  0.97218273983E+01  0.51100000000E-03 0.  1.
        -12    1    3    3    0    0  0.29670222658E+02 -0.26945023072E+02  0.19378852241E+01  0.40126198176E+02  0.00000000000E+00 0.  1.
</event>
<event>
 7    1  0.2593256E-015  0.9000793E+02  0.7816164E-02  0.1186339E+00
        -11   -1    0    0    0    0  0.00000000000E+00  0.00000000000E+00  0.45593999997E+02  0.45594000000E+02  0.51100000000E-03 0.  1.
         11   -1    0    0    0    0 -0.00000000000E+00 -0.00000000000E+00 -0.45593999997E+02  0.45594000000E+02  0.51100000000E-03 0. -1.
    9900012    2    1    2    0    0  0.76632071457E+00 -0.86865053843E+00 -0.22533452082E+00  0.90007925069E+02  0.90000188880E+02 0.  0.
        -12    1    1    2    0    0 -0.76632071457E+00  0.86865053843E+00  0.22533452082E+00  0.11800749306E+01  0.00000000000E+00 0.  1.
         11    1    3    3    0    0  0.55382718244E+00 -0.20788468362E+02 -0.32420395276E+02  0.38516868662E+02  0.51100000000E-03 0. -1.
        -11    1    3    3    0    0 -0.11914899620E+01 -0.96942556268E+01  0.39270392865E+01  0.10527102085E+02  0.51100000000E-03 0.  1.
        -12    1    3    3    0    0  0.14039834942E+01  0.29614073451E+02  0.28268021469E+02  0.40963954323E+02  0.00000000000E+00 0.  1.
</event>
<event>
 7    1  0.2593256E-015  0.9000684E+02  0.7816164E-02  0.1186341E+00
        -11   -1    0    0    0    0  0.00000000000E+00  0.00000000000E+00  0.45593999997E+02  0.45594000000E+02  0.51100000000E-03 0.  1.
         11   -1    0    0    0    0 -0.00000000000E+00 -0.00000000000E+00 -0.45593999997E+02  0.45594000000E+02  0.51100000000E-03 0. -1.
    9900012    2    1    2    0    0  0.21460411329E+00 -0.92733425091E+00 -0.69938542810E+00  0.90006837981E+02  0.89999087438E+02 0.  0.
        -12    1    1    2    0    0 -0.21460411329E+00  0.92733425091E+00  0.69938542810E+00  0.11811620191E+01  0.00000000000E+00 0.  1.
         11    1    3    3    0    0  0.19232658980E+02  0.30541434730E+02  0.42084928993E+01  0.36337113528E+02  0.51100000000E-03 0. -1.
        -11    1    3    3    0    0 -0.47067799170E+00  0.89256292352E+01 -0.17579075094E+01  0.91092608970E+01  0.51100000000E-03 0.  1.
        -12    1    3    3    0    0 -0.18547376875E+02 -0.40394398216E+02 -0.31499708180E+01  0.44560463556E+02  0.00000000000E+00 0.  1.
</event>
<event>
 7    1  0.2593256E-015  0.9000768E+02  0.7816164E-02  0.1186339E+00
        -11   -1    0    0    0    0  0.00000000000E+00  0.00000000000E+00  0.45593999997E+02  0.45594000000E+02  0.51100000000E-03 0.  1.
         11   -1    0    0    0    0 -0.00000000000E+00 -0.00000000000E+00 -0.45593999997E+02  0.45594000000E+02  0.51100000000E-03 0. -1.
    9900012    2    1    2    0    0  0.52116939616E+00  0.36788870542E+00 -0.99307430897E+00  0.90007679610E+02  0.89999940181E+02 0.  0.
        -12    1    1    2    0    0 -0.52116939616E+00 -0.36788870542E+00  0.99307430897E+00  0.11803203896E+01  0.00000000000E+00 0.  1.
         11    1    3    3    0    0 -0.14973579486E+02  0.32714395963E+02  0.20966161673E+01  0.36039361613E+02  0.51100000000E-03 0. -1.
        -11    1    3    3    0    0 -0.60328817530E+01  0.60121406641E+01 -0.51150861986E+01  0.99350694356E+01  0.51100000000E-03 0.  1.
        -12    1    3    3    0    0  0.21527630635E+02 -0.38358647921E+02  0.20253957223E+01  0.44033248562E+02  0.00000000000E+00 0.  1.
</event>
<event>
 7    1  0.2593256E-015  0.9000780E+02  0.7816164E-02  0.1186339E+00
        -11   -1    0    0    0    0  0.00000000000E+00  0.00000000000E+00  0.45593999997E+02  0.45594000000E+02  0.51100000000E-03 0. -1.
         11   -1    0    0    0    0 -0.00000000000E+00 -0.00000000000E+00 -0.45593999997E+02  0.45594000000E+02  0.51100000000E-03 0.  1.
    9900012    2    1    2    0    0  0.38603650718E+00 -0.93106986912E+00  0.61397383657E+00  0.90007796984E+02  0.90000059105E+02 0.  0.
        -12    1    1    2    0    0 -0.38603650718E+00  0.93106986912E+00 -0.61397383657E+00  0.11802030156E+01  0.00000000000E+00 0.  1.
         11    1    3    3    0    0 -0.23318904716E+02 -0.37108606372E+01  0.33805640908E+02  0.41235459999E+02  0.51100000000E-03 0. -1.
        -11    1    3    3    0    0 -0.40459428155E+01  0.63215938783E+01 -0.47759848387E+01  0.88961920994E+01  0.51100000000E-03 0.  1.
        -12    1    3    3    0    0  0.27750884039E+02 -0.35418031103E+01 -0.28415682233E+02  0.39876144886E+02  0.00000000000E+00 0.  1.
</event>
<event>
 7    1  0.2593256E-015  0.9000770E+02  0.7816164E-02  0.1186339E+00
        -11   -1    0    0    0    0  0.00000000000E+00  0.00000000000E+00  0.45593999997E+02  0.45594000000E+02  0.51100000000E-03 0. -1.
         11   -1    0    0    0    0 -0.00000000000E+00 -0.00000000000E+00 -0.45593999997E+02  0.45594000000E+02  0.51100000000E-03 0.  1.
    9900012    2    1    2    0    0 -0.11698310565E+01 -0.15026571686E+00 -0.45014894237E-01  0.90007698841E+02  0.89999959665E+02 0.  0.
        -12    1    1    2    0    0  0.11698310565E+01  0.15026571686E+00  0.45014894237E-01  0.11803011595E+01  0.00000000000E+00 0.  1.
         11    1    3    3    0    0 -0.37850080612E+01  0.28477659682E+02  0.24774103683E+02  0.37934939047E+02  0.51100000000E-03 0. -1.
        -11    1    3    3    0    0 -0.10312836944E+02 -0.41730604793E+01  0.42835377969E+01  0.11921314354E+02  0.51100000000E-03 0.  1.
        -12    1    3    3    0    0  0.12928013949E+02 -0.24454864920E+02 -0.29102656374E+02  0.40151445440E+02  0.00000000000E+00 0.  1.
</event>
<event>
 7    1  0.2593256E-015  0.9000814E+02  0.7816164E-02  0.1186338E+00
        -11   -1    0    0    0    0  0.00000000000E+00  0.00000000000E+00  0.45593999997E+02  0.45594000000E+02  0.51100000000E-03 0. -1.
         11   -1    0    0    0    0 -0.00000000000E+00 -0.00000000000E+00 -0.45593999997E+02  0.45594000000E+02  0.51100000000E-03 0.  1.
    9900012    2    1    2    0    0 -0.94538779154E+00 -0.24509726285E+00  0.66200403588E+00  0.90008135564E+02  0.90000402152E+02 0.  0.
        -12    1    1    2    0    0  0.94538779154E+00  0.24509726285E+00 -0.66200403588E+00  0.11798644364E+01  0.00000000000E+00 0.  1.
         11    1    3    3    0    0 -0.21244850785E+01  0.55711960262E+01  0.80292927485E+01  0.10001060160E+02  0.51100000000E-03 0. -1.
        -11    1    3    3    0    0  0.37835629574E+02  0.53561016898E+01 -0.14786910532E+02  0.40974082221E+02  0.51100000000E-03 0.  1.
         12    1    3    3    0    0 -0.36656532287E+02 -0.11172394979E+02  0.74196218190E+01  0.39032993183E+02  0.00000000000E+00 0. -1.
</event>
<event>
 7    1  0.2593256E-015  0.9000788E+02  0.7816164E-02  0.1186339E+00
        -11   -1    0    0    0    0  0.00000000000E+00  0.00000000000E+00  0.45593999997E+02  0.45594000000E+02  0.51100000000E-03 0. -1.
         11   -1    0    0    0    0 -0.00000000000E+00 -0.00000000000E+00 -0.45593999997E+02  0.45594000000E+02  0.51100000000E-03 0.  1.
    9900012    2    1    2    0    0 -0.23153185952E+00 -0.11340762226E+01  0.23009876571E+00  0.90007880801E+02  0.90000144028E+02 0.  0.
        -12    1    1    2    0    0  0.23153185952E+00  0.11340762226E+01 -0.23009876571E+00  0.11801191985E+01  0.00000000000E+00 0.  1.
         11    1    3    3    0    0 -0.31426324011E+01 -0.28648665982E+01 -0.85077324744E+01  0.95113149012E+01  0.51100000000E-03 0. -1.
        -11    1    3    3    0    0 -0.16573701966E+02  0.14438117932E+02 -0.28864177414E+02  0.36280677837E+02  0.51100000000E-03 0.  1.
         12    1    3    3    0    0  0.19484802508E+02 -0.12707327556E+02  0.37602008654E+02  0.44215888063E+02  0.00000000000E+00 0. -1.
</event>
<event>
 7    1  0.2593256E-015  0.9000776E+02  0.7816164E-02  0.1186339E+00
        -11   -1    0    0    0    0  0.00000000000E+00  0.00000000000E+00  0.45593999997E+02  0.45594000000E+02  0.51100000000E-03 0. -1.
         11   -1    0    0    0    0 -0.00000000000E+00 -0.00000000000E+00 -0.45593999997E+02  0.45594000000E+02  0.51100000000E-03 0.  1.
    9900012    2    1    2    0    0  0.35496622518E+00 -0.11108099773E+01  0.18182738063E+00  0.90007762302E+02  0.90000023965E+02 0.  0.
        -12    1    1    2    0    0 -0.35496622518E+00  0.11108099773E+01 -0.18182738063E+00  0.11802376977E+01  0.00000000000E+00 0.  1.
         11    1    3    3    0    0  0.80050473115E+01 -0.10483863101E+02  0.52940775449E+01  0.14213353767E+02  0.51100000000E-03 0. -1.
        -11    1    3    3    0    0 -0.36421151350E+02 -0.13503331293E+02 -0.17413318622E+01  0.38882804150E+02  0.51100000000E-03 0.  1.
         12    1    3    3    0    0  0.28771070264E+02  0.22876384417E+02 -0.33709183020E+01  0.36911604385E+02  0.00000000000E+00 0. -1.
</event>
<event>
 7    1  0.2593256E-015  0.9000774E+02  0.7816164E-02  0.1186339E+00
        -11   -1    0    0    0    0  0.00000000000E+00  0.00000000000E+00  0.45593999997E+02  0.45594000000E+02  0.51100000000E-03 0. -1.
         11   -1    0    0    0    0 -0.00000000000E+00 -0.00000000000E+00 -0.45593999997E+02  0.45594000000E+02  0.51100000000E-03 0.  1.
    9900012    2    1    2    0    0 -0.11558017231E+01 -0.41771617820E-01 -0.23536049290E+00  0.90007738566E+02  0.89999999915E+02 0.  0.
        -12    1    1    2    0    0  0.11558017231E+01  0.41771617820E-01  0.23536049290E+00  0.11802614341E+01  0.00000000000E+00 0.  1.
         11    1    3    3    0    0 -0.13046246458E+02  0.14953412129E+01 -0.92639247855E+01  0.16070497649E+02  0.51100000000E-03 0. -1.
        -11    1    3    3    0    0  0.27309685167E+02 -0.11811472018E+02 -0.22543214438E+02  0.37329965077E+02  0.51100000000E-03 0.  1.
         12    1    3    3    0    0 -0.15419240432E+02  0.10274359187E+02  0.31571778731E+02  0.36607275840E+02  0.00000000000E+00 0. -1.
</event>
<event>
 7    1  0.2593256E-015  0.9000756E+02  0.7816164E-02  0.1186339E+00
        -11   -1    0    0    0    0  0.00000000000E+00  0.00000000000E+00  0.45593999997E+02  0.45594000000E+02  0.51100000000E-03 0.  1.
         11   -1    0    0    0    0 -0.00000000000E+00 -0.00000000000E+00 -0.45593999997E+02  0.45594000000E+02  0.51100000000E-03 0. -1.
    9900012    2    1    2    0    0 -0.19408114923E+00  0.73225556922E+00 -0.90530143865E+00  0.90007560927E+02  0.89999819931E+02 0.  0.
        -12    1    1    2    0    0  0.19408114923E+00 -0.73225556922E+00  0.90530143865E+00  0.11804390734E+01  0.00000000000E+00 0.  1.
         11    1    3    3    0    0 -0.22672789927E+02  0.67715510322E+01 -0.37530534694E+02  0.44367221472E+02  0.51100000000E-03 0. -1.
        -11    1    3    3    0    0  0.66065821657E+01 -0.59542943856E+01  0.48715248586E+01  0.10140626423E+02  0.51100000000E-03 0.  1.
        -12    1    3    3    0    0  0.15872126612E+02 -0.85001077380E-01  0.31753708397E+02  0.35499713032E+02  0.00000000000E+00 0.  1.
</event>
<event>
 7    1  0.2593256E-015  0.9000766E+02  0.7816164E-02  0.1186339E+00
        -11   -1    0    0    0    0  0.00000000000E+00  0.00000000000E+00  0.45593999997E+02  0.45594000000E+02  0.51100000000E-03 0. -1.
         11   -1    0    0    0    0 -0.00000000000E+00 -0.00000000000E+00 -0.45593999997E+02  0.45594000000E+02  0.51100000000E-03 0.  1.
    9900012    2    1    2    0    0  0.10175456489E+01 -0.56317625458E+00  0.20155852153E+00  0.90007664252E+02  0.89999924620E+02 0.  0.
        -12    1    1    2    0    0 -0.10175456489E+01  0.56317625458E+00 -0.20155852153E+00  0.11803357484E+01  0.00000000000E+00 0.  1.
         11    1    3    3    0    0  0.42114589284E+01 -0.19363259627E+01 -0.32642148773E+01  0.56692895115E+01  0.51100000000E-03 0. -1.
        -11    1    3    3    0    0  0.58102840247E+00 -0.36828379071E+02 -0.17300697872E+02  0.40693749472E+02  0.51100000000E-03 0.  1.
         12    1    3    3    0    0 -0.37749416819E+01  0.38201528779E+02  0.20766471271E+02  0.43644625268E+02  0.00000000000E+00 0. -1.
</event>
<event>
 7    1  0.2593256E-015  0.9000773E+02  0.7816164E-02  0.1186339E+00
        -11   -1    0    0    0    0  0.00000000000E+00  0.00000000000E+00  0.45593999997E+02  0.45594000000E+02  0.51100000000E-03 0. -1.
         11   -1    0    0    0    0 -0.00000000000E+00 -0.00000000000E+00 -0.45593999997E+02  0.45594000000E+02  0.51100000000E-03 0.  1.
    9900012    2    1    2    0    0  0.22836230988E+00  0.11513457585E+01 -0.12370049032E+00  0.90007725366E+02  0.89999986541E+02 0.  0.
        -12    1    1    2    0    0 -0.22836230988E+00 -0.11513457585E+01  0.12370049032E+00  0.11802746339E+01  0.00000000000E+00 0.  1.
         11    1    3    3    0    0  0.28327919881E+02  0.83551550664E+01  0.21768121019E+02  0.36689654590E+02  0.51100000000E-03 0. -1.
        -11    1    3    3    0    0  0.21224362079E+01  0.99943761618E+01  0.28900131345E+01  0.10618119725E+02  0.51100000000E-03 0.  1.
        -12    1    3    3    0    0 -0.30221993779E+02 -0.17198185470E+02 -0.24781834644E+02  0.42699951051E+02  0.00000000000E+00 0.  1.
</event>
<event>
 7    1  0.2593256E-015  0.9000777E+02  0.7816164E-02  0.1186339E+00
        -11   -1    0    0    0    0  0.00000000000E+00  0.00000000000E+00  0.45593999997E+02  0.45594000000E+02  0.51100000000E-03 0.  1.
         11   -1    0    0    0    0 -0.00000000000E+00 -0.00000000000E+00 -0.45593999997E+02  0.45594000000E+02  0.51100000000E-03 0. -1.
    9900012    2    1    2    0    0  0.74066335694E+00  0.65467846590E+00 -0.64479810467E+00  0.90007766677E+02  0.90000028397E+02 0.  0.
        -12    1    1    2    0    0 -0.74066335694E+00 -0.65467846590E+00  0.64479810467E+00  0.11802333235E+01  0.00000000000E+00 0.  1.
         11    1    3    3    0    0 -0.49577866830E+01 -0.36351454089E+01 -0.83189690901E+01  0.10344040696E+02  0.51100000000E-03 0. -1.
        -11    1    3    3    0    0 -0.57365441449E+00  0.40774265771E+01  0.43296985554E+02  0.43492337776E+02  0.51100000000E-03 0.  1.
         12    1    3    3    0    0  0.62721044544E+01  0.21239729763E+00 -0.35622814568E+02  0.36171388205E+02  0.00000000000E+00 0. -1.
</event>
<event>
 7    1  0.2593256E-015  0.9000816E+02  0.7816164E-02  0.1186338E+00
        -11   -1    0    0    0    0  0.00000000000E+00  0.00000000000E+00  0.45593999997E+02  0.45594000000E+02  0.51100000000E-03 0.  1.
         11   -1    0    0    0    0 -0.00000000000E+00 -0.00000000000E+00 -0.45593999997E+02  0.45594000000E+02  0.51100000000E-03 0. -1.
    9900012    2    1    2    0    0  0.98040623226E+00  0.62041883828E+00 -0.21424440703E+00  0.90008162477E+02  0.90000429420E+02 0.  0.
        -12    1    1    2    0    0 -0.98040623226E+00 -0.62041883828E+00  0.21424440703E+00  0.11798375232E+01  0.00000000000E+00 0.  1.
         11    1    3    3    0    0 -0.32246832683E+02 -0.20428107029E+02  0.10563293330E+01  0.38187453526E+02  0.51100000000E-03 0. -1.
        -11    1    3    3    0    0 -0.68951900453E+01  0.15939787517E+01 -0.14793009958E+01  0.72299893305E+01  0.51100000000E-03 0.  1.
        -12    1    3    3    0    0  0.40122428961E+02  0.19454547116E+02  0.20872725571E+00  0.44590719620E+02  0.00000000000E+00 0.  1.
</event>
<event>
 7    1  0.2593256E-015  0.9000764E+02  0.7816164E-02  0.1186339E+00
        -11   -1    0    0    0    0  0.00000000000E+00  0.00000000000E+00  0.45593999997E+02  0.45594000000E+02  0.51100000000E-03 0.  1.
         11   -1    0    0    0    0 -0.00000000000E+00 -0.00000000000E+00 -0.45593999997E+02  0.45594000000E+02  0.51100000000E-03 0. -1.
    9900012    2    1    2    0    0 -0.34302831853E+00  0.35344314716E+00 -0.10726856478E+01  0.90007642010E+02  0.89999902084E+02 0.  0.
        -12    1    1    2    0    0  0.34302831853E+00 -0.35344314716E+00  0.10726856478E+01  0.11803579901E+01  0.00000000000E+00 0.  1.
         11    1    3    3    0    0 -0.31644003560E+02 -0.18422522355E+02 -0.10516177867E+02  0.38096224071E+02  0.51100000000E-03 0. -1.
        -11    1    3    3    0    0  0.31948674499E+01 -0.10114432541E+02  0.46570522011E+00  0.10617240944E+02  0.51100000000E-03 0.  1.
        -12    1    3    3    0    0  0.28106107792E+02  0.28890398044E+02  0.89777869990E+01  0.41294176995E+02  0.00000000000E+00 0.  1.
</event>
<event>
 7    1  0.2593256E-015  0.9000771E+02  0.7816164E-02  0.1186339E+00
        -11   -1    0    0    0    0  0.00000000000E+00  0.00000000000E+00  0.45593999997E+02  0.45594000000E+02  0.51100000000E-03 0.  1.
         11   -1    0    0    0    0 -0.00000000000E+00 -0.00000000000E+00 -0.45593999997E+02  0.45594000000E+02  0.51100000000E-03 0. -1.
    9900012    2    1    2    0    0 -0.44410226659E+00  0.98974930979E+00  0.46502097330E+00  0.90007714007E+02  0.89999975032E+02 0.  0.
        -12    1    1    2    0    0  0.44410226659E+00 -0.98974930979E+00 -0.46502097330E+00  0.11802859929E+01  0.00000000000E+00 0.  1.
         11    1    3    3    0    0  0.38041381688E+01  0.28724791997E+02 -0.29760391203E+02  0.41536321783E+02  0.51100000000E-03 0. -1.
        -11    1    3    3    0    0 -0.56153062618E+01 -0.78590725164E+01 -0.26628313419E+01  0.10019349093E+02  0.51100000000E-03 0.  1.
        -12    1    3    3    0    0  0.13670658265E+01 -0.19875970171E+02  0.32888243518E+02  0.38452043131E+02  0.00000000000E+00 0.  1.
</event>
<event>
 7    1  0.2593256E-015  0.9000783E+02  0.7816164E-02  0.1186339E+00
        -11   -1    0    0    0    0  0.00000000000E+00  0.00000000000E+00  0.45593999997E+02  0.45594000000E+02  0.51100000000E-03 0. -1.
         11   -1    0    0    0    0 -0.00000000000E+00 -0.00000000000E+00 -0.45593999997E+02  0.45594000000E+02  0.51100000000E-03 0.  1.
    9900012    2    1    2    0    0 -0.71940807532E-01 -0.95263910731E+00  0.69289245184E+00  0.90007831919E+02  0.90000094501E+02 0.  0.
        -12    1    1    2    0    0  0.71940807532E-01  0.95263910731E+00 -0.69289245184E+00  0.11801680806E+01  0.00000000000E+00 0.  1.
         11    1    3    3    0    0  0.31554059900E+01 -0.37809459017E+02  0.99560599516E+01  0.39225437004E+02  0.51100000000E-03 0. -1.
        -11    1    3    3    0    0  0.12289537191E+01 -0.92038677483E+00 -0.12510995152E+02  0.12604857754E+02  0.51100000000E-03 0.  1.
        -12    1    3    3    0    0 -0.44563005166E+01  0.37777206685E+02  0.32478276520E+01  0.38177537161E+02  0.00000000000E+00 0.  1.
</event>
<event>
 7    1  0.2593256E-015  0.9000773E+02  0.7816164E-02  0.1186339E+00
        -11   -1    0    0    0    0  0.00000000000E+00  0.00000000000E+00  0.45593999997E+02  0.45594000000E+02  0.51100000000E-03 0. -1.
         11   -1    0    0    0    0 -0.00000000000E+00 -0.00000000000E+00 -0.45593999997E+02  0.45594000000E+02  0.51100000000E-03 0.  1.
    9900012    2    1    2    0    0 -0.46467067607E+00  0.10747978790E+01  0.14809898959E+00  0.90007727731E+02  0.89999988937E+02 0.  0.
        -12    1    1    2    0    0  0.46467067607E+00 -0.10747978790E+01 -0.14809898959E+00  0.11802722688E+01  0.00000000000E+00 0.  1.
         11    1    3    3    0    0 -0.11561354169E+02  0.20911805313E+02  0.23513326415E+02  0.33523797980E+02  0.51100000000E-03 0. -1.
        -11    1    3    3    0    0 -0.54236459753E+00  0.12353848604E+01  0.12892146027E+02  0.12962552393E+02  0.51100000000E-03 0.  1.
        -12    1    3    3    0    0  0.11639048091E+02 -0.21072392295E+02 -0.36257373452E+02  0.43521377358E+02  0.00000000000E+00 0.  1.
</event>
<event>
 7    1  0.2593256E-015  0.9000774E+02  0.7816164E-02  0.1186339E+00
        -11   -1    0    0    0    0  0.00000000000E+00  0.00000000000E+00  0.45593999997E+02  0.45594000000E+02  0.51100000000E-03 0. -1.
         11   -1    0    0    0    0 -0.00000000000E+00 -0.00000000000E+00 -0.45593999997E+02  0.45594000000E+02  0.51100000000E-03 0.  1.
    9900012    2    1    2    0    0  0.18042270505E-02  0.88080771514E+00  0.78560954026E+00  0.90007742470E+02  0.90000003871E+02 0.  0.
        -12    1    1    2    0    0 -0.18042270505E-02 -0.88080771514E+00 -0.78560954026E+00  0.11802575295E+01  0.00000000000E+00 0.  1.
         11    1    3    3    0    0  0.29617182271E+02  0.13445527726E+02  0.15357899939E+02  0.35969776095E+02  0.51100000000E-03 0. -1.
        -11    1    3    3    0    0  0.41829043069E+01  0.80963719686E+01  0.43955784088E+01  0.10117758512E+02  0.51100000000E-03 0.  1.
        -12    1    3    3    0    0 -0.33798282351E+02 -0.20661091979E+02 -0.18967868808E+02  0.43920207864E+02  0.00000000000E+00 0.  1.
</event>
<event>
 7    1  0.2593256E-015  0.9000725E+02  0.7816164E-02  0.1186340E+00
        -11   -1    0    0    0    0  0.00000000000E+00  0.00000000000E+00  0.45593999997E+02  0.45594000000E+02  0.51100000000E-03 0. -1.
         11   -1    0    0    0    0 -0.00000000000E+00 -0.00000000000E+00 -0.45593999997E+02  0.45594000000E+02  0.51100000000E-03 0.  1.
    9900012    2    1    2    0    0 -0.94477308890E-01  0.11767680550E+01  0.21239459565E-01  0.90007254417E+02  0.89999509374E+02 0.  0.
        -12    1    1    2    0    0  0.94477308890E-01 -0.11767680550E+01 -0.21239459565E-01  0.11807455830E+01  0.00000000000E+00 0.  1.
         11    1    3    3    0    0 -0.44286299932E+01 -0.36035738364E+01 -0.86140901285E+01  0.10334459687E+02  0.51100000000E-03 0. -1.
        -11    1    3    3    0    0  0.26543819156E+02 -0.28631688410E+02  0.55296641391E+01  0.39432538624E+02  0.51100000000E-03 0.  1.
         12    1    3    3    0    0 -0.22209666471E+02  0.33412030301E+02  0.31056654490E+01  0.40240256106E+02  0.00000000000E+00 0. -1.
</event>
<event>
 7    1  0.2593256E-015  0.9000773E+02  0.7816164E-02  0.1186339E+00
        -11   -1    0    0    0    0  0.00000000000E+00  0.00000000000E+00  0.45593999997E+02  0.45594000000E+02  0.51100000000E-03 0. -1.
         11   -1    0    0    0    0 -0.00000000000E+00 -0.00000000000E+00 -0.45593999997E+02  0.45594000000E+02  0.51100000000E-03 0.  1.
    9900012    2    1    2    0    0  0.55551579018E+00  0.97408655651E+00 -0.36821759961E+00  0.90007734516E+02  0.89999995811E+02 0.  0.
        -12    1    1    2    0    0 -0.55551579018E+00 -0.97408655651E+00  0.36821759961E+00  0.11802654843E+01  0.00000000000E+00 0.  1.
         11    1    3    3    0    0  0.73604507630E+01  0.20221235321E+02  0.60179436256E+01  0.22344803402E+02  0.51100000000E-03 0. -1.
        -11    1    3    3    0    0  0.17444063152E+02  0.16238430915E+02  0.18398114499E+01  0.23903281873E+02  0.51100000000E-03 0.  1.
        -12    1    3    3    0    0 -0.24248998125E+02 -0.35485579680E+02 -0.82259726752E+01  0.43759649241E+02  0.00000000000E+00 0.  1.
</event>
<event>
 7    1  0.2593256E-015  0.9000766E+02  0.7816164E-02  0.1186339E+00
        -11   -1    0    0    0    0  0.00000000000E+00  0.00000000000E+00  0.45593999997E+02  0.45594000000E+02  0.51100000000E-03 0. -1.
         11   -1    0    0    0    0 -0.00000000000E+00 -0.00000000000E+00 -0.45593999997E+02  0.45594000000E+02  0.51100000000E-03 0.  1.
    9900012    2    1    2    0    0 -0.42041968046E+00 -0.10147897551E+01 -0.43202991882E+00  0.90007660724E+02  0.89999921046E+02 0.  0.
        -12    1    1    2    0    0  0.42041968046E+00  0.10147897551E+01  0.43202991882E+00  0.11803392756E+01  0.00000000000E+00 0.  1.
         11    1    3    3    0    0  0.21295246973E+02  0.26997603317E+02  0.14004771619E+02  0.37128045422E+02  0.51100000000E-03 0. -1.
        -11    1    3    3    0    0 -0.31089516453E+01  0.87280468781E+01 -0.80091295454E-01  0.92655705445E+01  0.51100000000E-03 0.  1.
        -12    1    3    3    0    0 -0.18606715008E+02 -0.36740439951E+02 -0.14356710242E+02  0.43614044758E+02  0.00000000000E+00 0.  1.
</event>
<event>
 7    1  0.2593256E-015  0.9000777E+02  0.7816164E-02  0.1186339E+00
        -11   -1    0    0    0    0  0.00000000000E+00  0.00000000000E+00  0.45593999997E+02  0.45594000000E+02  0.51100000000E-03 0.  1.
         11   -1    0    0    0    0 -0.00000000000E+00 -0.00000000000E+00 -0.45593999997E+02  0.45594000000E+02  0.51100000000E-03 0. -1.
    9900012    2    1    2    0    0 -0.87346390463E+00  0.43777006903E-01 -0.79251996401E+00  0.90007769721E+02  0.90000031481E+02 0.  0.
        -12    1    1    2    0    0  0.87346390463E+00 -0.43777006903E-01  0.79251996401E+00  0.11802302794E+01  0.00000000000E+00 0.  1.
         11    1    3    3    0    0 -0.34243595295E+01  0.33206714954E+01 -0.80603251038E+01  0.93659990608E+01  0.51100000000E-03 0. -1.
        -11    1    3    3    0    0 -0.88456681546E+01  0.27220354334E+02  0.29589755118E+02  0.41167306730E+02  0.51100000000E-03 0.  1.
         12    1    3    3    0    0  0.11396563779E+02 -0.30497248823E+02 -0.22321949978E+02  0.39474463930E+02  0.00000000000E+00 0. -1.
</event>
<event>
 7    1  0.2593256E-015  0.9000769E+02  0.7816164E-02  0.1186339E+00
        -11   -1    0    0    0    0  0.00000000000E+00  0.00000000000E+00  0.45593999997E+02  0.45594000000E+02  0.51100000000E-03 0.  1.
         11   -1    0    0    0    0 -0.00000000000E+00 -0.00000000000E+00 -0.45593999997E+02  0.45594000000E+02  0.51100000000E-03 0. -1.
    9900012    2    1    2    0    0  0.36175017192E+00  0.43881032170E+00 -0.10342743034E+01  0.90007686050E+02  0.89999946706E+02 0.  0.
        -12    1    1    2    0    0 -0.36175017192E+00 -0.43881032170E+00  0.10342743034E+01  0.11803139497E+01  0.00000000000E+00 0.  1.
         11    1    3    3    0    0  0.56484787771E+01  0.31388341086E+01 -0.53009870121E+01  0.83581131615E+01  0.51100000000E-03 0. -1.
        -11    1    3    3    0    0 -0.75303160866E+01  0.36761767907E+02 -0.11268712870E+02  0.39180570823E+02  0.51100000000E-03 0.  1.
         12    1    3    3    0    0  0.22435874814E+01 -0.39461791694E+02  0.15535425579E+02  0.42469002065E+02  0.00000000000E+00 0. -1.
</event>
<event>
 7    1  0.2593256E-015  0.9000785E+02  0.7816164E-02  0.1186339E+00
        -11   -1    0    0    0    0  0.00000000000E+00  0.00000000000E+00  0.45593999997E+02  0.45594000000E+02  0.51100000000E-03 0. -1.
         11   -1    0    0    0    0 -0.00000000000E+00 -0.00000000000E+00 -0.45593999997E+02  0.45594000000E+02  0.51100000000E-03 0.  1.
    9900012    2    1    2    0    0  0.18847051838E+00  0.11140041863E+01  0.34092135761E+00  0.90007850079E+02  0.90000112900E+02 0.  0.
        -12    1    1    2    0    0 -0.18847051838E+00 -0.11140041863E+01 -0.34092135761E+00  0.11801499207E+01  0.00000000000E+00 0.  1.
         11    1    3    3    0    0 -0.51944327131E+01 -0.55590923671E+01  0.23794714780E+01  0.79716700843E+01  0.51100000000E-03 0. -1.
        -11    1    3    3    0    0 -0.32530720204E+02 -0.17604007920E+02 -0.12134289452E+01  0.37008394478E+02  0.51100000000E-03 0.  1.
         12    1    3    3    0    0  0.37913623435E+02  0.24277104473E+02 -0.82512117523E+00  0.45027785517E+02  0.00000000000E+00 0. -1.
</event>
<event>
 7    1  0.2593256E-015  0.9000773E+02  0.7816164E-02  0.1186339E+00
        -11   -1    0    0    0    0  0.00000000000E+00  0.00000000000E+00  0.45593999997E+02  0.45594000000E+02  0.51100000000E-03 0.  1.
         11   -1    0    0    0    0 -0.00000000000E+00 -0.00000000000E+00 -0.45593999997E+02  0.45594000000E+02  0.51100000000E-03 0. -1.
    9900012    2    1    2    0    0 -0.68685797995E+00 -0.96079424066E-01 -0.95500325482E+00  0.90007730388E+02  0.89999991629E+02 0.  0.
        -12    1    1    2    0    0  0.68685797995E+00  0.96079424066E-01  0.95500325482E+00  0.11802696120E+01  0.00000000000E+00 0.  1.
         11    1    3    3    0    0  0.84640517656E+01 -0.21216687406E+01  0.28938604664E+01  0.91932627067E+01  0.51100000000E-03 0. -1.
        -11    1    3    3    0    0  0.13556912921E+02 -0.31556826784E+02  0.13255276041E+02  0.36814746336E+02  0.51100000000E-03 0.  1.
         12    1    3    3    0    0 -0.22707822667E+02  0.33582416100E+02 -0.17104139763E+02  0.43999721345E+02  0.00000000000E+00 0. -1.
</event>
<event>
 7    1  0.2593256E-015  0.9000776E+02  0.7816164E-02  0.1186339E+00
        -11   -1    0    0    0    0  0.00000000000E+00  0.00000000000E+00  0.45593999997E+02  0.45594000000E+02  0.51100000000E-03 0. -1.
         11   -1    0    0    0    0 -0.00000000000E+00 -0.00000000000E+00 -0.45593999997E+02  0.45594000000E+02  0.51100000000E-03 0.  1.
    9900012    2    1    2    0    0 -0.37454735966E+00  0.25521262065E+00  0.10897434726E+01  0.90007762718E+02  0.90000024386E+02 0.  0.
        -12    1    1    2    0    0  0.37454735966E+00 -0.25521262065E+00 -0.10897434726E+01  0.11802372823E+01  0.00000000000E+00 0.  1.
         11    1    3    3    0    0 -0.27362001907E+01  0.72972518446E+01  0.35355713137E+01  0.85578584203E+01  0.51100000000E-03 0. -1.
        -11    1    3    3    0    0 -0.37706393012E+02  0.69240875620E+01  0.39438773980E+01  0.38539190855E+02  0.51100000000E-03 0.  1.
         12    1    3    3    0    0  0.40068045843E+02 -0.13966126786E+02 -0.63897052391E+01  0.42910713442E+02  0.00000000000E+00 0. -1.
</event>
<event>
 7    1  0.2593256E-015  0.9000795E+02  0.7816164E-02  0.1186339E+00
        -11   -1    0    0    0    0  0.00000000000E+00  0.00000000000E+00  0.45593999997E+02  0.45594000000E+02  0.51100000000E-03 0. -1.
         11   -1    0    0    0    0 -0.00000000000E+00 -0.00000000000E+00 -0.45593999997E+02  0.45594000000E+02  0.51100000000E-03 0.  1.
    9900012    2    1    2    0    0  0.20661848125E+00  0.11614795815E+01 -0.28084889268E-01  0.90007951367E+02  0.90000215525E+02 0.  0.
        -12    1    1    2    0    0 -0.20661848125E+00 -0.11614795815E+01  0.28084889268E-01  0.11800486329E+01  0.00000000000E+00 0.  1.
         11    1    3    3    0    0  0.11471160974E+02  0.59008247461E+01  0.33672362533E+02  0.36058775154E+02  0.51100000000E-03 0. -1.
        -11    1    3    3    0    0 -0.94970272838E+00  0.97186668474E+01  0.52889133668E+01  0.11105270164E+02  0.51100000000E-03 0.  1.
        -12    1    3    3    0    0 -0.10314839764E+02 -0.14458012012E+02 -0.38989360790E+02  0.42843906048E+02  0.00000000000E+00 0.  1.
</event>
<event>
 7    1  0.2593256E-015  0.9000804E+02  0.7816164E-02  0.1186338E+00
        -11   -1    0    0    0    0  0.00000000000E+00  0.00000000000E+00  0.45593999997E+02  0.45594000000E+02  0.51100000000E-03 0.  1.
         11   -1    0    0    0    0 -0.00000000000E+00 -0.00000000000E+00 -0.45593999997E+02  0.45594000000E+02  0.51100000000E-03 0. -1.
    9900012    2    1    2    0    0  0.71837919494E+00 -0.77765373880E+00 -0.52105147920E+00  0.90008038709E+02  0.90000304019E+02 0.  0.
        -12    1    1    2    0    0 -0.71837919494E+00  0.77765373880E+00  0.52105147920E+00  0.11799612914E+01  0.00000000000E+00 0.  1.
         11    1    3    3    0    0  0.30857661926E+02  0.22498737130E+02 -0.70114135082E+01  0.38827160489E+02  0.51100000000E-03 0. -1.
        -11    1    3    3    0    0  0.51738057723E+01  0.15572848716E+00  0.71119487967E+01  0.87961544711E+01  0.51100000000E-03 0.  1.
        -12    1    3    3    0    0 -0.35313088503E+02 -0.23432119356E+02 -0.62158676770E+00  0.42384723749E+02  0.00000000000E+00 0.  1.
</event>
<event>
 7    1  0.2593256E-015  0.9000772E+02  0.7816164E-02  0.1186339E+00
        -11   -1    0    0    0    0  0.00000000000E+00  0.00000000000E+00  0.45593999997E+02  0.45594000000E+02  0.51100000000E-03 0. -1.
         11   -1    0    0    0    0 -0.00000000000E+00 -0.00000000000E+00 -0.45593999997E+02  0.45594000000E+02  0.51100000000E-03 0.  1.
    9900012    2    1    2    0    0 -0.68985216805E+00  0.93782927798E+00 -0.19400007297E+00  0.90007722153E+02  0.89999983285E+02 0.  0.
        -12    1    1    2    0    0  0.68985216805E+00 -0.93782927798E+00  0.19400007297E+00  0.11802778472E+01  0.00000000000E+00 0.  1.
         11    1    3    3    0    0  0.31756425086E+02 -0.12585344781E+02  0.15407865631E+02  0.37473507456E+02  0.51100000000E-03 0. -1.
        -11    1    3    3    0    0  0.75748074396E+01  0.43829830827E+01 -0.52207422610E+01  0.10190407179E+02  0.51100000000E-03 0.  1.
        -12    1    3    3    0    0 -0.40021084694E+02  0.91401909764E+01 -0.10381123442E+02  0.42343807518E+02  0.00000000000E+00 0.  1.
</event>
<event>
 7    1  0.2593256E-015  0.9000777E+02  0.7816164E-02  0.1186339E+00
        -11   -1    0    0    0    0  0.00000000000E+00  0.00000000000E+00  0.45593999997E+02  0.45594000000E+02  0.51100000000E-03 0. -1.
         11   -1    0    0    0    0 -0.00000000000E+00 -0.00000000000E+00 -0.45593999997E+02  0.45594000000E+02  0.51100000000E-03 0.  1.
    9900012    2    1    2    0    0 -0.60800263378E-02  0.11309567454E+01  0.33741612611E+00  0.90007767070E+02  0.90000028795E+02 0.  0.
        -12    1    1    2    0    0  0.60800263378E-02 -0.11309567454E+01 -0.33741612611E+00  0.11802329300E+01  0.00000000000E+00 0.  1.
         11    1    3    3    0    0  0.46840281104E+01 -0.13015109152E+02  0.13233132747E+01  0.13895479260E+02  0.51100000000E-03 0. -1.
        -11    1    3    3    0    0 -0.33046059625E+02  0.20991781995E+02 -0.17174012652E+02  0.42750949450E+02  0.51100000000E-03 0.  1.
         12    1    3    3    0    0  0.28355951488E+02 -0.68457160972E+01  0.16188115503E+02  0.33361338361E+02  0.00000000000E+00 0. -1.
</event>
<event>
 7    1  0.2593256E-015  0.9000771E+02  0.7816164E-02  0.1186339E+00
        -11   -1    0    0    0    0  0.00000000000E+00  0.00000000000E+00  0.45593999997E+02  0.45594000000E+02  0.51100000000E-03 0. -1.
         11   -1    0    0    0    0 -0.00000000000E+00 -0.00000000000E+00 -0.45593999997E+02  0.45594000000E+02  0.51100000000E-03 0.  1.
    9900012    2    1    2    0    0 -0.83260618751E+00  0.26935435146E+00 -0.79202058107E+00  0.90007711293E+02  0.89999972282E+02 0.  0.
        -12    1    1    2    0    0  0.83260618751E+00 -0.26935435146E+00  0.79202058107E+00  0.11802887066E+01  0.00000000000E+00 0.  1.
         11    1    3    3    0    0  0.16807796635E+02 -0.51837522318E+01  0.27868454180E+02  0.32954879056E+02  0.51100000000E-03 0. -1.
        -11    1    3    3    0    0 -0.60897152499E+01  0.31100354564E+01  0.12494640296E+02  0.14243348930E+02  0.51100000000E-03 0.  1.
        -12    1    3    3    0    0 -0.11550687573E+02  0.23430711268E+01 -0.41155115057E+02  0.42809483308E+02  0.00000000000E+00 0.  1.
</event>
<event>
 7    1  0.2593256E-015  0.9000768E+02  0.7816164E-02  0.1186339E+00
        -11   -1    0    0    0    0  0.00000000000E+00  0.00000000000E+00  0.45593999997E+02  0.45594000000E+02  0.51100000000E-03 0.  1.
         11   -1    0    0    0    0 -0.00000000000E+00 -0.00000000000E+00 -0.45593999997E+02  0.45594000000E+02  0.51100000000E-03 0. -1.
    9900012    2    1    2    0    0 -0.72137707317E+00 -0.39947805347E+00 -0.84450039503E+00  0.90007682876E+02  0.89999943490E+02 0.  0.
        -12    1    1    2    0    0  0.72137707317E+00  0.39947805347E+00  0.84450039503E+00  0.11803171244E+01  0.00000000000E+00 0.  1.
         11    1    3    3    0    0  0.24174308207E+02 -0.25646555706E+02 -0.76055777743E+01  0.36055343715E+02  0.51100000000E-03 0. -1.
        -11    1    3    3    0    0  0.52362909267E+01  0.10233727331E+02  0.15380108091E+02  0.19201448979E+02  0.51100000000E-03 0.  1.
        -12    1    3    3    0    0 -0.30131976207E+02  0.15013350321E+02 -0.86190307113E+01  0.34750890181E+02  0.00000000000E+00 0.  1.
</event>
<event>
 7    1  0.2593256E-015  0.9000773E+02  0.7816164E-02  0.1186339E+00
        -11   -1    0    0    0    0  0.00000000000E+00  0.00000000000E+00  0.45593999997E+02  0.45594000000E+02  0.51100000000E-03 0. -1.
         11   -1    0    0    0    0 -0.00000000000E+00 -0.00000000000E+00 -0.45593999997E+02  0.45594000000E+02  0.51100000000E-03 0.  1.
    9900012    2    1    2    0    0  0.10352661234E+01  0.48075330304E+00  0.30023956387E+00  0.90007727370E+02  0.89999988572E+02 0.  0.
        -12    1    1    2    0    0 -0.10352661234E+01 -0.48075330304E+00 -0.30023956387E+00  0.11802726296E+01  0.00000000000E+00 0.  1.
         11    1    3    3    0    0 -0.24873613429E+02 -0.18404867614E+02  0.26640492833E+02  0.40830768491E+02  0.51100000000E-03 0. -1.
        -11    1    3    3    0    0 -0.49072017081E+01  0.42748088089E+01 -0.84479926335E+01  0.10664107968E+02  0.51100000000E-03 0.  1.
        -12    1    3    3    0    0  0.30816081260E+02  0.14610812108E+02 -0.17892260636E+02  0.38512850912E+02  0.00000000000E+00 0.  1.
</event>
<event>
 7    1  0.2593256E-015  0.9000773E+02  0.7816164E-02  0.1186339E+00
        -11   -1    0    0    0    0  0.00000000000E+00  0.00000000000E+00  0.45593999997E+02  0.45594000000E+02  0.51100000000E-03 0.  1.
         11   -1    0    0    0    0 -0.00000000000E+00 -0.00000000000E+00 -0.45593999997E+02  0.45594000000E+02  0.51100000000E-03 0. -1.
    9900012    2    1    2    0    0 -0.87743325904E+00 -0.76621524856E+00 -0.18991542019E+00  0.90007727659E+02  0.89999988864E+02 0.  0.
        -12    1    1    2    0    0  0.87743325904E+00  0.76621524856E+00  0.18991542019E+00  0.11802723406E+01  0.00000000000E+00 0.  1.
         11    1    3    3    0    0  0.43885760369E+01  0.55327463495E+01 -0.58921707524E+01  0.91972038270E+01  0.51100000000E-03 0. -1.
        -11    1    3    3    0    0 -0.14707828631E+00  0.19555976449E+02  0.35806273245E+02  0.40798860901E+02  0.51100000000E-03 0.  1.
         12    1    3    3    0    0 -0.51189310097E+01 -0.25854938047E+02 -0.30104017912E+02  0.40011662931E+02  0.00000000000E+00 0. -1.
</event>
<event>
 7    1  0.2593256E-015  0.9000773E+02  0.7816164E-02  0.1186339E+00
        -11   -1    0    0    0    0  0.00000000000E+00  0.00000000000E+00  0.45593999997E+02  0.45594000000E+02  0.51100000000E-03 0. -1.
         11   -1    0    0    0    0 -0.00000000000E+00 -0.00000000000E+00 -0.45593999997E+02  0.45594000000E+02  0.51100000000E-03 0.  1.
    9900012    2    1    2    0    0  0.59194267040E+00 -0.30705894544E+00  0.97383543829E+00  0.90007730208E+02  0.89999991447E+02 0.  0.
        -12    1    1    2    0    0 -0.59194267040E+00  0.30705894544E+00 -0.97383543829E+00  0.11802697920E+01  0.00000000000E+00 0.  1.
         11    1    3    3    0    0 -0.23582349608E+02  0.20460068985E+02 -0.25434423836E+02  0.40269734939E+02  0.51100000000E-03 0. -1.
        -11    1    3    3    0    0  0.74590116100E+01  0.59655947694E+01  0.17455072737E+01  0.97093754204E+01  0.51100000000E-03 0.  1.
        -12    1    3    3    0    0  0.16715280668E+02 -0.26732722700E+02  0.24662752000E+02  0.40028619849E+02  0.00000000000E+00 0.  1.
</event>
<event>
 7    1  0.2593256E-015  0.9000774E+02  0.7816164E-02  0.1186339E+00
        -11   -1    0    0    0    0  0.00000000000E+00  0.00000000000E+00  0.45593999997E+02  0.45594000000E+02  0.51100000000E-03 0.  1.
         11   -1    0    0    0    0 -0.00000000000E+00 -0.00000000000E+00 -0.45593999997E+02  0.45594000000E+02  0.51100000000E-03 0. -1.
    9900012    2    1    2    0    0  0.54930468490E-01 -0.11606998164E+01 -0.20683194016E+00  0.90007736948E+02  0.89999998276E+02 0.  0.
        -12    1    1    2    0    0 -0.54930468490E-01  0.11606998164E+01  0.20683194016E+00  0.11802630519E+01  0.00000000000E+00 0.  1.
         11    1    3    3    0    0  0.13941945342E+02 -0.27402078774E+02  0.24428226459E+02  0.39268180620E+02  0.51100000000E-03 0. -1.
        -11    1    3    3    0    0  0.83903586123E+01 -0.17614629443E+01 -0.46076743631E+01  0.97330125164E+01  0.51100000000E-03 0.  1.
        -12    1    3    3    0    0 -0.22277373486E+02  0.28002841902E+02 -0.20027384036E+02  0.41006543811E+02  0.00000000000E+00 0.  1.
</event>
<event>
 7    1  0.2593256E-015  0.9000775E+02  0.7816164E-02  0.1186339E+00
        -11   -1    0    0    0    0  0.00000000000E+00  0.00000000000E+00  0.45593999997E+02  0.45594000000E+02  0.51100000000E-03 0.  1.
         11   -1    0    0    0    0 -0.00000000000E+00 -0.00000000000E+00 -0.45593999997E+02  0.45594000000E+02  0.51100000000E-03 0. -1.
    9900012    2    1    2    0    0 -0.43886132134E+00  0.57595847545E+00  0.93202005442E+00  0.90007750532E+02  0.90000012039E+02 0.  0.
        -12    1    1    2    0    0  0.43886132134E+00 -0.57595847545E+00 -0.93202005442E+00  0.11802494680E+01  0.00000000000E+00 0.  1.
         11    1    3    3    0    0  0.36616233820E+01 -0.42957289030E+01 -0.89092881716E+01  0.10546856811E+02  0.51100000000E-03 0. -1.
        -11    1    3    3    0    0  0.31192932644E+02 -0.17422204930E+02  0.11919022033E+02  0.37664245088E+02  0.51100000000E-03 0.  1.
         12    1    3    3    0    0 -0.35293417347E+02  0.22293892309E+02 -0.20777138071E+01  0.41796648633E+02  0.00000000000E+00 0. -1.
</event>
<event>
 7    1  0.2593256E-015  0.9000672E+02  0.7816164E-02  0.1186341E+00
        -11   -1    0    0    0    0  0.00000000000E+00  0.00000000000E+00  0.45593999997E+02  0.45594000000E+02  0.51100000000E-03 0.  1.
         11   -1    0    0    0    0 -0.00000000000E+00 -0.00000000000E+00 -0.45593999997E+02  0.45594000000E+02  0.51100000000E-03 0. -1.
    9900012    2    1    2    0    0 -0.24207044611E+00 -0.11554620181E+01  0.41621911841E-01  0.90006719779E+02  0.89998967675E+02 0.  0.
        -12    1    1    2    0    0  0.24207044611E+00  0.11554620181E+01 -0.41621911841E-01  0.11812802206E+01  0.00000000000E+00 0.  1.
         11    1    3    3    0    0  0.17432126209E+01 -0.57603809116E+01  0.95257530303E+01  0.11267686078E+02  0.51100000000E-03 0. -1.
        -11    1    3    3    0    0  0.16733270626E+02 -0.18875149990E+02  0.23259212505E+02  0.34311289681E+02  0.51100000000E-03 0.  1.
         12    1    3    3    0    0 -0.18718553693E+02  0.23480068883E+02 -0.32743343624E+02  0.44427744021E+02  0.00000000000E+00 0. -1.
</event>
<event>
 7    1  0.2593256E-015  0.9000787E+02  0.7816164E-02  0.1186339E+00
        -11   -1    0    0    0    0  0.00000000000E+00  0.00000000000E+00  0.45593999997E+02  0.45594000000E+02  0.51100000000E-03 0. -1.
         11   -1    0    0    0    0 -0.00000000000E+00 -0.00000000000E+00 -0.45593999997E+02  0.45594000000E+02  0.51100000000E-03 0.  1.
    9900012    2    1    2    0    0  0.75462028790E+00 -0.69280529844E+00  0.58589059226E+00  0.90007873419E+02  0.90000136548E+02 0.  0.
        -12    1    1    2    0    0 -0.75462028790E+00  0.69280529844E+00 -0.58589059226E+00  0.11801265807E+01  0.00000000000E+00 0.  1.
         11    1    3    3    0    0  0.14322561843E+01 -0.30086843674E+01  0.84493785797E+01  0.90827054364E+01  0.51100000000E-03 0. -1.
        -11    1    3    3    0    0 -0.23816372810E+02 -0.30252372767E+02  0.52909591201E+01  0.38864121250E+02  0.51100000000E-03 0.  1.
         12    1    3    3    0    0  0.23138736913E+02  0.32568251836E+02 -0.13154447108E+02  0.42061046733E+02  0.00000000000E+00 0. -1.
</event>
<event>
 7    1  0.2593256E-015  0.9000771E+02  0.7816164E-02  0.1186339E+00
        -11   -1    0    0    0    0  0.00000000000E+00  0.00000000000E+00  0.45593999997E+02  0.45594000000E+02  0.51100000000E-03 0. -1.
         11   -1    0    0    0    0 -0.00000000000E+00 -0.00000000000E+00 -0.45593999997E+02  0.45594000000E+02  0.51100000000E-03 0.  1.
    9900012    2    1    2    0    0 -0.10493773135E+01 -0.53805122466E+00 -0.48841579785E-01  0.90007713015E+02  0.89999974027E+02 0.  0.
        -12    1    1    2    0    0  0.10493773135E+01  0.53805122466E+00  0.48841579785E-01  0.11802869848E+01  0.00000000000E+00 0.  1.
         11    1    3    3    0    0 -0.25665050957E+02  0.19902535247E+02  0.10624887287E+02  0.34171537571E+02  0.51100000000E-03 0. -1.
        -11    1    3    3    0    0 -0.78110003626E+01 -0.32137489284E+01  0.10480101071E+02  0.13460030741E+02  0.51100000000E-03 0.  1.
        -12    1    3    3    0    0  0.32426674006E+02 -0.17226837543E+02 -0.21153829937E+02  0.42376144703E+02  0.00000000000E+00 0.  1.
</event>
<event>
 7    1  0.2593256E-015  0.9000776E+02  0.7816164E-02  0.1186339E+00
        -11   -1    0    0    0    0  0.00000000000E+00  0.00000000000E+00  0.45593999997E+02  0.45594000000E+02  0.51100000000E-03 0.  1.
         11   -1    0    0    0    0 -0.00000000000E+00 -0.00000000000E+00 -0.45593999997E+02  0.45594000000E+02  0.51100000000E-03 0. -1.
    9900012    2    1    2    0    0 -0.83225594234E+00 -0.67494273034E+00 -0.49473262602E+00  0.90007763577E+02  0.90000025256E+02 0.  0.
        -12    1    1    2    0    0  0.83225594234E+00  0.67494273034E+00  0.49473262602E+00  0.11802364229E+01  0.00000000000E+00 0.  1.
         11    1    3    3    0    0  0.19060050909E+00  0.69725945762E+01 -0.42974498243E+02  0.43536891290E+02  0.51100000000E-03 0. -1.
        -11    1    3    3    0    0 -0.34103613736E+00 -0.85191051674E+01  0.71595065973E+01  0.11133283140E+02  0.51100000000E-03 0.  1.
        -12    1    3    3    0    0 -0.68182031407E+00  0.87156786085E+00  0.35320259020E+02  0.35337589147E+02  0.00000000000E+00 0.  1.
</event>
<event>
 7    1  0.2593256E-015  0.9000777E+02  0.7816164E-02  0.1186339E+00
        -11   -1    0    0    0    0  0.00000000000E+00  0.00000000000E+00  0.45593999997E+02  0.45594000000E+02  0.51100000000E-03 0.  1.
         11   -1    0    0    0    0 -0.00000000000E+00 -0.00000000000E+00 -0.45593999997E+02  0.45594000000E+02  0.51100000000E-03 0. -1.
    9900012    2    1    2    0    0  0.50429844832E+00 -0.36436347807E+00 -0.10029258390E+01  0.90007772095E+02  0.90000033887E+02 0.  0.
        -12    1    1    2    0    0 -0.50429844832E+00  0.36436347807E+00  0.10029258390E+01  0.11802279050E+01  0.00000000000E+00 0.  1.
         11    1    3    3    0    0 -0.49312411093E+01 -0.10054962676E+02  0.67647462244E+01  0.13083623544E+02  0.51100000000E-03 0. -1.
        -11    1    3    3    0    0 -0.15733389585E+02  0.37991917144E+02 -0.57891287778E+01  0.41526369072E+02  0.51100000000E-03 0.  1.
         12    1    3    3    0    0  0.21168929142E+02 -0.28301317946E+02 -0.19785432856E+01  0.35397779479E+02  0.00000000000E+00 0. -1.
</event>
<event>
 7    1  0.2593256E-015  0.9000777E+02  0.7816164E-02  0.1186339E+00
        -11   -1    0    0    0    0  0.00000000000E+00  0.00000000000E+00  0.45593999997E+02  0.45594000000E+02  0.51100000000E-03 0.  1.
         11   -1    0    0    0    0 -0.00000000000E+00 -0.00000000000E+00 -0.45593999997E+02  0.45594000000E+02  0.51100000000E-03 0. -1.
    9900012    2    1    2    0    0 -0.57331144400E+00  0.75018510045E+00 -0.70815321283E+00  0.90007769230E+02  0.90000030984E+02 0.  0.
        -12    1    1    2    0    0  0.57331144400E+00 -0.75018510045E+00  0.70815321283E+00  0.11802307696E+01  0.00000000000E+00 0.  1.
         11    1    3    3    0    0  0.26205119449E+01  0.91000218766E+01  0.15687667302E+01  0.95988806807E+01  0.51100000000E-03 0. -1.
        -11    1    3    3    0    0  0.57502293786E+01  0.26186767849E+02 -0.26174291401E+02  0.37468726678E+02  0.51100000000E-03 0.  1.
         12    1    3    3    0    0 -0.89440527675E+01 -0.34536604625E+02  0.23897371458E+02  0.42940161871E+02  0.00000000000E+00 0. -1.
</event>
<event>
 7    1  0.2593256E-015  0.9000756E+02  0.7816164E-02  0.1186339E+00
        -11   -1    0    0    0    0  0.00000000000E+00  0.00000000000E+00  0.45593999997E+02  0.45594000000E+02  0.51100000000E-03 0. -1.
         11   -1    0    0    0    0 -0.00000000000E+00 -0.00000000000E+00 -0.45593999997E+02  0.45594000000E+02  0.51100000000E-03 0.  1.
    9900012    2    1    2    0    0 -0.31034835009E-01  0.11607930083E+01 -0.21218823931E+00  0.90007564734E+02  0.89999823788E+02 0.  0.
        -12    1    1    2    0    0  0.31034835009E-01 -0.11607930083E+01  0.21218823931E+00  0.11804352663E+01  0.00000000000E+00 0.  1.
         11    1    3    3    0    0 -0.36078569903E+00 -0.46744502668E+01  0.39741755900E+02  0.40017343913E+02  0.51100000000E-03 0. -1.
        -11    1    3    3    0    0 -0.72553289179E+01  0.26211386413E+01  0.13857070402E+01  0.78377515746E+01  0.51100000000E-03 0.  1.
        -12    1    3    3    0    0  0.75850797819E+01  0.32141046338E+01 -0.41339651179E+02  0.42152469246E+02  0.00000000000E+00 0.  1.
</event>
<event>
 7    1  0.3040551E-015  0.9000782E+02  0.7816164E-02  0.1186339E+00
        -11   -1    0    0    0    0  0.00000000000E+00  0.00000000000E+00  0.45593999997E+02  0.45594000000E+02  0.51100000000E-03 0. -1.
         11   -1    0    0    0    0 -0.00000000000E+00 -0.00000000000E+00 -0.45593999997E+02  0.45594000000E+02  0.51100000000E-03 0.  1.
    9900012    2    1    2    0    0 -0.61133208838E+00 -0.25727482647E+00  0.97616646505E+00  0.90007822799E+02  0.90000085260E+02 0.  0.
        -12    1    1    2    0    0  0.61133208838E+00  0.25727482647E+00 -0.97616646505E+00  0.11801772011E+01  0.00000000000E+00 0.  1.
         11    1    3    3    0    0  0.25398096899E+01  0.19190274141E+02  0.34890574085E+02  0.39900744543E+02  0.51100000000E-03 0. -1.
        -11    1    3    3    0    0  0.77811620283E+01  0.48524463911E+01 -0.38821949366E+01  0.99581201175E+01  0.51100000000E-03 0.  1.
        -12    1    3    3    0    0 -0.10932303807E+02 -0.24299995358E+02 -0.30032212683E+02  0.40148958138E+02  0.00000000000E+00 0.  1.
</event>
<event>
 7    1  0.2593256E-015  0.9000769E+02  0.7816164E-02  0.1186339E+00
        -11   -1    0    0    0    0  0.00000000000E+00  0.00000000000E+00  0.45593999997E+02  0.45594000000E+02  0.51100000000E-03 0. -1.
         11   -1    0    0    0    0 -0.00000000000E+00 -0.00000000000E+00 -0.45593999997E+02  0.45594000000E+02  0.51100000000E-03 0.  1.
    9900012    2    1    2    0    0  0.25734981724E+00 -0.10157659532E+01  0.54325108007E+00  0.90007690237E+02  0.89999950948E+02 0.  0.
        -12    1    1    2    0    0 -0.25734981724E+00  0.10157659532E+01 -0.54325108007E+00  0.11803097628E+01  0.00000000000E+00 0.  1.
         11    1    3    3    0    0  0.39466356508E+00 -0.12893967531E+02  0.34144769274E+02  0.36500348314E+02  0.51100000000E-03 0. -1.
        -11    1    3    3    0    0 -0.15136367409E+02 -0.54407088953E+01 -0.49646020613E+01  0.16833247028E+02  0.51100000000E-03 0.  1.
        -12    1    3    3    0    0  0.14999053661E+02  0.17318910474E+02 -0.28636916133E+02  0.36674094894E+02  0.00000000000E+00 0.  1.
</event>
<event>
 7    1  0.2593256E-015  0.9000782E+02  0.7816164E-02  0.1186339E+00
        -11   -1    0    0    0    0  0.00000000000E+00  0.00000000000E+00  0.45593999997E+02  0.45594000000E+02  0.51100000000E-03 0.  1.
         11   -1    0    0    0    0 -0.00000000000E+00 -0.00000000000E+00 -0.45593999997E+02  0.45594000000E+02  0.51100000000E-03 0. -1.
    9900012    2    1    2    0    0 -0.11468444204E+01 -0.23143293602E-02 -0.27852280225E+00  0.90007816780E+02  0.90000079162E+02 0.  0.
        -12    1    1    2    0    0  0.11468444204E+01  0.23143293602E-02  0.27852280225E+00  0.11801832197E+01  0.00000000000E+00 0.  1.
         11    1    3    3    0    0 -0.14119198984E+02 -0.33826262301E+02 -0.43655792078E+01  0.36913765498E+02  0.51100000000E-03 0. -1.
        -11    1    3    3    0    0 -0.26602547086E+01 -0.62341959979E+01 -0.58578923949E+01  0.89586303878E+01  0.51100000000E-03 0.  1.
        -12    1    3    3    0    0  0.15632609272E+02  0.40058143969E+02  0.99449488004E+01  0.44135420894E+02  0.00000000000E+00 0.  1.
</event>
<event>
 7    1  0.2593256E-015  0.9000788E+02  0.7816164E-02  0.1186339E+00
        -11   -1    0    0    0    0  0.00000000000E+00  0.00000000000E+00  0.45593999997E+02  0.45594000000E+02  0.51100000000E-03 0. -1.
         11   -1    0    0    0    0 -0.00000000000E+00 -0.00000000000E+00 -0.45593999997E+02  0.45594000000E+02  0.51100000000E-03 0.  1.
    9900012    2    1    2    0    0 -0.20326228801E+00 -0.11624814307E+01  0.33657422273E-03  0.90007881892E+02  0.90000145133E+02 0.  0.
        -12    1    1    2    0    0  0.20326228801E+00  0.11624814307E+01 -0.33657422273E-03  0.11801181076E+01  0.00000000000E+00 0.  1.
         11    1    3    3    0    0  0.65563258539E+01  0.68257955187E+01 -0.44303331746E+01  0.10450107438E+02  0.51100000000E-03 0. -1.
        -11    1    3    3    0    0 -0.12477203201E+02  0.19299051455E+02 -0.28369432588E+02  0.36509706824E+02  0.51100000000E-03 0.  1.
         12    1    3    3    0    0  0.57176150586E+01 -0.27287328404E+02  0.32800102337E+02  0.43048067630E+02  0.00000000000E+00 0. -1.
</event>
<event>
 7    1  0.2593256E-015  0.9000763E+02  0.7816164E-02  0.1186339E+00
        -11   -1    0    0    0    0  0.00000000000E+00  0.00000000000E+00  0.45593999997E+02  0.45594000000E+02  0.51100000000E-03 0.  1.
         11   -1    0    0    0    0 -0.00000000000E+00 -0.00000000000E+00 -0.45593999997E+02  0.45594000000E+02  0.51100000000E-03 0. -1.
    9900012    2    1    2    0    0  0.99669412726E+00  0.58484887890E+00  0.24047928400E+00  0.90007628160E+02  0.89999888052E+02 0.  0.
        -12    1    1    2    0    0 -0.99669412726E+00 -0.58484887890E+00 -0.24047928400E+00  0.11803718399E+01  0.00000000000E+00 0.  1.
         11    1    3    3    0    0  0.21977448004E+02 -0.55551626093E+01 -0.30613281126E+02  0.38092532521E+02  0.51100000000E-03 0. -1.
        -11    1    3    3    0    0  0.33085802580E+01 -0.59204298629E+01 -0.39071635577E+01  0.78271399894E+01  0.51100000000E-03 0.  1.
        -12    1    3    3    0    0 -0.24289334134E+02  0.12060441351E+02  0.34760923967E+02  0.44087955649E+02  0.00000000000E+00 0.  1.
</event>
<event>
 7    1  0.2593256E-015  0.9000781E+02  0.7816164E-02  0.1186339E+00
        -11   -1    0    0    0    0  0.00000000000E+00  0.00000000000E+00  0.45593999997E+02  0.45594000000E+02  0.51100000000E-03 0.  1.
         11   -1    0    0    0    0 -0.00000000000E+00 -0.00000000000E+00 -0.45593999997E+02  0.45594000000E+02  0.51100000000E-03 0. -1.
    9900012    2    1    2    0    0  0.63657610740E+00  0.59501282505E+00 -0.79597279862E+00  0.90007812685E+02  0.90000075012E+02 0.  0.
        -12    1    1    2    0    0 -0.63657610740E+00 -0.59501282505E+00  0.79597279862E+00  0.11801873151E+01  0.00000000000E+00 0.  1.
         11    1    3    3    0    0 -0.26634392013E+02 -0.12887746658E+01 -0.22422001802E+02  0.34839603085E+02  0.51100000000E-03 0. -1.
        -11    1    3    3    0    0 -0.72114179766E+01 -0.23307920105E+01 -0.68759999155E+01  0.10233108801E+02  0.51100000000E-03 0.  1.
        -12    1    3    3    0    0  0.34482386097E+02  0.42145795014E+01  0.28502028919E+02  0.44935100799E+02  0.00000000000E+00 0.  1.
</event>
<event>
 7    1  0.2593256E-015  0.9000759E+02  0.7816164E-02  0.1186339E+00
        -11   -1    0    0    0    0  0.00000000000E+00  0.00000000000E+00  0.45593999997E+02  0.45594000000E+02  0.51100000000E-03 0.  1.
         11   -1    0    0    0    0 -0.00000000000E+00 -0.00000000000E+00 -0.45593999997E+02  0.45594000000E+02  0.51100000000E-03 0. -1.
    9900012    2    1    2    0    0 -0.54934948585E+00  0.99238636296E+00 -0.32672885352E+00  0.90007590201E+02  0.89999849591E+02 0.  0.
        -12    1    1    2    0    0  0.54934948585E+00 -0.99238636296E+00  0.32672885352E+00  0.11804097995E+01  0.00000000000E+00 0.  1.
         11    1    3    3    0    0 -0.39498990042E+02  0.28284108826E+01 -0.15020811173E+01  0.39628605456E+02  0.51100000000E-03 0. -1.
        -11    1    3    3    0    0 -0.19609515130E+01 -0.38702827552E+01  0.77613695276E+01  0.88917532943E+01  0.51100000000E-03 0.  1.
        -12    1    3    3    0    0  0.40910592069E+02  0.20342582355E+01 -0.65860172639E+01  0.41487231450E+02  0.00000000000E+00 0.  1.
</event>
<event>
 7    1  0.2593256E-015  0.9000769E+02  0.7816164E-02  0.1186339E+00
        -11   -1    0    0    0    0  0.00000000000E+00  0.00000000000E+00  0.45593999997E+02  0.45594000000E+02  0.51100000000E-03 0. -1.
         11   -1    0    0    0    0 -0.00000000000E+00 -0.00000000000E+00 -0.45593999997E+02  0.45594000000E+02  0.51100000000E-03 0.  1.
    9900012    2    1    2    0    0  0.11707206572E+01 -0.59424014149E-01 -0.13785236238E+00  0.90007694385E+02  0.89999955151E+02 0.  0.
        -12    1    1    2    0    0 -0.11707206572E+01  0.59424014149E-01  0.13785236238E+00  0.11803056149E+01  0.00000000000E+00 0.  1.
         11    1    3    3    0    0  0.32044008526E+02  0.21218128828E+02 -0.79215853571E+01  0.39240017689E+02  0.51100000000E-03 0. -1.
        -11    1    3    3    0    0  0.66649493274E+01 -0.67875108994E+01 -0.10534597297E+01  0.95708741194E+01  0.51100000000E-03 0.  1.
        -12    1    3    3    0    0 -0.37538237196E+02 -0.14490041943E+02  0.88371927244E+01  0.41196802577E+02  0.00000000000E+00 0.  1.
</event>
<event>
 7    1  0.2593256E-015  0.9000775E+02  0.7816164E-02  0.1186339E+00
        -11   -1    0    0    0    0  0.00000000000E+00  0.00000000000E+00  0.45593999997E+02  0.45594000000E+02  0.51100000000E-03 0. -1.
         11   -1    0    0    0    0 -0.00000000000E+00 -0.00000000000E+00 -0.45593999997E+02  0.45594000000E+02  0.51100000000E-03 0.  1.
    9900012    2    1    2    0    0 -0.11679150408E+01 -0.15986166106E+00 -0.58463643157E-01  0.90007746091E+02  0.90000007539E+02 0.  0.
        -12    1    1    2    0    0  0.11679150408E+01  0.15986166106E+00  0.58463643157E-01  0.11802539094E+01  0.00000000000E+00 0.  1.
         11    1    3    3    0    0  0.13892646805E+01 -0.26099961503E+02  0.30120556522E+02  0.39879643583E+02  0.51100000000E-03 0. -1.
        -11    1    3    3    0    0 -0.49440169869E+01 -0.35664657225E+00  0.43947486404E+01  0.66245238785E+01  0.51100000000E-03 0.  1.
        -12    1    3    3    0    0  0.23868372656E+01  0.26296746414E+02 -0.34573768806E+02  0.43503578629E+02  0.00000000000E+00 0.  1.
</event>
<event>
 7    1  0.2593256E-015  0.9000809E+02  0.7816164E-02  0.1186338E+00
        -11   -1    0    0    0    0  0.00000000000E+00  0.00000000000E+00  0.45593999997E+02  0.45594000000E+02  0.51100000000E-03 0.  1.
         11   -1    0    0    0    0 -0.00000000000E+00 -0.00000000000E+00 -0.45593999997E+02  0.45594000000E+02  0.51100000000E-03 0. -1.
    9900012    2    1    2    0    0  0.77337497980E+00  0.74489035627E-01 -0.88798677069E+00  0.90008094080E+02  0.90000360121E+02 0.  0.
        -12    1    1    2    0    0 -0.77337497980E+00 -0.74489035627E-01  0.88798677069E+00  0.11799059203E+01  0.00000000000E+00 0.  1.
         11    1    3    3    0    0  0.10702699563E+02  0.74616407027E+01 -0.35298846440E+02  0.37632863566E+02  0.51100000000E-03 0. -1.
        -11    1    3    3    0    0  0.62835661405E+00  0.15111778850E+01 -0.77967102882E+01  0.79666292881E+01  0.51100000000E-03 0.  1.
        -12    1    3    3    0    0 -0.10557681197E+02 -0.88983295520E+01  0.42207569958E+02  0.44408601226E+02  0.00000000000E+00 0.  1.
</event>
<event>
 7    1  0.2593256E-015  0.9000742E+02  0.7816164E-02  0.1186340E+00
        -11   -1    0    0    0    0  0.00000000000E+00  0.00000000000E+00  0.45593999997E+02  0.45594000000E+02  0.51100000000E-03 0.  1.
         11   -1    0    0    0    0 -0.00000000000E+00 -0.00000000000E+00 -0.45593999997E+02  0.45594000000E+02  0.51100000000E-03 0. -1.
    9900012    2    1    2    0    0 -0.95642080274E+00  0.62145371955E+00  0.30468373060E+00  0.90007416393E+02  0.89999673489E+02 0.  0.
        -12    1    1    2    0    0  0.95642080274E+00 -0.62145371955E+00 -0.30468373060E+00  0.11805836070E+01  0.00000000000E+00 0.  1.
         11    1    3    3    0    0  0.77115788686E+01 -0.60842209981E+01  0.50320830336E+01  0.11036668597E+02  0.51100000000E-03 0. -1.
        -11    1    3    3    0    0  0.22811661464E+02  0.10899205010E+02  0.24938941781E+02  0.35512186444E+02  0.51100000000E-03 0.  1.
         12    1    3    3    0    0 -0.31479661136E+02 -0.41935302921E+01 -0.29666341084E+02  0.43458561352E+02  0.00000000000E+00 0. -1.
</event>
<event>
 7    1  0.2593256E-015  0.9000741E+02  0.7816164E-02  0.1186340E+00
        -11   -1    0    0    0    0  0.00000000000E+00  0.00000000000E+00  0.45593999997E+02  0.45594000000E+02  0.51100000000E-03 0. -1.
         11   -1    0    0    0    0 -0.00000000000E+00 -0.00000000000E+00 -0.45593999997E+02  0.45594000000E+02  0.51100000000E-03 0.  1.
    9900012    2    1    2    0    0 -0.14187638297E+00  0.70039994503E+00  0.93973649235E+00  0.90007409611E+02  0.89999666617E+02 0.  0.
        -12    1    1    2    0    0  0.14187638297E+00 -0.70039994503E+00 -0.93973649235E+00  0.11805903888E+01  0.00000000000E+00 0.  1.
         11    1    3    3    0    0 -0.13310227660E+02  0.30903681828E+02 -0.11509085276E+02  0.35562040929E+02  0.51100000000E-03 0. -1.
        -11    1    3    3    0    0 -0.91342546162E+01  0.56770886249E+01  0.26836475565E+01  0.11084489484E+02  0.51100000000E-03 0.  1.
        -12    1    3    3    0    0  0.22302605893E+02 -0.35880370508E+02  0.97651742122E+01  0.43360879198E+02  0.00000000000E+00 0.  1.
</event>
<event>
 7    1  0.2593256E-015  0.9000796E+02  0.7816164E-02  0.1186339E+00
        -11   -1    0    0    0    0  0.00000000000E+00  0.00000000000E+00  0.45593999997E+02  0.45594000000E+02  0.51100000000E-03 0.  1.
         11   -1    0    0    0    0 -0.00000000000E+00 -0.00000000000E+00 -0.45593999997E+02  0.45594000000E+02  0.51100000000E-03 0. -1.
    9900012    2    1    2    0    0 -0.95653867369E+00 -0.67436626105E+00 -0.15085478453E+00  0.90007960486E+02  0.90000224764E+02 0.  0.
        -12    1    1    2    0    0  0.95653867369E+00  0.67436626105E+00  0.15085478453E+00  0.11800395139E+01  0.00000000000E+00 0.  1.
         11    1    3    3    0    0 -0.39599322737E+02  0.10878963425E+02 -0.92125588040E+01  0.42087164865E+02  0.51100000000E-03 0. -1.
        -11    1    3    3    0    0  0.10945466640E+01 -0.15361125607E+01  0.88602500687E+01  0.90587916269E+01  0.51100000000E-03 0.  1.
        -12    1    3    3    0    0  0.37548237399E+02 -0.10017217126E+02  0.20145395080E+00  0.38862003994E+02  0.00000000000E+00 0.  1.
</event>
<event>
 7    1  0.2593256E-015  0.9000751E+02  0.7816164E-02  0.1186340E+00
        -11   -1    0    0    0    0  0.00000000000E+00  0.00000000000E+00  0.45593999997E+02  0.45594000000E+02  0.51100000000E-03 0. -1.
         11   -1    0    0    0    0 -0.00000000000E+00 -0.00000000000E+00 -0.45593999997E+02  0.45594000000E+02  0.51100000000E-03 0.  1.
    9900012    2    1    2    0    0 -0.10541732070E+01 -0.37170209923E+00  0.37963241132E+00  0.90007506727E+02  0.89999765015E+02 0.  0.
        -12    1    1    2    0    0  0.10541732070E+01  0.37170209923E+00 -0.37963241132E+00  0.11804932734E+01  0.00000000000E+00 0.  1.
         11    1    3    3    0    0 -0.17023370624E+02  0.12654706036E+02  0.36801914917E+02  0.42477260671E+02  0.51100000000E-03 0. -1.
        -11    1    3    3    0    0  0.55233391810E+01  0.42003001519E+01 -0.13287845397E+01  0.70650878048E+01  0.51100000000E-03 0.  1.
        -12    1    3    3    0    0  0.10445858237E+02 -0.17226708288E+02 -0.35093497966E+02  0.40465158251E+02  0.00000000000E+00 0.  1.
</event>
<event>
 7    1  0.2593256E-015  0.9000791E+02  0.7816164E-02  0.1186339E+00
        -11   -1    0    0    0    0  0.00000000000E+00  0.00000000000E+00  0.45593999997E+02  0.45594000000E+02  0.51100000000E-03 0.  1.
         11   -1    0    0    0    0 -0.00000000000E+00 -0.00000000000E+00 -0.45593999997E+02  0.45594000000E+02  0.51100000000E-03 0. -1.
    9900012    2    1    2    0    0  0.35549790113E+00 -0.44213308770E+00 -0.10347698573E+01  0.90007911409E+02  0.90000175039E+02 0.  0.
        -12    1    1    2    0    0 -0.35549790113E+00  0.44213308770E+00  0.10347698573E+01  0.11800885909E+01  0.00000000000E+00 0.  1.
         11    1    3    3    0    0 -0.34836487485E+02 -0.43736717837E+01 -0.67652786074E+01  0.35755822744E+02  0.51100000000E-03 0. -1.
        -11    1    3    3    0    0 -0.79848966483E+01  0.47321934220E+01 -0.37984127542E+01  0.10028966486E+02  0.51100000000E-03 0.  1.
        -12    1    3    3    0    0  0.43176882035E+02 -0.80065472600E+00  0.95289215044E+01  0.44223122179E+02  0.00000000000E+00 0.  1.
</event>
<event>
 7    1  0.2593256E-015  0.9000810E+02  0.7816164E-02  0.1186338E+00
        -11   -1    0    0    0    0  0.00000000000E+00  0.00000000000E+00  0.45593999997E+02  0.45594000000E+02  0.51100000000E-03 0.  1.
         11   -1    0    0    0    0 -0.00000000000E+00 -0.00000000000E+00 -0.45593999997E+02  0.45594000000E+02  0.51100000000E-03 0. -1.
    9900012    2    1    2    0    0  0.75371333862E+00 -0.56357034219E+00 -0.71167249524E+00  0.90008096162E+02  0.90000362230E+02 0.  0.
        -12    1    1    2    0    0 -0.75371333862E+00  0.56357034219E+00  0.71167249524E+00  0.11799038384E+01  0.00000000000E+00 0.  1.
         11    1    3    3    0    0 -0.27122863613E+01 -0.73269713660E+01  0.43309262490E+01  0.89329686633E+01  0.51100000000E-03 0. -1.
        -11    1    3    3    0    0  0.26259837528E+01 -0.25808799894E+02 -0.30271351877E+02  0.39866586101E+02  0.51100000000E-03 0.  1.
         12    1    3    3    0    0  0.84001594710E+00  0.32572200918E+02  0.25228753133E+02  0.41208541397E+02  0.00000000000E+00 0. -1.
</event>
<event>
 7    1  0.2593256E-015  0.9000779E+02  0.7816164E-02  0.1186339E+00
        -11   -1    0    0    0    0  0.00000000000E+00  0.00000000000E+00  0.45593999997E+02  0.45594000000E+02  0.51100000000E-03 0. -1.
         11   -1    0    0    0    0 -0.00000000000E+00 -0.00000000000E+00 -0.45593999997E+02  0.45594000000E+02  0.51100000000E-03 0.  1.
    9900012    2    1    2    0    0 -0.73652479305E+00 -0.88119595005E+00 -0.27190330716E+00  0.90007785409E+02  0.90000047376E+02 0.  0.
        -12    1    1    2    0    0  0.73652479305E+00  0.88119595005E+00  0.27190330716E+00  0.11802145913E+01  0.00000000000E+00 0.  1.
         11    1    3    3    0    0  0.37763846205E+02 -0.12925718772E+02 -0.49169417705E+01  0.40216397186E+02  0.51100000000E-03 0. -1.
        -11    1    3    3    0    0 -0.33433938635E+01 -0.82736800594E+01  0.27272712638E-01  0.89237216627E+01  0.51100000000E-03 0.  1.
        -12    1    3    3    0    0 -0.35156977134E+02  0.20318202881E+02  0.46177657507E+01  0.40867666560E+02  0.00000000000E+00 0.  1.
</event>
<event>
 7    1  0.2593256E-015  0.9000769E+02  0.7816164E-02  0.1186339E+00
        -11   -1    0    0    0    0  0.00000000000E+00  0.00000000000E+00  0.45593999997E+02  0.45594000000E+02  0.51100000000E-03 0. -1.
         11   -1    0    0    0    0 -0.00000000000E+00 -0.00000000000E+00 -0.45593999997E+02  0.45594000000E+02  0.51100000000E-03 0.  1.
    9900012    2    1    2    0    0 -0.56824378417E+00 -0.73436522807E+00  0.72864875366E+00  0.90007693983E+02  0.89999954744E+02 0.  0.
        -12    1    1    2    0    0  0.56824378417E+00  0.73436522807E+00 -0.72864875366E+00  0.11803060165E+01  0.00000000000E+00 0.  1.
         11    1    3    3    0    0 -0.13052351807E+01  0.10052241966E+02  0.30404325336E+01  0.10582789692E+02  0.51100000000E-03 0. -1.
        -11    1    3    3    0    0  0.88970705625E+01  0.33002078426E+02 -0.61046232259E+01  0.34721196264E+02  0.51100000000E-03 0.  1.
         12    1    3    3    0    0 -0.81600791660E+01 -0.43788685620E+02  0.37928394460E+01  0.44703708027E+02  0.00000000000E+00 0. -1.
</event>
<event>
 7    1  0.2593256E-015  0.9000778E+02  0.7816164E-02  0.1186339E+00
        -11   -1    0    0    0    0  0.00000000000E+00  0.00000000000E+00  0.45593999997E+02  0.45594000000E+02  0.51100000000E-03 0. -1.
         11   -1    0    0    0    0 -0.00000000000E+00 -0.00000000000E+00 -0.45593999997E+02  0.45594000000E+02  0.51100000000E-03 0.  1.
    9900012    2    1    2    0    0  0.11518341434E+01  0.19105917477E+00  0.17233715364E+00  0.90007777311E+02  0.90000039171E+02 0.  0.
        -12    1    1    2    0    0 -0.11518341434E+01 -0.19105917477E+00 -0.17233715364E+00  0.11802226894E+01  0.00000000000E+00 0.  1.
         11    1    3    3    0    0 -0.14739714946E+01  0.95477078845E+01  0.13841669866E+01  0.97594690595E+01  0.51100000000E-03 0. -1.
        -11    1    3    3    0    0 -0.26673894769E+02 -0.20844332003E+02 -0.23910737364E+02  0.41445219270E+02  0.51100000000E-03 0.  1.
         12    1    3    3    0    0  0.29299700407E+02  0.11487683293E+02  0.22698907531E+02  0.38803088981E+02  0.00000000000E+00 0. -1.
</event>
<event>
 7    1  0.2593256E-015  0.9000780E+02  0.7816164E-02  0.1186339E+00
        -11   -1    0    0    0    0  0.00000000000E+00  0.00000000000E+00  0.45593999997E+02  0.45594000000E+02  0.51100000000E-03 0.  1.
         11   -1    0    0    0    0 -0.00000000000E+00 -0.00000000000E+00 -0.45593999997E+02  0.45594000000E+02  0.51100000000E-03 0. -1.
    9900012    2    1    2    0    0  0.65010179023E+00 -0.87297760296E+00  0.45623029976E+00  0.90007801576E+02  0.90000063757E+02 0.  0.
        -12    1    1    2    0    0 -0.65010179023E+00  0.87297760296E+00 -0.45623029976E+00  0.11801984237E+01  0.00000000000E+00 0.  1.
         11    1    3    3    0    0  0.71438049184E+01  0.53922841882E+01 -0.47880544826E-01  0.89505849130E+01  0.51100000000E-03 0. -1.
        -11    1    3    3    0    0 -0.84259232171E+01 -0.17272843915E+02  0.37647373965E+02  0.42269044060E+02  0.51100000000E-03 0.  1.
         12    1    3    3    0    0  0.19322200890E+01  0.11007582124E+02 -0.37143263121E+02  0.38788172604E+02  0.00000000000E+00 0. -1.
</event>
<event>
 7    1  0.2593256E-015  0.9000778E+02  0.7816164E-02  0.1186339E+00
        -11   -1    0    0    0    0  0.00000000000E+00  0.00000000000E+00  0.45593999997E+02  0.45594000000E+02  0.51100000000E-03 0. -1.
         11   -1    0    0    0    0 -0.00000000000E+00 -0.00000000000E+00 -0.45593999997E+02  0.45594000000E+02  0.51100000000E-03 0.  1.
    9900012    2    1    2    0    0 -0.74478666597E+00  0.85183501804E+00 -0.33553878809E+00  0.90007781226E+02  0.90000043138E+02 0.  0.
        -12    1    1    2    0    0  0.74478666597E+00 -0.85183501804E+00  0.33553878809E+00  0.11802187738E+01  0.00000000000E+00 0.  1.
         11    1    3    3    0    0  0.12592824894E+02 -0.34979322964E+02 -0.80763420887E+01  0.38044179261E+02  0.51100000000E-03 0. -1.
        -11    1    3    3    0    0  0.72792133469E+01  0.26765586116E+01 -0.67871810236E+01  0.10306150565E+02  0.51100000000E-03 0.  1.
        -12    1    3    3    0    0 -0.20616824906E+02  0.33154599371E+02  0.14527984324E+02  0.41657451401E+02  0.00000000000E+00 0.  1.
</event>
<event>
 7    1  0.2593256E-015  0.9000873E+02  0.7816164E-02  0.1186337E+00
        -11   -1    0    0    0    0  0.00000000000E+00  0.00000000000E+00  0.45593999997E+02  0.45594000000E+02  0.51100000000E-03 0. -1.
         11   -1    0    0    0    0 -0.00000000000E+00 -0.00000000000E+00 -0.45593999997E+02  0.45594000000E+02  0.51100000000E-03 0.  1.
    9900012    2    1    2    0    0 -0.60853882593E-02 -0.11789561308E+01  0.26646001411E-01  0.90008727089E+02  0.90001001481E+02 0.  0.
        -12    1    1    2    0    0  0.60853882593E-02  0.11789561308E+01 -0.26646001411E-01  0.11792729114E+01  0.00000000000E+00 0.  1.
         11    1    3    3    0    0 -0.17351804636E+01  0.99994741796E+01 -0.57008619966E+00  0.10164906967E+02  0.51100000000E-03 0. -1.
        -11    1    3    3    0    0 -0.14993193368E+02  0.70919680419E+01 -0.33687411395E+02  0.37549081810E+02  0.51100000000E-03 0.  1.
         12    1    3    3    0    0  0.16722288443E+02 -0.18270398352E+02  0.34284143596E+02  0.42294738311E+02  0.00000000000E+00 0. -1.
</event>
<event>
 7    1  0.2593256E-015  0.9000775E+02  0.7816164E-02  0.1186339E+00
        -11   -1    0    0    0    0  0.00000000000E+00  0.00000000000E+00  0.45593999997E+02  0.45594000000E+02  0.51100000000E-03 0.  1.
         11   -1    0    0    0    0 -0.00000000000E+00 -0.00000000000E+00 -0.45593999997E+02  0.45594000000E+02  0.51100000000E-03 0. -1.
    9900012    2    1    2    0    0  0.44477694636E+00 -0.97302206021E+00  0.49838552963E+00  0.90007751468E+02  0.90000012987E+02 0.  0.
        -12    1    1    2    0    0 -0.44477694636E+00  0.97302206021E+00 -0.49838552963E+00  0.11802485322E+01  0.00000000000E+00 0.  1.
         11    1    3    3    0    0  0.66854678793E+00  0.30418503478E+01 -0.91001995145E+01  0.96183907079E+01  0.51100000000E-03 0. -1.
        -11    1    3    3    0    0  0.26871017945E+02  0.26989066185E+02  0.93407684575E+01  0.39213661581E+02  0.51100000000E-03 0.  1.
         12    1    3    3    0    0 -0.27094787787E+02 -0.31003938593E+02  0.25781658660E+00  0.41175699179E+02  0.00000000000E+00 0. -1.
</event>
<event>
 7    1  0.2593256E-015  0.9000782E+02  0.7816164E-02  0.1186339E+00
        -11   -1    0    0    0    0  0.00000000000E+00  0.00000000000E+00  0.45593999997E+02  0.45594000000E+02  0.51100000000E-03 0.  1.
         11   -1    0    0    0    0 -0.00000000000E+00 -0.00000000000E+00 -0.45593999997E+02  0.45594000000E+02  0.51100000000E-03 0. -1.
    9900012    2    1    2    0    0  0.26018226211E+00 -0.25892622192E+00 -0.11216446175E+01  0.90007820248E+02  0.90000082676E+02 0.  0.
        -12    1    1    2    0    0 -0.26018226211E+00  0.25892622192E+00  0.11216446175E+01  0.11801797515E+01  0.00000000000E+00 0.  1.
         11    1    3    3    0    0  0.12224635147E+01 -0.20099591547E+02  0.36015328544E+02  0.41262475541E+02  0.51100000000E-03 0. -1.
        -11    1    3    3    0    0  0.12967881480E+01 -0.56983103407E+01 -0.84089288647E+01  0.10240238530E+02  0.51100000000E-03 0.  1.
        -12    1    3    3    0    0 -0.22590694006E+01  0.25538975666E+02 -0.28728044297E+02  0.38505106177E+02  0.00000000000E+00 0.  1.
</event>
<event>
 7    1  0.2593256E-015  0.9000774E+02  0.7816164E-02  0.1186339E+00
        -11   -1    0    0    0    0  0.00000000000E+00  0.00000000000E+00  0.45593999997E+02  0.45594000000E+02  0.51100000000E-03 0.  1.
         11   -1    0    0    0    0 -0.00000000000E+00 -0.00000000000E+00 -0.45593999997E+02  0.45594000000E+02  0.51100000000E-03 0. -1.
    9900012    2    1    2    0    0  0.78596346920E+00 -0.39560507018E+00  0.78661431905E+00  0.90007744081E+02  0.90000005503E+02 0.  0.
        -12    1    1    2    0    0 -0.78596346920E+00  0.39560507018E+00 -0.78661431905E+00  0.11802559186E+01  0.00000000000E+00 0.  1.
         11    1    3    3    0    0  0.24836736606E+02 -0.30855122855E+02 -0.16162854745E+02  0.42780135173E+02  0.51100000000E-03 0. -1.
        -11    1    3    3    0    0 -0.91266353306E+01  0.81904040779E+00 -0.14581234965E+01  0.92786003276E+01  0.51100000000E-03 0.  1.
        -12    1    3    3    0    0 -0.14924137806E+02  0.29640477377E+02  0.18407592561E+02  0.37949008581E+02  0.00000000000E+00 0.  1.
</event>
<event>
 7    1  0.2593256E-015  0.9000777E+02  0.7816164E-02  0.1186339E+00
        -11   -1    0    0    0    0  0.00000000000E+00  0.00000000000E+00  0.45593999997E+02  0.45594000000E+02  0.51100000000E-03 0. -1.
         11   -1    0    0    0    0 -0.00000000000E+00 -0.00000000000E+00 -0.45593999997E+02  0.45594000000E+02  0.51100000000E-03 0.  1.
    9900012    2    1    2    0    0  0.50136063744E+00  0.86943154834E+00  0.62102154583E+00  0.90007770587E+02  0.90000032359E+02 0.  0.
        -12    1    1    2    0    0 -0.50136063744E+00 -0.86943154834E+00 -0.62102154583E+00  0.11802294126E+01  0.00000000000E+00 0.  1.
         11    1    3    3    0    0  0.84226850579E+01  0.51525813710E+00 -0.82140316344E+01  0.11776138182E+02  0.51100000000E-03 0. -1.
        -11    1    3    3    0    0 -0.78160887661E+01 -0.16301098771E+02 -0.30533966336E+02  0.35484365081E+02  0.51100000000E-03 0.  1.
         12    1    3    3    0    0 -0.10523565438E+00  0.16655272183E+02  0.39369019516E+02  0.42747267324E+02  0.00000000000E+00 0. -1.
</event>
<event>
 7    1  0.2593256E-015  0.9000763E+02  0.7816164E-02  0.1186339E+00
        -11   -1    0    0    0    0  0.00000000000E+00  0.00000000000E+00  0.45593999997E+02  0.45594000000E+02  0.51100000000E-03 0.  1.
         11   -1    0    0    0    0 -0.00000000000E+00 -0.00000000000E+00 -0.45593999997E+02  0.45594000000E+02  0.51100000000E-03 0. -1.
    9900012    2    1    2    0    0  0.10235202529E+01  0.10245952826E+00 -0.57893889967E+00  0.90007634839E+02  0.89999894819E+02 0.  0.
        -12    1    1    2    0    0 -0.10235202529E+01 -0.10245952826E+00  0.57893889967E+00  0.11803651607E+01  0.00000000000E+00 0.  1.
         11    1    3    3    0    0 -0.86561389190E+01 -0.32399441690E+01  0.31975533017E+01  0.97800984955E+01  0.51100000000E-03 0. -1.
        -11    1    3    3    0    0 -0.16723727271E+02 -0.49188185322E+01  0.31135202276E+02  0.35683030289E+02  0.51100000000E-03 0.  1.
         12    1    3    3    0    0  0.26403386443E+02  0.82612222295E+01 -0.34911694477E+02  0.44544506055E+02  0.00000000000E+00 0. -1.
</event>
<event>
 7    1  0.2593256E-015  0.9000770E+02  0.7816164E-02  0.1186339E+00
        -11   -1    0    0    0    0  0.00000000000E+00  0.00000000000E+00  0.45593999997E+02  0.45594000000E+02  0.51100000000E-03 0.  1.
         11   -1    0    0    0    0 -0.00000000000E+00 -0.00000000000E+00 -0.45593999997E+02  0.45594000000E+02  0.51100000000E-03 0. -1.
    9900012    2    1    2    0    0 -0.64601052240E+00  0.98773826152E+00 -0.12535696761E-01  0.90007697661E+02  0.89999958470E+02 0.  0.
        -12    1    1    2    0    0  0.64601052240E+00 -0.98773826152E+00  0.12535696761E-01  0.11803023392E+01  0.00000000000E+00 0.  1.
         11    1    3    3    0    0 -0.56198031676E+01  0.16519325946E+02 -0.37799177135E+02  0.41632296474E+02  0.51100000000E-03 0. -1.
        -11    1    3    3    0    0  0.19234469152E+01 -0.87359020427E+01 -0.88877227937E+00  0.89891906733E+01  0.51100000000E-03 0.  1.
        -12    1    3    3    0    0  0.30503457300E+01 -0.67956856422E+01  0.38675413717E+02  0.39386210514E+02  0.00000000000E+00 0.  1.
</event>
<event>
 7    1  0.2593256E-015  0.9000770E+02  0.7816164E-02  0.1186339E+00
        -11   -1    0    0    0    0  0.00000000000E+00  0.00000000000E+00  0.45593999997E+02  0.45594000000E+02  0.51100000000E-03 0.  1.
         11   -1    0    0    0    0 -0.00000000000E+00 -0.00000000000E+00 -0.45593999997E+02  0.45594000000E+02  0.51100000000E-03 0. -1.
    9900012    2    1    2    0    0  0.10824264331E+01  0.18328346250E+00 -0.43342431833E+00  0.90007704931E+02  0.89999965836E+02 0.  0.
        -12    1    1    2    0    0 -0.10824264331E+01 -0.18328346250E+00  0.43342431833E+00  0.11802950692E+01  0.00000000000E+00 0.  1.
         11    1    3    3    0    0  0.24382094611E+01  0.10071760692E+02 -0.36787872432E+02  0.38219534104E+02  0.51100000000E-03 0. -1.
        -11    1    3    3    0    0 -0.78270862776E+01  0.64020604522E+01 -0.13564785698E+01  0.10202435592E+02  0.51100000000E-03 0.  1.
        -12    1    3    3    0    0  0.64713032496E+01 -0.16290537682E+02  0.37710926683E+02  0.41585735235E+02  0.00000000000E+00 0.  1.
</event>
<event>
 7    1  0.2593256E-015  0.9000784E+02  0.7816164E-02  0.1186339E+00
        -11   -1    0    0    0    0  0.00000000000E+00  0.00000000000E+00  0.45593999997E+02  0.45594000000E+02  0.51100000000E-03 0.  1.
         11   -1    0    0    0    0 -0.00000000000E+00 -0.00000000000E+00 -0.45593999997E+02  0.45594000000E+02  0.51100000000E-03 0. -1.
    9900012    2    1    2    0    0 -0.58761387812E+00  0.66114407817E+00 -0.78126454809E+00  0.90007840750E+02  0.90000103448E+02 0.  0.
        -12    1    1    2    0    0  0.58761387812E+00 -0.66114407817E+00  0.78126454809E+00  0.11801592503E+01  0.00000000000E+00 0.  1.
         11    1    3    3    0    0  0.80774943579E+01  0.99400495092E+00  0.45062613483E+01  0.93027067322E+01  0.51100000000E-03 0. -1.
        -11    1    3    3    0    0 -0.22701187468E+02 -0.21662417503E+02  0.25695238350E+02  0.40556744429E+02  0.51100000000E-03 0.  1.
         12    1    3    3    0    0  0.14036079231E+02  0.21329556630E+02 -0.30982764247E+02  0.40148389589E+02  0.00000000000E+00 0. -1.
</event>
<event>
 7    1  0.2593256E-015  0.9000774E+02  0.7816164E-02  0.1186339E+00
        -11   -1    0    0    0    0  0.00000000000E+00  0.00000000000E+00  0.45593999997E+02  0.45594000000E+02  0.51100000000E-03 0.  1.
         11   -1    0    0    0    0 -0.00000000000E+00 -0.00000000000E+00 -0.45593999997E+02  0.45594000000E+02  0.51100000000E-03 0. -1.
    9900012    2    1    2    0    0 -0.96954595877E+00 -0.49388914348E+00 -0.45723915566E+00  0.90007740072E+02  0.90000001441E+02 0.  0.
        -12    1    1    2    0    0  0.96954595877E+00  0.49388914348E+00  0.45723915566E+00  0.11802599280E+01  0.00000000000E+00 0.  1.
         11    1    3    3    0    0 -0.46596601576E+01  0.32463867915E+02 -0.15364539524E+02  0.36217181390E+02  0.51100000000E-03 0. -1.
        -11    1    3    3    0    0  0.43350783476E+01  0.84471654841E+01 -0.73894984494E+00  0.95233164459E+01  0.51100000000E-03 0.  1.
        -12    1    3    3    0    0 -0.64496414878E+00 -0.41404922542E+02  0.15646250213E+02  0.44267242236E+02  0.00000000000E+00 0.  1.
</event>
<event>
 7    1  0.2593256E-015  0.9000763E+02  0.7816164E-02  0.1186339E+00
        -11   -1    0    0    0    0  0.00000000000E+00  0.00000000000E+00  0.45593999997E+02  0.45594000000E+02  0.51100000000E-03 0. -1.
         11   -1    0    0    0    0 -0.00000000000E+00 -0.00000000000E+00 -0.45593999997E+02  0.45594000000E+02  0.51100000000E-03 0.  1.
    9900012    2    1    2    0    0  0.11263408102E+01  0.67676788670E-01 -0.34648769614E+00  0.90007628240E+02  0.89999888133E+02 0.  0.
        -12    1    1    2    0    0 -0.11263408102E+01 -0.67676788670E-01  0.34648769614E+00  0.11803717600E+01  0.00000000000E+00 0.  1.
         11    1    3    3    0    0 -0.80925192674E+01 -0.10084318192E+02  0.32026107049E+02  0.34537716695E+02  0.51100000000E-03 0. -1.
        -11    1    3    3    0    0 -0.87395041846E+01 -0.54427999092E+01  0.47839332911E+01  0.11352930117E+02  0.51100000000E-03 0.  1.
        -12    1    3    3    0    0  0.17958364262E+02  0.15594794890E+02 -0.37156528037E+02  0.44116981428E+02  0.00000000000E+00 0.  1.
</event>
<event>
 7    1  0.2593256E-015  0.9000766E+02  0.7816164E-02  0.1186339E+00
        -11   -1    0    0    0    0  0.00000000000E+00  0.00000000000E+00  0.45593999997E+02  0.45594000000E+02  0.51100000000E-03 0.  1.
         11   -1    0    0    0    0 -0.00000000000E+00 -0.00000000000E+00 -0.45593999997E+02  0.45594000000E+02  0.51100000000E-03 0. -1.
    9900012    2    1    2    0    0 -0.68271168211E+00  0.83872185229E+00 -0.47291114249E+00  0.90007663381E+02  0.89999923737E+02 0.  0.
        -12    1    1    2    0    0  0.68271168211E+00 -0.83872185229E+00  0.47291114249E+00  0.11803366194E+01  0.00000000000E+00 0.  1.
         11    1    3    3    0    0  0.31776408087E+02 -0.83702286742E+01 -0.24275594378E+02  0.40854685431E+02  0.51100000000E-03 0. -1.
        -11    1    3    3    0    0 -0.69779858952E+01  0.83367119851E+01 -0.38565265915E+01  0.11535417265E+02  0.51100000000E-03 0.  1.
        -12    1    3    3    0    0 -0.25481133874E+02  0.87223854144E+00  0.27659209827E+02  0.37617560684E+02  0.00000000000E+00 0.  1.
</event>
<event>
 7    1  0.2593256E-015  0.9000772E+02  0.7816164E-02  0.1186339E+00
        -11   -1    0    0    0    0  0.00000000000E+00  0.00000000000E+00  0.45593999997E+02  0.45594000000E+02  0.51100000000E-03 0.  1.
         11   -1    0    0    0    0 -0.00000000000E+00 -0.00000000000E+00 -0.45593999997E+02  0.45594000000E+02  0.51100000000E-03 0. -1.
    9900012    2    1    2    0    0 -0.87854027115E+00  0.73151816886E+00 -0.29346155856E+00  0.90007715489E+02  0.89999976534E+02 0.  0.
        -12    1    1    2    0    0  0.87854027115E+00 -0.73151816886E+00  0.29346155856E+00  0.11802845105E+01  0.00000000000E+00 0.  1.
         11    1    3    3    0    0  0.45047573095E+01 -0.49755926459E+01  0.92914723480E+01  0.11462147236E+02  0.51100000000E-03 0. -1.
        -11    1    3    3    0    0 -0.42655133048E+01 -0.10716692643E+02  0.31896034065E+02  0.33917533729E+02  0.51100000000E-03 0.  1.
         12    1    3    3    0    0 -0.11177842759E+01  0.16423803458E+02 -0.41480967971E+02  0.44628034525E+02  0.00000000000E+00 0. -1.
</event>
<event>
 7    1  0.2593256E-015  0.9000770E+02  0.7816164E-02  0.1186339E+00
        -11   -1    0    0    0    0  0.00000000000E+00  0.00000000000E+00  0.45593999997E+02  0.45594000000E+02  0.51100000000E-03 0.  1.
         11   -1    0    0    0    0 -0.00000000000E+00 -0.00000000000E+00 -0.45593999997E+02  0.45594000000E+02  0.51100000000E-03 0. -1.
    9900012    2    1    2    0    0 -0.57233859689E+00 -0.61285321572E+00 -0.83063619389E+00  0.90007696217E+02  0.89999957007E+02 0.  0.
        -12    1    1    2    0    0  0.57233859689E+00  0.61285321572E+00  0.83063619389E+00  0.11803037830E+01  0.00000000000E+00 0.  1.
         11    1    3    3    0    0 -0.79801453718E+01 -0.98571447473E+01 -0.15669899524E+02  0.20159161046E+02  0.51100000000E-03 0. -1.
        -11    1    3    3    0    0 -0.24319140582E+01 -0.28544973390E+02  0.10696286253E+02  0.30580062977E+02  0.51100000000E-03 0.  1.
        -12    1    3    3    0    0  0.98397208331E+01  0.37789264922E+02  0.41429770769E+01  0.39268472194E+02  0.00000000000E+00 0.  1.
</event>
<event>
 7    1  0.2593256E-015  0.9000774E+02  0.7816164E-02  0.1186339E+00
        -11   -1    0    0    0    0  0.00000000000E+00  0.00000000000E+00  0.45593999997E+02  0.45594000000E+02  0.51100000000E-03 0.  1.
         11   -1    0    0    0    0 -0.00000000000E+00 -0.00000000000E+00 -0.45593999997E+02  0.45594000000E+02  0.51100000000E-03 0. -1.
    9900012    2    1    2    0    0  0.11376817802E+01  0.22822724262E+00 -0.21590202170E+00  0.90007736813E+02  0.89999998139E+02 0.  0.
        -12    1    1    2    0    0 -0.11376817802E+01 -0.22822724262E+00  0.21590202170E+00  0.11802631868E+01  0.00000000000E+00 0.  1.
         11    1    3    3    0    0  0.67938666009E+01 -0.35811062959E+02 -0.11744255850E+02  0.38295122396E+02  0.51100000000E-03 0. -1.
        -11    1    3    3    0    0  0.61077560844E+01 -0.44048268911E+01  0.51236654557E+01  0.91081903960E+01  0.51100000000E-03 0.  1.
        -12    1    3    3    0    0 -0.11763940905E+02  0.40444117092E+02  0.64046883724E+01  0.42604424021E+02  0.00000000000E+00 0.  1.
</event>
<event>
 7    1  0.2593256E-015  0.9000774E+02  0.7816164E-02  0.1186339E+00
        -11   -1    0    0    0    0  0.00000000000E+00  0.00000000000E+00  0.45593999997E+02  0.45594000000E+02  0.51100000000E-03 0. -1.
         11   -1    0    0    0    0 -0.00000000000E+00 -0.00000000000E+00 -0.45593999997E+02  0.45594000000E+02  0.51100000000E-03 0.  1.
    9900012    2    1    2    0    0  0.93363846738E-01  0.57071206027E+00  0.10288805533E+01  0.90007735514E+02  0.89999996823E+02 0.  0.
        -12    1    1    2    0    0 -0.93363846738E-01 -0.57071206027E+00 -0.10288805533E+01  0.11802644859E+01  0.00000000000E+00 0.  1.
         11    1    3    3    0    0  0.68164196359E+01  0.32437597210E+01  0.62234313028E+01  0.97834887040E+01  0.51100000000E-03 0. -1.
        -11    1    3    3    0    0  0.39149355889E+01 -0.70831089248E+01 -0.41424747057E+02  0.42207899992E+02  0.51100000000E-03 0.  1.
         12    1    3    3    0    0 -0.10637991378E+02  0.44100612641E+01  0.36230196308E+02  0.38016346818E+02  0.00000000000E+00 0. -1.
</event>
<event>
 7    1  0.2593256E-015  0.9000776E+02  0.7816164E-02  0.1186339E+00
        -11   -1    0    0    0    0  0.00000000000E+00  0.00000000000E+00  0.45593999997E+02  0.45594000000E+02  0.51100000000E-03 0.  1.
         11   -1    0    0    0    0 -0.00000000000E+00 -0.00000000000E+00 -0.45593999997E+02  0.45594000000E+02  0.51100000000E-03 0. -1.
    9900012    2    1    2    0    0 -0.75011575639E+00  0.36307616965E+00 -0.83574129792E+00  0.90007762113E+02  0.90000023773E+02 0.  0.
        -12    1    1    2    0    0  0.75011575639E+00 -0.36307616965E+00  0.83574129792E+00  0.11802378870E+01  0.00000000000E+00 0.  1.
         11    1    3    3    0    0  0.30672079352E+02  0.14548693796E+02 -0.17154112528E+02  0.38035569141E+02  0.51100000000E-03 0. -1.
        -11    1    3    3    0    0  0.76075162314E+01 -0.91673224905E+00  0.72377420592E-01  0.76628937079E+01  0.51100000000E-03 0.  1.
        -12    1    3    3    0    0 -0.39029711340E+02 -0.13268885378E+02  0.16245993809E+02  0.44309299264E+02  0.00000000000E+00 0.  1.
</event>
<event>
 7    1  0.2593256E-015  0.9000780E+02  0.7816164E-02  0.1186339E+00
        -11   -1    0    0    0    0  0.00000000000E+00  0.00000000000E+00  0.45593999997E+02  0.45594000000E+02  0.51100000000E-03 0.  1.
         11   -1    0    0    0    0 -0.00000000000E+00 -0.00000000000E+00 -0.45593999997E+02  0.45594000000E+02  0.51100000000E-03 0. -1.
    9900012    2    1    2    0    0  0.36059511649E-01  0.11795987032E+01 -0.11365292197E-01  0.90007795544E+02  0.90000057645E+02 0.  0.
        -12    1    1    2    0    0 -0.36059511649E-01 -0.11795987032E+01  0.11365292197E-01  0.11802044564E+01  0.00000000000E+00 0.  1.
         11    1    3    3    0    0  0.93330637675E+01 -0.26356650234E+01  0.50112390805E+01  0.10916287225E+02  0.51100000000E-03 0. -1.
        -11    1    3    3    0    0 -0.11794987416E+02 -0.21857794408E+02  0.27843854405E+02  0.37311729161E+02  0.51100000000E-03 0.  1.
         12    1    3    3    0    0  0.24979831603E+01  0.25673058135E+02 -0.32866458778E+02  0.41779779158E+02  0.00000000000E+00 0. -1.
</event>
<event>
 7    1  0.2593256E-015  0.9000780E+02  0.7816164E-02  0.1186339E+00
        -11   -1    0    0    0    0  0.00000000000E+00  0.00000000000E+00  0.45593999997E+02  0.45594000000E+02  0.51100000000E-03 0.  1.
         11   -1    0    0    0    0 -0.00000000000E+00 -0.00000000000E+00 -0.45593999997E+02  0.45594000000E+02  0.51100000000E-03 0. -1.
    9900012    2    1    2    0    0 -0.10797810910E+01 -0.88973164326E-01 -0.46800679626E+00  0.90007799259E+02  0.90000061409E+02 0.  0.
        -12    1    1    2    0    0  0.10797810910E+01  0.88973164326E-01  0.46800679626E+00  0.11802007413E+01  0.00000000000E+00 0.  1.
         11    1    3    3    0    0 -0.36235123165E+01 -0.73032521589E+01  0.45056986148E+01  0.93149693436E+01  0.51100000000E-03 0. -1.
        -11    1    3    3    0    0 -0.30784846834E+02 -0.14090398279E+02  0.14225699600E+02  0.36723516275E+02  0.51100000000E-03 0.  1.
         12    1    3    3    0    0  0.33328578059E+02  0.21304677274E+02 -0.19199405011E+02  0.43969313640E+02  0.00000000000E+00 0. -1.
</event>
<event>
 7    1  0.2593256E-015  0.9000773E+02  0.7816164E-02  0.1186339E+00
        -11   -1    0    0    0    0  0.00000000000E+00  0.00000000000E+00  0.45593999997E+02  0.45594000000E+02  0.51100000000E-03 0.  1.
         11   -1    0    0    0    0 -0.00000000000E+00 -0.00000000000E+00 -0.45593999997E+02  0.45594000000E+02  0.51100000000E-03 0. -1.
    9900012    2    1    2    0    0 -0.13195544702E+00 -0.90667018557E+00 -0.74403245487E+00  0.90007725727E+02  0.89999986907E+02 0.  0.
        -12    1    1    2    0    0  0.13195544702E+00  0.90667018557E+00  0.74403245487E+00  0.11802742729E+01  0.00000000000E+00 0.  1.
         11    1    3    3    0    0 -0.73022824236E+01 -0.22784708063E+02  0.28737857045E+02  0.37394259960E+02  0.51100000000E-03 0. -1.
        -11    1    3    3    0    0 -0.57680522090E+01 -0.60927467643E+01  0.19289035242E+01  0.86088709182E+01  0.51100000000E-03 0.  1.
        -12    1    3    3    0    0  0.12938379186E+02  0.27970784642E+02 -0.31410793024E+02  0.44004594849E+02  0.00000000000E+00 0.  1.
</event>
<event>
 7    1  0.2616533E-015  0.9000775E+02  0.7816164E-02  0.1186339E+00
        -11   -1    0    0    0    0  0.00000000000E+00  0.00000000000E+00  0.45593999997E+02  0.45594000000E+02  0.51100000000E-03 0. -1.
         11   -1    0    0    0    0 -0.00000000000E+00 -0.00000000000E+00 -0.45593999997E+02  0.45594000000E+02  0.51100000000E-03 0.  1.
    9900012    2    1    2    0    0  0.22200167849E+00 -0.11566432357E+01 -0.76647136391E-01  0.90007752948E+02  0.90000014487E+02 0.  0.
        -12    1    1    2    0    0 -0.22200167849E+00  0.11566432357E+01  0.76647136391E-01  0.11802470519E+01  0.00000000000E+00 0.  1.
         11    1    3    3    0    0  0.33315505695E+02 -0.11640739442E+00  0.17225182836E+02  0.37505244892E+02  0.51100000000E-03 0. -1.
        -11    1    3    3    0    0  0.59283907801E+01 -0.70855481311E+01  0.35920135165E+00  0.92455305652E+01  0.51100000000E-03 0.  1.
        -12    1    3    3    0    0 -0.39021894797E+02  0.60453122898E+01 -0.17661031324E+02  0.43256977491E+02  0.00000000000E+00 0.  1.
</event>
<event>
 7    1  0.2593256E-015  0.9000771E+02  0.7816164E-02  0.1186339E+00
        -11   -1    0    0    0    0  0.00000000000E+00  0.00000000000E+00  0.45593999997E+02  0.45594000000E+02  0.51100000000E-03 0.  1.
         11   -1    0    0    0    0 -0.00000000000E+00 -0.00000000000E+00 -0.45593999997E+02  0.45594000000E+02  0.51100000000E-03 0. -1.
    9900012    2    1    2    0    0  0.26412256668E+00  0.84437035800E+00 -0.78126013135E+00  0.90007707907E+02  0.89999968851E+02 0.  0.
        -12    1    1    2    0    0 -0.26412256668E+00 -0.84437035800E+00  0.78126013135E+00  0.11802920929E+01  0.00000000000E+00 0.  1.
         11    1    3    3    0    0  0.72693642839E+01  0.16863699619E+02 -0.30985253775E+02  0.36018245011E+02  0.51100000000E-03 0. -1.
        -11    1    3    3    0    0  0.28058413528E+01 -0.53535327403E+01 -0.97594489330E+01  0.11479542771E+02  0.51100000000E-03 0.  1.
        -12    1    3    3    0    0 -0.98110830700E+01 -0.10665796521E+02  0.39963442577E+02  0.42509920125E+02  0.00000000000E+00 0.  1.
</event>
<event>
 7    1  0.2593256E-015  0.9000774E+02  0.7816164E-02  0.1186339E+00
        -11   -1    0    0    0    0  0.00000000000E+00  0.00000000000E+00  0.45593999997E+02  0.45594000000E+02  0.51100000000E-03 0.  1.
         11   -1    0    0    0    0 -0.00000000000E+00 -0.00000000000E+00 -0.45593999997E+02  0.45594000000E+02  0.51100000000E-03 0. -1.
    9900012    2    1    2    0    0  0.70258353404E-01 -0.11591062658E+01 -0.21104638344E+00  0.90007744033E+02  0.90000005454E+02 0.  0.
        -12    1    1    2    0    0 -0.70258353404E-01  0.11591062658E+01  0.21104638344E+00  0.11802559670E+01  0.00000000000E+00 0.  1.
         11    1    3    3    0    0  0.22068853406E+02 -0.43904368350E+01 -0.13714086579E+02  0.26351212443E+02  0.51100000000E-03 0. -1.
        -11    1    3    3    0    0  0.10254458123E+02 -0.16723502953E+02 -0.66426043900E+01  0.20711196386E+02  0.51100000000E-03 0.  1.
         12    1    3    3    0    0 -0.32253053175E+02  0.19954833522E+02  0.20145644586E+02  0.42945335204E+02  0.00000000000E+00 0. -1.
</event>
<event>
 7    1  0.2593256E-015  0.9000775E+02  0.7816164E-02  0.1186339E+00
        -11   -1    0    0    0    0  0.00000000000E+00  0.00000000000E+00  0.45593999997E+02  0.45594000000E+02  0.51100000000E-03 0. -1.
         11   -1    0    0    0    0 -0.00000000000E+00 -0.00000000000E+00 -0.45593999997E+02  0.45594000000E+02  0.51100000000E-03 0.  1.
    9900012    2    1    2    0    0 -0.66454068587E+00 -0.79339927706E+00 -0.56736659620E+00  0.90007745116E+02  0.90000006552E+02 0.  0.
        -12    1    1    2    0    0  0.66454068587E+00  0.79339927706E+00  0.56736659620E+00  0.11802548837E+01  0.00000000000E+00 0.  1.
         11    1    3    3    0    0  0.50230344757E+01  0.63281508661E+01  0.48741922311E+01  0.94357892566E+01  0.51100000000E-03 0. -1.
        -11    1    3    3    0    0  0.31845032418E+02 -0.86918476021E+01  0.16671774691E+02  0.36981108367E+02  0.51100000000E-03 0.  1.
         12    1    3    3    0    0 -0.37532607579E+02  0.15702974589E+01 -0.22113333519E+02  0.43590847493E+02  0.00000000000E+00 0. -1.
</event>
<event>
 7    1  0.2593256E-015  0.9000776E+02  0.7816164E-02  0.1186339E+00
        -11   -1    0    0    0    0  0.00000000000E+00  0.00000000000E+00  0.45593999997E+02  0.45594000000E+02  0.51100000000E-03 0. -1.
         11   -1    0    0    0    0 -0.00000000000E+00 -0.00000000000E+00 -0.45593999997E+02  0.45594000000E+02  0.51100000000E-03 0.  1.
    9900012    2    1    2    0    0  0.58341191097E+00  0.40849228669E+00 -0.94112973669E+00  0.90007762487E+02  0.90000024152E+02 0.  0.
        -12    1    1    2    0    0 -0.58341191097E+00 -0.40849228669E+00  0.94112973669E+00  0.11802375131E+01  0.00000000000E+00 0.  1.
         11    1    3    3    0    0 -0.22911308489E+02 -0.33717195696E+02  0.13190654233E+02  0.42845894805E+02  0.51100000000E-03 0. -1.
        -11    1    3    3    0    0 -0.19759041862E+01  0.61483279295E+01 -0.51888712848E+01  0.82843538766E+01  0.51100000000E-03 0.  1.
        -12    1    3    3    0    0  0.25470624586E+02  0.27977360053E+02 -0.89429126851E+01  0.38877513805E+02  0.00000000000E+00 0.  1.
</event>
<event>
 7    1  0.2593256E-015  0.9000773E+02  0.7816164E-02  0.1186339E+00
        -11   -1    0    0    0    0  0.00000000000E+00  0.00000000000E+00  0.45593999997E+02  0.45594000000E+02  0.51100000000E-03 0.  1.
         11   -1    0    0    0    0 -0.00000000000E+00 -0.00000000000E+00 -0.45593999997E+02  0.45594000000E+02  0.51100000000E-03 0. -1.
    9900012    2    1    2    0    0  0.38545727927E+00 -0.10478086543E+01 -0.38281827887E+00  0.90007733028E+02  0.89999994304E+02 0.  0.
        -12    1    1    2    0    0 -0.38545727927E+00  0.10478086543E+01  0.38281827887E+00  0.11802669718E+01  0.00000000000E+00 0.  1.
         11    1    3    3    0    0 -0.29164547961E+02 -0.33239397736E+01 -0.24666315402E+02  0.38341186069E+02  0.51100000000E-03 0. -1.
        -11    1    3    3    0    0 -0.25161558081E+01  0.78387703033E+01 -0.34318502584E+01  0.89193585182E+01  0.51100000000E-03 0.  1.
        -12    1    3    3    0    0  0.32066161049E+02 -0.55626391840E+01  0.27715347382E+02  0.42747188441E+02  0.00000000000E+00 0.  1.
</event>
<event>
 7    1  0.2593256E-015  0.9000791E+02  0.7816164E-02  0.1186339E+00
        -11   -1    0    0    0    0  0.00000000000E+00  0.00000000000E+00  0.45593999997E+02  0.45594000000E+02  0.51100000000E-03 0.  1.
         11   -1    0    0    0    0 -0.00000000000E+00 -0.00000000000E+00 -0.45593999997E+02  0.45594000000E+02  0.51100000000E-03 0. -1.
    9900012    2    1    2    0    0  0.10260004277E+01  0.40648391685E+00 -0.41798420892E+00  0.90007908118E+02  0.90000171705E+02 0.  0.
        -12    1    1    2    0    0 -0.10260004277E+01 -0.40648391685E+00  0.41798420892E+00  0.11800918825E+01  0.00000000000E+00 0.  1.
         11    1    3    3    0    0 -0.91818747313E+01  0.39343206316E+01  0.76972800737E+00  0.10018891350E+02  0.51100000000E-03 0. -1.
        -11    1    3    3    0    0 -0.21249885573E+02  0.12512039415E+02  0.25691710408E+02  0.35611413214E+02  0.51100000000E-03 0.  1.
         12    1    3    3    0    0  0.31457760732E+02 -0.16039876130E+02 -0.26879422624E+02  0.44377603553E+02  0.00000000000E+00 0. -1.
</event>
<event>
 7    1  0.2593256E-015  0.9000775E+02  0.7816164E-02  0.1186339E+00
        -11   -1    0    0    0    0  0.00000000000E+00  0.00000000000E+00  0.45593999997E+02  0.45594000000E+02  0.51100000000E-03 0. -1.
         11   -1    0    0    0    0 -0.00000000000E+00 -0.00000000000E+00 -0.45593999997E+02  0.45594000000E+02  0.51100000000E-03 0.  1.
    9900012    2    1    2    0    0 -0.93442624556E+00  0.36585810131E+00  0.62127030991E+00  0.90007753688E+02  0.90000015237E+02 0.  0.
        -12    1    1    2    0    0  0.93442624556E+00 -0.36585810131E+00 -0.62127030991E+00  0.11802463119E+01  0.00000000000E+00 0.  1.
         11    1    3    3    0    0  0.33477966221E+02  0.80218657048E+01 -0.10500068133E+02  0.35991332050E+02  0.51100000000E-03 0. -1.
        -11    1    3    3    0    0  0.86470874361E+01 -0.30531137380E+01 -0.48559094951E+00  0.91831053275E+01  0.51100000000E-03 0.  1.
        -12    1    3    3    0    0 -0.43059479903E+02 -0.46028938655E+01  0.11606929392E+02  0.44833316310E+02  0.00000000000E+00 0.  1.
</event>
<event>
 7    1  0.2593256E-015  0.9000774E+02  0.7816164E-02  0.1186339E+00
        -11   -1    0    0    0    0  0.00000000000E+00  0.00000000000E+00  0.45593999997E+02  0.45594000000E+02  0.51100000000E-03 0. -1.
         11   -1    0    0    0    0 -0.00000000000E+00 -0.00000000000E+00 -0.45593999997E+02  0.45594000000E+02  0.51100000000E-03 0.  1.
    9900012    2    1    2    0    0 -0.79719004463E+00  0.84638101105E+00 -0.20284659789E+00  0.90007737518E+02  0.89999998854E+02 0.  0.
        -12    1    1    2    0    0  0.79719004463E+00 -0.84638101105E+00  0.20284659789E+00  0.11802624816E+01  0.00000000000E+00 0.  1.
         11    1    3    3    0    0 -0.85239577734E+01  0.39466131002E+01  0.82882079279E+00  0.94297696289E+01  0.51100000000E-03 0. -1.
        -11    1    3    3    0    0  0.13178068453E+02  0.62864251663E+01 -0.38707464629E+02  0.41369656123E+02  0.51100000000E-03 0.  1.
         12    1    3    3    0    0 -0.54513007238E+01 -0.93866572555E+01  0.37675797238E+02  0.39208311766E+02  0.00000000000E+00 0. -1.
</event>
<event>
 7    1  0.2593256E-015  0.9000777E+02  0.7816164E-02  0.1186339E+00
        -11   -1    0    0    0    0  0.00000000000E+00  0.00000000000E+00  0.45593999997E+02  0.45594000000E+02  0.51100000000E-03 0.  1.
         11   -1    0    0    0    0 -0.00000000000E+00 -0.00000000000E+00 -0.45593999997E+02  0.45594000000E+02  0.51100000000E-03 0. -1.
    9900012    2    1    2    0    0  0.69647326668E+00 -0.94438659331E+00  0.12650969913E+00  0.90007768771E+02  0.90000030519E+02 0.  0.
        -12    1    1    2    0    0 -0.69647326668E+00  0.94438659331E+00 -0.12650969913E+00  0.11802312285E+01  0.00000000000E+00 0.  1.
         11    1    3    3    0    0  0.66004708698E+01  0.38738899732E+01 -0.35577223547E+01  0.84398239224E+01  0.51100000000E-03 0. -1.
        -11    1    3    3    0    0 -0.30226673814E+02  0.24407262877E+02  0.15384534266E+02  0.41785765350E+02  0.51100000000E-03 0.  1.
         12    1    3    3    0    0  0.24322676211E+02 -0.29225539444E+02 -0.11700302212E+02  0.39782179499E+02  0.00000000000E+00 0. -1.
</event>
<event>
 7    1  0.2593256E-015  0.9000775E+02  0.7816164E-02  0.1186339E+00
        -11   -1    0    0    0    0  0.00000000000E+00  0.00000000000E+00  0.45593999997E+02  0.45594000000E+02  0.51100000000E-03 0. -1.
         11   -1    0    0    0    0 -0.00000000000E+00 -0.00000000000E+00 -0.45593999997E+02  0.45594000000E+02  0.51100000000E-03 0.  1.
    9900012    2    1    2    0    0 -0.34916865177E+00 -0.64468195955E+00  0.92491301610E+00  0.90007746780E+02  0.90000008237E+02 0.  0.
        -12    1    1    2    0    0  0.34916865177E+00  0.64468195955E+00 -0.92491301610E+00  0.11802532202E+01  0.00000000000E+00 0.  1.
         11    1    3    3    0    0  0.28550734703E+01  0.45821732702E+01  0.82372999211E+01  0.98489017992E+01  0.51100000000E-03 0. -1.
        -11    1    3    3    0    0  0.10144349312E+01  0.34925054206E+02 -0.16674417673E+02  0.38714657360E+02  0.51100000000E-03 0.  1.
         12    1    3    3    0    0 -0.42186770533E+01 -0.40151909436E+02  0.93620307678E+01  0.41444187620E+02  0.00000000000E+00 0. -1.
</event>
<event>
 7    1  0.2593256E-015  0.9000733E+02  0.7816164E-02  0.1186340E+00
        -11   -1    0    0    0    0  0.00000000000E+00  0.00000000000E+00  0.45593999997E+02  0.45594000000E+02  0.51100000000E-03 0. -1.
         11   -1    0    0    0    0 -0.00000000000E+00 -0.00000000000E+00 -0.45593999997E+02  0.45594000000E+02  0.51100000000E-03 0.  1.
    9900012    2    1    2    0    0  0.49714567722E+00  0.73397644236E+00  0.77980769641E+00  0.90007332695E+02  0.89999588685E+02 0.  0.
        -12    1    1    2    0    0 -0.49714567722E+00 -0.73397644236E+00 -0.77980769641E+00  0.11806673053E+01  0.00000000000E+00 0.  1.
         11    1    3    3    0    0  0.81540783493E+01  0.31916932736E+02  0.16138943434E+02  0.36683035377E+02  0.51100000000E-03 0. -1.
        -11    1    3    3    0    0  0.45733350043E+01  0.73031556449E+01  0.27807321769E+01  0.90544987236E+01  0.51100000000E-03 0.  1.
        -12    1    3    3    0    0 -0.12230267676E+02 -0.38486111939E+02 -0.18139867915E+02  0.44269798594E+02  0.00000000000E+00 0.  1.
</event>
<event>
 7    1  0.2593256E-015  0.9000742E+02  0.7816164E-02  0.1186340E+00
        -11   -1    0    0    0    0  0.00000000000E+00  0.00000000000E+00  0.45593999997E+02  0.45594000000E+02  0.51100000000E-03 0.  1.
         11   -1    0    0    0    0 -0.00000000000E+00 -0.00000000000E+00 -0.45593999997E+02  0.45594000000E+02  0.51100000000E-03 0. -1.
    9900012    2    1    2    0    0 -0.10554565165E+01 -0.24163408028E+00 -0.47051600133E+00  0.90007423533E+02  0.89999680723E+02 0.  0.
        -12    1    1    2    0    0  0.10554565165E+01  0.24163408028E+00  0.47051600133E+00  0.11805764670E+01  0.00000000000E+00 0.  1.
         11    1    3    3    0    0  0.43712056306E+01  0.56572991805E+01 -0.32332757556E+01  0.78464351814E+01  0.51100000000E-03 0. -1.
        -11    1    3    3    0    0 -0.23337289838E+02  0.28945867882E+02  0.16453024624E+02  0.40659493159E+02  0.51100000000E-03 0.  1.
         12    1    3    3    0    0  0.17910627691E+02 -0.34844801143E+02 -0.13690264870E+02  0.41501495192E+02  0.00000000000E+00 0. -1.
</event>
<event>
 7    1  0.2593256E-015  0.9000798E+02  0.7816164E-02  0.1186339E+00
        -11   -1    0    0    0    0  0.00000000000E+00  0.00000000000E+00  0.45593999997E+02  0.45594000000E+02  0.51100000000E-03 0.  1.
         11   -1    0    0    0    0 -0.00000000000E+00 -0.00000000000E+00 -0.45593999997E+02  0.45594000000E+02  0.51100000000E-03 0. -1.
    9900012    2    1    2    0    0  0.10214282281E+01 -0.44875846792E+00  0.38437678046E+00  0.90007980807E+02  0.90000245353E+02 0.  0.
        -12    1    1    2    0    0 -0.10214282281E+01  0.44875846792E+00 -0.38437678046E+00  0.11800191935E+01  0.00000000000E+00 0.  1.
         11    1    3    3    0    0 -0.83943794958E+00 -0.12226283168E+02  0.68612541271E+00  0.12274258614E+02  0.51100000000E-03 0. -1.
        -11    1    3    3    0    0 -0.32749453162E+02 -0.91680844957E+01  0.10976795935E+02  0.35736123251E+02  0.51100000000E-03 0.  1.
         12    1    3    3    0    0  0.34610319339E+02  0.20945609196E+02 -0.11278544567E+02  0.41997598942E+02  0.00000000000E+00 0. -1.
</event>
<event>
 7    1  0.2593256E-015  0.9000816E+02  0.7816164E-02  0.1186338E+00
        -11   -1    0    0    0    0  0.00000000000E+00  0.00000000000E+00  0.45593999997E+02  0.45594000000E+02  0.51100000000E-03 0. -1.
         11   -1    0    0    0    0 -0.00000000000E+00 -0.00000000000E+00 -0.45593999997E+02  0.45594000000E+02  0.51100000000E-03 0.  1.
    9900012    2    1    2    0    0 -0.22298051515E+00 -0.92963622701E+00  0.69143917055E+00  0.90008155963E+02  0.90000422821E+02 0.  0.
        -12    1    1    2    0    0  0.22298051515E+00  0.92963622701E+00 -0.69143917055E+00  0.11798440369E+01  0.00000000000E+00 0.  1.
         11    1    3    3    0    0 -0.37434768390E+01 -0.22733570617E+01 -0.78824165014E+01  0.90174420617E+01  0.51100000000E-03 0. -1.
        -11    1    3    3    0    0  0.16486371018E+02  0.10458154830E+02 -0.31969541999E+02  0.37459645590E+02  0.51100000000E-03 0.  1.
         12    1    3    3    0    0 -0.12965874694E+02 -0.91144339954E+01  0.40543397671E+02  0.43531068312E+02  0.00000000000E+00 0. -1.
</event>
<event>
 7    1  0.2983305E-015  0.9000773E+02  0.7816164E-02  0.1186339E+00
        -11   -1    0    0    0    0  0.00000000000E+00  0.00000000000E+00  0.45593999997E+02  0.45594000000E+02  0.51100000000E-03 0. -1.
         11   -1    0    0    0    0 -0.00000000000E+00 -0.00000000000E+00 -0.45593999997E+02  0.45594000000E+02  0.51100000000E-03 0.  1.
    9900012    2    1    2    0    0 -0.94246390475E+00 -0.48081796830E+00  0.52307399623E+00  0.90007732854E+02  0.89999994128E+02 0.  0.
        -12    1    1    2    0    0  0.94246390475E+00  0.48081796830E+00 -0.52307399623E+00  0.11802671460E+01  0.00000000000E+00 0.  1.
         11    1    3    3    0    0 -0.18620929164E+02  0.27488340922E+02  0.26395328521E+02  0.42415342242E+02  0.51100000000E-03 0. -1.
        -11    1    3    3    0    0  0.65696737562E+01 -0.56914135392E+01  0.32505074019E+01  0.92800107741E+01  0.51100000000E-03 0.  1.
        -12    1    3    3    0    0  0.11108791503E+02 -0.22277745351E+02 -0.29122761927E+02  0.38312379837E+02  0.00000000000E+00 0.  1.
</event>
<event>
 7    1  0.2593256E-015  0.9000770E+02  0.7816164E-02  0.1186339E+00
        -11   -1    0    0    0    0  0.00000000000E+00  0.00000000000E+00  0.45593999997E+02  0.45594000000E+02  0.51100000000E-03 0.  1.
         11   -1    0    0    0    0 -0.00000000000E+00 -0.00000000000E+00 -0.45593999997E+02  0.45594000000E+02  0.51100000000E-03 0. -1.
    9900012    2    1    2    0    0  0.68510303726E-01  0.11053319274E+01 -0.40824094682E+00  0.90007697919E+02  0.89999958732E+02 0.  0.
        -12    1    1    2    0    0 -0.68510303726E-01 -0.11053319274E+01  0.40824094682E+00  0.11803020809E+01  0.00000000000E+00 0.  1.
         11    1    3    3    0    0 -0.22622911964E+02 -0.34595734185E+02 -0.12127626959E+02  0.43078304348E+02  0.51100000000E-03 0. -1.
        -11    1    3    3    0    0  0.87027327476E+01  0.20565831955E+01  0.33057155616E+01  0.95338789247E+01  0.51100000000E-03 0.  1.
        -12    1    3    3    0    0  0.13988689520E+02  0.33644482917E+02  0.84136704502E+01  0.37395514647E+02  0.00000000000E+00 0.  1.
</event>
<event>
 7    1  0.2593256E-015  0.9000764E+02  0.7816164E-02  0.1186339E+00
        -11   -1    0    0    0    0  0.00000000000E+00  0.00000000000E+00  0.45593999997E+02  0.45594000000E+02  0.51100000000E-03 0.  1.
         11   -1    0    0    0    0 -0.00000000000E+00 -0.00000000000E+00 -0.45593999997E+02  0.45594000000E+02  0.51100000000E-03 0. -1.
    9900012    2    1    2    0    0  0.41012312153E+00  0.47998221635E+00 -0.99732640001E+00  0.90007642490E+02  0.89999902571E+02 0.  0.
        -12    1    1    2    0    0 -0.41012312153E+00 -0.47998221635E+00  0.99732640001E+00  0.11803575098E+01  0.00000000000E+00 0.  1.
         11    1    3    3    0    0 -0.56115359193E+01 -0.18331528776E+01  0.91237669723E+01  0.10867056127E+02  0.51100000000E-03 0. -1.
        -11    1    3    3    0    0 -0.64348329374E+01  0.37086714143E+02  0.72333441344E+01  0.38329527893E+02  0.51100000000E-03 0.  1.
         12    1    3    3    0    0  0.12456491978E+02 -0.34773579049E+02 -0.17354437507E+02  0.40811058470E+02  0.00000000000E+00 0. -1.
</event>
<event>
 7    1  0.2593256E-015  0.9000773E+02  0.7816164E-02  0.1186339E+00
        -11   -1    0    0    0    0  0.00000000000E+00  0.00000000000E+00  0.45593999997E+02  0.45594000000E+02  0.51100000000E-03 0.  1.
         11   -1    0    0    0    0 -0.00000000000E+00 -0.00000000000E+00 -0.45593999997E+02  0.45594000000E+02  0.51100000000E-03 0. -1.
    9900012    2    1    2    0    0  0.91717682179E+00 -0.41659220571E+00 -0.61504865376E+00  0.90007725780E+02  0.89999986960E+02 0.  0.
        -12    1    1    2    0    0 -0.91717682179E+00  0.41659220571E+00  0.61504865376E+00  0.11802742202E+01  0.00000000000E+00 0.  1.
         11    1    3    3    0    0  0.11037421693E+02  0.14991124244E+01 -0.37340464398E+02  0.38966425258E+02  0.51100000000E-03 0. -1.
        -11    1    3    3    0    0 -0.30384181110E+01  0.73916726044E+01 -0.38092239911E+01  0.88531912994E+01  0.51100000000E-03 0.  1.
        -12    1    3    3    0    0 -0.70818267599E+01 -0.93073772345E+01  0.40534639736E+02  0.42188109222E+02  0.00000000000E+00 0.  1.
</event>
<event>
 7    1  0.2593256E-015  0.9000765E+02  0.7816164E-02  0.1186339E+00
        -11   -1    0    0    0    0  0.00000000000E+00  0.00000000000E+00  0.45593999997E+02  0.45594000000E+02  0.51100000000E-03 0. -1.
         11   -1    0    0    0    0 -0.00000000000E+00 -0.00000000000E+00 -0.45593999997E+02  0.45594000000E+02  0.51100000000E-03 0.  1.
    9900012    2    1    2    0    0  0.69167109663E+00 -0.46271680883E+00  0.83709053540E+00  0.90007645682E+02  0.89999905805E+02 0.  0.
        -12    1    1    2    0    0 -0.69167109663E+00  0.46271680883E+00 -0.83709053540E+00  0.11803543178E+01  0.00000000000E+00 0.  1.
         11    1    3    3    0    0 -0.70514672812E+01  0.54125022321E+01 -0.11505229255E+01  0.89633740574E+01  0.51100000000E-03 0. -1.
        -11    1    3    3    0    0 -0.32155872145E+02 -0.14658694445E+00 -0.17127727695E+02  0.36433235615E+02  0.51100000000E-03 0.  1.
         12    1    3    3    0    0  0.39899010522E+02 -0.57286320964E+01  0.19115341156E+02  0.44611036010E+02  0.00000000000E+00 0. -1.
</event>
<event>
 7    1  0.2593256E-015  0.9000775E+02  0.7816164E-02  0.1186339E+00
        -11   -1    0    0    0    0  0.00000000000E+00  0.00000000000E+00  0.45593999997E+02  0.45594000000E+02  0.51100000000E-03 0.  1.
         11   -1    0    0    0    0 -0.00000000000E+00 -0.00000000000E+00 -0.45593999997E+02  0.45594000000E+02  0.51100000000E-03 0. -1.
    9900012    2    1    2    0    0 -0.88115591733E+00  0.60651731771E+00 -0.49867925639E+00  0.90007754259E+02  0.90000015816E+02 0.  0.
        -12    1    1    2    0    0  0.88115591733E+00 -0.60651731771E+00  0.49867925639E+00  0.11802457405E+01  0.00000000000E+00 0.  1.
         11    1    3    3    0    0 -0.24704008924E+02  0.82991254170E+01 -0.25906513036E+02  0.36746577495E+02  0.51100000000E-03 0. -1.
        -11    1    3    3    0    0 -0.72342109795E+01 -0.45078225987E+01 -0.48311155180E+01  0.97976502533E+01  0.51100000000E-03 0.  1.
        -12    1    3    3    0    0  0.31057063986E+02 -0.31847855006E+01  0.30238949298E+02  0.43463526511E+02  0.00000000000E+00 0.  1.
</event>
<event>
 7    1  0.2593256E-015  0.9000779E+02  0.7816164E-02  0.1186339E+00
        -11   -1    0    0    0    0  0.00000000000E+00  0.00000000000E+00  0.45593999997E+02  0.45594000000E+02  0.51100000000E-03 0.  1.
         11   -1    0    0    0    0 -0.00000000000E+00 -0.00000000000E+00 -0.45593999997E+02  0.45594000000E+02  0.51100000000E-03 0. -1.
    9900012    2    1    2    0    0 -0.35633259352E+00  0.29845061768E+00 -0.10848267402E+01  0.90007790381E+02  0.90000052414E+02 0.  0.
        -12    1    1    2    0    0  0.35633259352E+00 -0.29845061768E+00  0.10848267402E+01  0.11802096190E+01  0.00000000000E+00 0.  1.
         11    1    3    3    0    0  0.26161282776E+01 -0.91709325186E+01  0.21247924875E+00  0.95391445171E+01  0.51100000000E-03 0. -1.
        -11    1    3    3    0    0 -0.31060529639E+02  0.12562513844E+02  0.25049550003E+02  0.41833637317E+02  0.51100000000E-03 0.  1.
         12    1    3    3    0    0  0.28088068768E+02 -0.30931307077E+01 -0.26346855992E+02  0.38635008547E+02  0.00000000000E+00 0. -1.
</event>
<event>
 7    1  0.2593256E-015  0.9000772E+02  0.7816164E-02  0.1186339E+00
        -11   -1    0    0    0    0  0.00000000000E+00  0.00000000000E+00  0.45593999997E+02  0.45594000000E+02  0.51100000000E-03 0.  1.
         11   -1    0    0    0    0 -0.00000000000E+00 -0.00000000000E+00 -0.45593999997E+02  0.45594000000E+02  0.51100000000E-03 0. -1.
    9900012    2    1    2    0    0  0.10174568085E+01  0.97559608245E-01  0.59019623603E+00  0.90007717055E+02  0.89999978120E+02 0.  0.
        -12    1    1    2    0    0 -0.10174568085E+01 -0.97559608245E-01 -0.59019623603E+00  0.11802829455E+01  0.00000000000E+00 0.  1.
         11    1    3    3    0    0 -0.63076604824E+01 -0.16012285825E+02 -0.31834657082E+01  0.17501837969E+02  0.51100000000E-03 0. -1.
        -11    1    3    3    0    0  0.26483522270E+02 -0.18812675775E+02 -0.10042901617E+00  0.32485439937E+02  0.51100000000E-03 0.  1.
         12    1    3    3    0    0 -0.19158404979E+02  0.34922521209E+02  0.38740909604E+01  0.40020439149E+02  0.00000000000E+00 0. -1.
</event>
<event>
 7    1  0.2593256E-015  0.9000779E+02  0.7816164E-02  0.1186339E+00
        -11   -1    0    0    0    0  0.00000000000E+00  0.00000000000E+00  0.45593999997E+02  0.45594000000E+02  0.51100000000E-03 0. -1.
         11   -1    0    0    0    0 -0.00000000000E+00 -0.00000000000E+00 -0.45593999997E+02  0.45594000000E+02  0.51100000000E-03 0.  1.
    9900012    2    1    2    0    0  0.11080136193E+01  0.36825525415E+00 -0.17201202609E+00  0.90007790591E+02  0.90000052626E+02 0.  0.
        -12    1    1    2    0    0 -0.11080136193E+01 -0.36825525415E+00  0.17201202609E+00  0.11802094093E+01  0.00000000000E+00 0.  1.
         11    1    3    3    0    0  0.83081163753E+00  0.70164311824E+01 -0.55227406665E+01  0.89677878680E+01  0.51100000000E-03 0. -1.
        -11    1    3    3    0    0  0.36473741535E+02 -0.99136786165E+01 -0.13453462715E+02  0.40119951452E+02  0.51100000000E-03 0.  1.
         12    1    3    3    0    0 -0.36196539553E+02  0.32655026882E+01  0.18804191355E+02  0.40920051270E+02  0.00000000000E+00 0. -1.
</event>
<event>
 7    1  0.2593256E-015  0.9000740E+02  0.7816164E-02  0.1186340E+00
        -11   -1    0    0    0    0  0.00000000000E+00  0.00000000000E+00  0.45593999997E+02  0.45594000000E+02  0.51100000000E-03 0. -1.
         11   -1    0    0    0    0 -0.00000000000E+00 -0.00000000000E+00 -0.45593999997E+02  0.45594000000E+02  0.51100000000E-03 0.  1.
    9900012    2    1    2    0    0  0.99640199886E+00 -0.59733596932E+00  0.21019277995E+00  0.90007403452E+02  0.89999660377E+02 0.  0.
        -12    1    1    2    0    0 -0.99640199886E+00  0.59733596932E+00 -0.21019277995E+00  0.11805965476E+01  0.00000000000E+00 0.  1.
         11    1    3    3    0    0 -0.11059685540E+01  0.28090507406E+02  0.12564823116E+02  0.30792443114E+02  0.51100000000E-03 0. -1.
        -11    1    3    3    0    0 -0.91474366300E+01 -0.71666658035E+01  0.17328301849E+02  0.20864005868E+02  0.51100000000E-03 0.  1.
        -12    1    3    3    0    0  0.11249807183E+02 -0.21521177571E+02 -0.29682932185E+02  0.38350954470E+02  0.00000000000E+00 0.  1.
</event>
<event>
 7    1  0.2593256E-015  0.9000772E+02  0.7816164E-02  0.1186339E+00
        -11   -1    0    0    0    0  0.00000000000E+00  0.00000000000E+00  0.45593999997E+02  0.45594000000E+02  0.51100000000E-03 0.  1.
         11   -1    0    0    0    0 -0.00000000000E+00 -0.00000000000E+00 -0.45593999997E+02  0.45594000000E+02  0.51100000000E-03 0. -1.
    9900012    2    1    2    0    0  0.13524759426E+00  0.11082401299E+01 -0.38284508790E+00  0.90007721025E+02  0.89999982143E+02 0.  0.
        -12    1    1    2    0    0 -0.13524759426E+00 -0.11082401299E+01  0.38284508790E+00  0.11802789749E+01  0.00000000000E+00 0.  1.
         11    1    3    3    0    0  0.29872142326E+02  0.34171305128E+01 -0.26843283753E+02  0.40306122996E+02  0.51100000000E-03 0. -1.
        -11    1    3    3    0    0 -0.59768287097E+00 -0.11113834855E+02  0.38292876093E+01  0.11770216390E+02  0.51100000000E-03 0.  1.
        -12    1    3    3    0    0 -0.29139211860E+02  0.88049444724E+01  0.22631151055E+02  0.37931381640E+02  0.00000000000E+00 0.  1.
</event>
<event>
 7    1  0.2593256E-015  0.9000770E+02  0.7816164E-02  0.1186339E+00
        -11   -1    0    0    0    0  0.00000000000E+00  0.00000000000E+00  0.45593999997E+02  0.45594000000E+02  0.51100000000E-03 0.  1.
         11   -1    0    0    0    0 -0.00000000000E+00 -0.00000000000E+00 -0.45593999997E+02  0.45594000000E+02  0.51100000000E-03 0. -1.
    9900012    2    1    2    0    0 -0.45199268182E+00  0.89425253263E-01 -0.10866500768E+01  0.90007702305E+02  0.89999963175E+02 0.  0.
        -12    1    1    2    0    0  0.45199268182E+00 -0.89425253263E-01  0.10866500768E+01  0.11802976954E+01  0.00000000000E+00 0.  1.
         11    1    3    3    0    0 -0.35263259505E+02  0.97579975751E+00 -0.12110384105E+02  0.37297601257E+02  0.51100000000E-03 0. -1.
        -11    1    3    3    0    0 -0.52686743934E+01 -0.82822048250E+01 -0.18083068211E+01  0.99811733002E+01  0.51100000000E-03 0.  1.
        -12    1    3    3    0    0  0.40079941217E+02  0.73958303208E+01  0.12832040849E+02  0.42728927747E+02  0.00000000000E+00 0.  1.
</event>
<event>
 7    1  0.2593256E-015  0.9000774E+02  0.7816164E-02  0.1186339E+00
        -11   -1    0    0    0    0  0.00000000000E+00  0.00000000000E+00  0.45593999997E+02  0.45594000000E+02  0.51100000000E-03 0.  1.
         11   -1    0    0    0    0 -0.00000000000E+00 -0.00000000000E+00 -0.45593999997E+02  0.45594000000E+02  0.51100000000E-03 0. -1.
    9900012    2    1    2    0    0  0.49930860952E-01  0.66954066593E+00 -0.97068780804E+00  0.90007740446E+02  0.90000001820E+02 0.  0.
        -12    1    1    2    0    0 -0.49930860952E-01 -0.66954066593E+00  0.97068780804E+00  0.11802595540E+01  0.00000000000E+00 0.  1.
         11    1    3    3    0    0  0.91339863467E+01 -0.24615145276E+01 -0.32356899310E+00  0.94653820581E+01  0.51100000000E-03 0. -1.
        -11    1    3    3    0    0 -0.33111543121E+02 -0.26279222958E+02 -0.37487855382E+01  0.42438487725E+02  0.51100000000E-03 0.  1.
         12    1    3    3    0    0  0.24027487635E+02  0.29410278152E+02  0.31016667232E+01  0.38103870663E+02  0.00000000000E+00 0. -1.
</event>
<event>
 7    1  0.2593256E-015  0.9000770E+02  0.7816164E-02  0.1186339E+00
        -11   -1    0    0    0    0  0.00000000000E+00  0.00000000000E+00  0.45593999997E+02  0.45594000000E+02  0.51100000000E-03 0. -1.
         11   -1    0    0    0    0 -0.00000000000E+00 -0.00000000000E+00 -0.45593999997E+02  0.45594000000E+02  0.51100000000E-03 0.  1.
    9900012    2    1    2    0    0 -0.10118741171E+01 -0.43921086644E+00  0.41989365784E+00  0.90007700844E+02  0.89999961695E+02 0.  0.
        -12    1    1    2    0    0  0.10118741171E+01  0.43921086644E+00 -0.41989365784E+00  0.11802991561E+01  0.00000000000E+00 0.  1.
         11    1    3    3    0    0 -0.21550692129E+01  0.59741247308E+01  0.78114747860E+01  0.10067453909E+02  0.51100000000E-03 0. -1.
        -11    1    3    3    0    0 -0.16745643590E+02  0.32586966756E+02 -0.48550386185E+01  0.36958062474E+02  0.51100000000E-03 0.  1.
         12    1    3    3    0    0  0.17888838685E+02 -0.39000302353E+02 -0.25365425097E+01  0.42982184461E+02  0.00000000000E+00 0. -1.
</event>
<event>
 7    1  0.2593256E-015  0.9000774E+02  0.7816164E-02  0.1186339E+00
        -11   -1    0    0    0    0  0.00000000000E+00  0.00000000000E+00  0.45593999997E+02  0.45594000000E+02  0.51100000000E-03 0. -1.
         11   -1    0    0    0    0 -0.00000000000E+00 -0.00000000000E+00 -0.45593999997E+02  0.45594000000E+02  0.51100000000E-03 0.  1.
    9900012    2    1    2    0    0 -0.93094400129E+00 -0.63708727742E-01  0.72269524224E+00  0.90007744117E+02  0.90000005540E+02 0.  0.
        -12    1    1    2    0    0  0.93094400129E+00  0.63708727742E-01 -0.72269524224E+00  0.11802558827E+01  0.00000000000E+00 0.  1.
         11    1    3    3    0    0  0.61993043523E+01  0.13302644618E+01  0.71409490440E+01  0.95495618486E+01  0.51100000000E-03 0. -1.
        -11    1    3    3    0    0  0.21436021291E+02  0.29738411427E+02 -0.10159248410E+02  0.38040589527E+02  0.51100000000E-03 0.  1.
         12    1    3    3    0    0 -0.28566269645E+02 -0.31132384617E+02  0.37409946085E+01  0.42417592742E+02  0.00000000000E+00 0. -1.
</event>
<event>
 7    1  0.2593256E-015  0.9000772E+02  0.7816164E-02  0.1186339E+00
        -11   -1    0    0    0    0  0.00000000000E+00  0.00000000000E+00  0.45593999997E+02  0.45594000000E+02  0.51100000000E-03 0.  1.
         11   -1    0    0    0    0 -0.00000000000E+00 -0.00000000000E+00 -0.45593999997E+02  0.45594000000E+02  0.51100000000E-03 0. -1.
    9900012    2    1    2    0    0  0.29873284706E+00 -0.11259322829E+01  0.18998742373E+00  0.90007720355E+02  0.89999981464E+02 0.  0.
        -12    1    1    2    0    0 -0.29873284706E+00  0.11259322829E+01 -0.18998742373E+00  0.11802796451E+01  0.00000000000E+00 0.  1.
         11    1    3    3    0    0 -0.25041652165E+02  0.63558497763E+01 -0.25867726315E+02  0.36559819946E+02  0.51100000000E-03 0. -1.
        -11    1    3    3    0    0 -0.20987214532E+01  0.55685151162E+01 -0.65692725016E+01  0.88638780339E+01  0.51100000000E-03 0.  1.
        -12    1    3    3    0    0  0.27439106465E+02 -0.13050297175E+02  0.32626986241E+02  0.44584022375E+02  0.00000000000E+00 0.  1.
</event>
<event>
 7    1  0.2593256E-015  0.9000773E+02  0.7816164E-02  0.1186339E+00
        -11   -1    0    0    0    0  0.00000000000E+00  0.00000000000E+00  0.45593999997E+02  0.45594000000E+02  0.51100000000E-03 0.  1.
         11   -1    0    0    0    0 -0.00000000000E+00 -0.00000000000E+00 -0.45593999997E+02  0.45594000000E+02  0.51100000000E-03 0. -1.
    9900012    2    1    2    0    0  0.58798856253E+00 -0.99046004854E+00 -0.25748070141E+00  0.90007729705E+02  0.89999990937E+02 0.  0.
        -12    1    1    2    0    0 -0.58798856253E+00  0.99046004854E+00  0.25748070141E+00  0.11802702949E+01  0.00000000000E+00 0.  1.
         11    1    3    3    0    0  0.21173245646E+01 -0.70471314255E+01  0.56917335300E+00  0.73803172837E+01  0.51100000000E-03 0. -1.
        -11    1    3    3    0    0  0.93393831021E+01 -0.16400402274E+02 -0.35326369761E+02  0.40051837314E+02  0.51100000000E-03 0.  1.
         12    1    3    3    0    0 -0.10868719104E+02  0.22457073651E+02  0.34499715706E+02  0.42575575108E+02  0.00000000000E+00 0. -1.
</event>
<event>
 7    1  0.2593256E-015  0.9000763E+02  0.7816164E-02  0.1186339E+00
        -11   -1    0    0    0    0  0.00000000000E+00  0.00000000000E+00  0.45593999997E+02  0.45594000000E+02  0.51100000000E-03 0.  1.
         11   -1    0    0    0    0 -0.00000000000E+00 -0.00000000000E+00 -0.45593999997E+02  0.45594000000E+02  0.51100000000E-03 0. -1.
    9900012    2    1    2    0    0 -0.83686508054E+00  0.83178469159E+00  0.32728398921E-01  0.90007627142E+02  0.89999887020E+02 0.  0.
        -12    1    1    2    0    0  0.83686508054E+00 -0.83178469159E+00 -0.32728398921E-01  0.11803728582E+01  0.00000000000E+00 0.  1.
         11    1    3    3    0    0  0.13842141294E+02 -0.23138463437E+02 -0.25774927462E+02  0.37300673610E+02  0.51100000000E-03 0. -1.
        -11    1    3    3    0    0 -0.12563625773E+01 -0.96480020940E+01  0.47230034874E+01  0.10815227854E+02  0.51100000000E-03 0.  1.
        -12    1    3    3    0    0 -0.13422643797E+02  0.33618250223E+02  0.21084652374E+02  0.41891725678E+02  0.00000000000E+00 0.  1.
</event>
<event>
 7    1  0.2593256E-015  0.9000774E+02  0.7816164E-02  0.1186339E+00
        -11   -1    0    0    0    0  0.00000000000E+00  0.00000000000E+00  0.45593999997E+02  0.45594000000E+02  0.51100000000E-03 0. -1.
         11   -1    0    0    0    0 -0.00000000000E+00 -0.00000000000E+00 -0.45593999997E+02  0.45594000000E+02  0.51100000000E-03 0.  1.
    9900012    2    1    2    0    0  0.48799587754E+00 -0.55256696800E+00  0.92170808133E+00  0.90007739004E+02  0.90000000359E+02 0.  0.
        -12    1    1    2    0    0 -0.48799587754E+00  0.55256696800E+00 -0.92170808133E+00  0.11802609956E+01  0.00000000000E+00 0.  1.
         11    1    3    3    0    0 -0.25948324391E+02 -0.14605552203E+02  0.12570085608E+02  0.32320964502E+02  0.51100000000E-03 0. -1.
        -11    1    3    3    0    0  0.35788883887E+01 -0.48232033206E+01 -0.24610424703E+02  0.25332681198E+02  0.51100000000E-03 0.  1.
        -12    1    3    3    0    0  0.22857431880E+02  0.18876188555E+02  0.12962047176E+02  0.32354093304E+02  0.00000000000E+00 0.  1.
</event>
<event>
 7    1  0.2593256E-015  0.9000769E+02  0.7816164E-02  0.1186339E+00
        -11   -1    0    0    0    0  0.00000000000E+00  0.00000000000E+00  0.45593999997E+02  0.45594000000E+02  0.51100000000E-03 0.  1.
         11   -1    0    0    0    0 -0.00000000000E+00 -0.00000000000E+00 -0.45593999997E+02  0.45594000000E+02  0.51100000000E-03 0. -1.
    9900012    2    1    2    0    0  0.40057073078E+00 -0.17891678581E+00 -0.10957486902E+01  0.90007689313E+02  0.89999950012E+02 0.  0.
        -12    1    1    2    0    0 -0.40057073078E+00  0.17891678581E+00  0.10957486902E+01  0.11803106874E+01  0.00000000000E+00 0.  1.
         11    1    3    3    0    0 -0.72679689521E+01 -0.97432599202E+01  0.68884421984E+01  0.13971582686E+02  0.51100000000E-03 0. -1.
        -11    1    3    3    0    0  0.16781263512E+02 -0.97877799175E+01  0.28056398394E+02  0.34125839651E+02  0.51100000000E-03 0.  1.
         12    1    3    3    0    0 -0.91127238288E+01  0.19352123052E+02 -0.36040589283E+02  0.41910266976E+02  0.00000000000E+00 0. -1.
</event>
<event>
 7    1  0.2593256E-015  0.9000770E+02  0.7816164E-02  0.1186339E+00
        -11   -1    0    0    0    0  0.00000000000E+00  0.00000000000E+00  0.45593999997E+02  0.45594000000E+02  0.51100000000E-03 0. -1.
         11   -1    0    0    0    0 -0.00000000000E+00 -0.00000000000E+00 -0.45593999997E+02  0.45594000000E+02  0.51100000000E-03 0.  1.
    9900012    2    1    2    0    0  0.50315161407E+00 -0.51378472684E+00  0.93593792219E+00  0.90007696613E+02  0.89999957408E+02 0.  0.
        -12    1    1    2    0    0 -0.50315161407E+00  0.51378472684E+00 -0.93593792219E+00  0.11803033875E+01  0.00000000000E+00 0.  1.
         11    1    3    3    0    0 -0.34327051916E+01  0.76504709423E+01 -0.43729193439E+01  0.94570394110E+01  0.51100000000E-03 0. -1.
        -11    1    3    3    0    0 -0.18722446240E+02  0.10387780082E+01 -0.31322209821E+02  0.36506025273E+02  0.51100000000E-03 0.  1.
         12    1    3    3    0    0  0.22658303046E+02 -0.92030336773E+01  0.36631067087E+02  0.44044631928E+02  0.00000000000E+00 0. -1.
</event>
<event>
 7    1  0.2593256E-015  0.9000772E+02  0.7816164E-02  0.1186339E+00
        -11   -1    0    0    0    0  0.00000000000E+00  0.00000000000E+00  0.45593999997E+02  0.45594000000E+02  0.51100000000E-03 0.  1.
         11   -1    0    0    0    0 -0.00000000000E+00 -0.00000000000E+00 -0.45593999997E+02  0.45594000000E+02  0.51100000000E-03 0. -1.
    9900012    2    1    2    0    0 -0.55435186947E+00 -0.43574554273E+00 -0.94650755601E+00  0.90007721759E+02  0.89999982886E+02 0.  0.
        -12    1    1    2    0    0  0.55435186947E+00  0.43574554273E+00  0.94650755601E+00  0.11802782413E+01  0.00000000000E+00 0.  1.
         11    1    3    3    0    0  0.59398536251E+01 -0.84495079510E+00  0.56826929803E+01  0.82637039336E+01  0.51100000000E-03 0. -1.
        -11    1    3    3    0    0  0.31734667210E+02  0.20958950795E+02 -0.17933924896E+01  0.38073389371E+02  0.51100000000E-03 0.  1.
         12    1    3    3    0    0 -0.38228872704E+02 -0.20549745542E+02 -0.48358080467E+01  0.43670628454E+02  0.00000000000E+00 0. -1.
</event>
<event>
 7    1  0.2593256E-015  0.9000799E+02  0.7816164E-02  0.1186339E+00
        -11   -1    0    0    0    0  0.00000000000E+00  0.00000000000E+00  0.45593999997E+02  0.45594000000E+02  0.51100000000E-03 0.  1.
         11   -1    0    0    0    0 -0.00000000000E+00 -0.00000000000E+00 -0.45593999997E+02  0.45594000000E+02  0.51100000000E-03 0. -1.
    9900012    2    1    2    0    0  0.68294370084E+00 -0.95279508464E+00  0.13491789117E+00  0.90007985844E+02  0.90000250456E+02 0.  0.
        -12    1    1    2    0    0 -0.68294370084E+00  0.95279508464E+00 -0.13491789117E+00  0.11800141564E+01  0.00000000000E+00 0.  1.
         11    1    3    3    0    0 -0.41260201770E+02 -0.30416882562E+01  0.78218497050E+01  0.42105076305E+02  0.51100000000E-03 0. -1.
        -11    1    3    3    0    0  0.48095891361E+01  0.82242855386E+01 -0.29225001468E+01  0.99655420148E+01  0.51100000000E-03 0.  1.
        -12    1    3    3    0    0  0.37133556335E+02 -0.61353923671E+01 -0.47644316671E+01  0.37937367524E+02  0.00000000000E+00 0.  1.
</event>
<event>
 7    1  0.2593256E-015  0.9000772E+02  0.7816164E-02  0.1186339E+00
        -11   -1    0    0    0    0  0.00000000000E+00  0.00000000000E+00  0.45593999997E+02  0.45594000000E+02  0.51100000000E-03 0. -1.
         11   -1    0    0    0    0 -0.00000000000E+00 -0.00000000000E+00 -0.45593999997E+02  0.45594000000E+02  0.51100000000E-03 0.  1.
    9900012    2    1    2    0    0 -0.73156820696E+00 -0.92318319840E+00 -0.74822953937E-01  0.90007721332E+02  0.89999982454E+02 0.  0.
        -12    1    1    2    0    0  0.73156820696E+00  0.92318319840E+00  0.74822953937E-01  0.11802786678E+01  0.00000000000E+00 0.  1.
         11    1    3    3    0    0 -0.50164097184E+01  0.21863717139E+01  0.73038101456E+01  0.91263481546E+01  0.51100000000E-03 0. -1.
        -11    1    3    3    0    0  0.32823505522E+02  0.16738481163E+02  0.14734420389E+02  0.39682016215E+02  0.51100000000E-03 0.  1.
         12    1    3    3    0    0 -0.28538664011E+02 -0.19848036075E+02 -0.22113053488E+02  0.41199356963E+02  0.00000000000E+00 0. -1.
</event>
<event>
 7    1  0.2593256E-015  0.9000775E+02  0.7816164E-02  0.1186339E+00
        -11   -1    0    0    0    0  0.00000000000E+00  0.00000000000E+00  0.45593999997E+02  0.45594000000E+02  0.51100000000E-03 0. -1.
         11   -1    0    0    0    0 -0.00000000000E+00 -0.00000000000E+00 -0.45593999997E+02  0.45594000000E+02  0.51100000000E-03 0.  1.
    9900012    2    1    2    0    0  0.79539565305E+00 -0.65159699300E+00  0.57944871371E+00  0.90007748460E+02  0.90000009940E+02 0.  0.
        -12    1    1    2    0    0 -0.79539565305E+00  0.65159699300E+00 -0.57944871371E+00  0.11802515401E+01  0.00000000000E+00 0.  1.
         11    1    3    3    0    0  0.47446281256E+01  0.10101738310E+02 -0.22234870486E+00  0.11162708100E+02  0.51100000000E-03 0. -1.
        -11    1    3    3    0    0  0.19218121914E+02  0.25282879739E+02 -0.12283160732E+02  0.34050495674E+02  0.51100000000E-03 0.  1.
         12    1    3    3    0    0 -0.23167354387E+02 -0.36036215041E+02  0.13084958151E+02  0.44794544686E+02  0.00000000000E+00 0. -1.
</event>
<event>
 7    1  0.2593256E-015  0.9000774E+02  0.7816164E-02  0.1186339E+00
        -11   -1    0    0    0    0  0.00000000000E+00  0.00000000000E+00  0.45593999997E+02  0.45594000000E+02  0.51100000000E-03 0. -1.
         11   -1    0    0    0    0 -0.00000000000E+00 -0.00000000000E+00 -0.45593999997E+02  0.45594000000E+02  0.51100000000E-03 0.  1.
    9900012    2    1    2    0    0  0.11308523713E+01 -0.33298454688E+00 -0.57467642408E-01  0.90007742264E+02  0.90000003662E+02 0.  0.
        -12    1    1    2    0    0 -0.11308523713E+01  0.33298454688E+00  0.57467642408E-01  0.11802577363E+01  0.00000000000E+00 0.  1.
         11    1    3    3    0    0 -0.24011577304E+02  0.67859572154E+01  0.29129901751E+02  0.38355654554E+02  0.51100000000E-03 0. -1.
        -11    1    3    3    0    0  0.44037896087E+00 -0.54571391647E+01  0.63224794419E+01  0.83634949660E+01  0.51100000000E-03 0.  1.
        -12    1    3    3    0    0  0.24702050715E+02 -0.16618025975E+01 -0.35509848836E+02  0.43288592744E+02  0.00000000000E+00 0.  1.
</event>
<event>
 7    1  0.2593256E-015  0.9000762E+02  0.7816164E-02  0.1186339E+00
        -11   -1    0    0    0    0  0.00000000000E+00  0.00000000000E+00  0.45593999997E+02  0.45594000000E+02  0.51100000000E-03 0.  1.
         11   -1    0    0    0    0 -0.00000000000E+00 -0.00000000000E+00 -0.45593999997E+02  0.45594000000E+02  0.51100000000E-03 0. -1.
    9900012    2    1    2    0    0  0.93171389509E-01  0.97949508976E+00  0.65207344955E+00  0.90007622381E+02  0.89999882197E+02 0.  0.
        -12    1    1    2    0    0 -0.93171389509E-01 -0.97949508976E+00 -0.65207344955E+00  0.11803776185E+01  0.00000000000E+00 0.  1.
         11    1    3    3    0    0 -0.45090804423E+01  0.47284128740E+01 -0.76881668380E+01  0.10089479884E+02  0.51100000000E-03 0. -1.
        -11    1    3    3    0    0 -0.25234970225E+02  0.26026112288E+02 -0.26764356185E+01  0.36350041966E+02  0.51100000000E-03 0.  1.
         12    1    3    3    0    0  0.29837222056E+02 -0.29775030072E+02  0.11016675906E+02  0.43568100531E+02  0.00000000000E+00 0. -1.
</event>
<event>
 7    1  0.2593256E-015  0.9000769E+02  0.7816164E-02  0.1186339E+00
        -11   -1    0    0    0    0  0.00000000000E+00  0.00000000000E+00  0.45593999997E+02  0.45594000000E+02  0.51100000000E-03 0.  1.
         11   -1    0    0    0    0 -0.00000000000E+00 -0.00000000000E+00 -0.45593999997E+02  0.45594000000E+02  0.51100000000E-03 0. -1.
    9900012    2    1    2    0    0 -0.88571505166E+00 -0.76322266202E+00  0.16166327325E+00  0.90007688601E+02  0.89999949291E+02 0.  0.
        -12    1    1    2    0    0  0.88571505166E+00  0.76322266202E+00 -0.16166327325E+00  0.11803113989E+01  0.00000000000E+00 0.  1.
         11    1    3    3    0    0 -0.20283677359E+02 -0.24590823415E+02 -0.15040758136E+02  0.35247135614E+02  0.51100000000E-03 0. -1.
        -11    1    3    3    0    0 -0.46125939914E+01 -0.10036808506E+02  0.22367198885E+01  0.11270158137E+02  0.51100000000E-03 0.  1.
        -12    1    3    3    0    0  0.24010556299E+02  0.33864409259E+02  0.12965701521E+02  0.43490394850E+02  0.00000000000E+00 0.  1.
</event>
<event>
 7    1  0.2593256E-015  0.9000807E+02  0.7816164E-02  0.1186338E+00
        -11   -1    0    0    0    0  0.00000000000E+00  0.00000000000E+00  0.45593999997E+02  0.45594000000E+02  0.51100000000E-03 0.  1.
         11   -1    0    0    0    0 -0.00000000000E+00 -0.00000000000E+00 -0.45593999997E+02  0.45594000000E+02  0.51100000000E-03 0. -1.
    9900012    2    1    2    0    0 -0.86779228129E+00  0.78425064963E+00 -0.15527778350E+00  0.90008074699E+02  0.90000340485E+02 0.  0.
        -12    1    1    2    0    0  0.86779228129E+00 -0.78425064963E+00  0.15527778350E+00  0.11799253006E+01  0.00000000000E+00 0.  1.
         11    1    3    3    0    0  0.20603200248E+00 -0.10258494914E+02  0.20959622917E+01  0.10472450777E+02  0.51100000000E-03 0. -1.
        -11    1    3    3    0    0  0.18914841883E+02  0.39147444602E+02  0.64846298828E+01  0.43958435907E+02  0.51100000000E-03 0.  1.
         12    1    3    3    0    0 -0.19988666167E+02 -0.28104699039E+02 -0.87358699579E+01  0.35577188016E+02  0.00000000000E+00 0. -1.
</event>
<event>
 7    1  0.2593256E-015  0.9000776E+02  0.7816164E-02  0.1186339E+00
        -11   -1    0    0    0    0  0.00000000000E+00  0.00000000000E+00  0.45593999997E+02  0.45594000000E+02  0.51100000000E-03 0. -1.
         11   -1    0    0    0    0 -0.00000000000E+00 -0.00000000000E+00 -0.45593999997E+02  0.45594000000E+02  0.51100000000E-03 0.  1.
    9900012    2    1    2    0    0  0.96092663784E+00 -0.17462300886E+00 -0.66263894135E+00  0.90007761225E+02  0.90000022874E+02 0.  0.
        -12    1    1    2    0    0 -0.96092663784E+00  0.17462300886E+00  0.66263894135E+00  0.11802387746E+01  0.00000000000E+00 0.  1.
         11    1    3    3    0    0  0.53293816038E+01  0.51422802062E+00 -0.85872451815E+01  0.10119660014E+02  0.51100000000E-03 0. -1.
        -11    1    3    3    0    0 -0.24729942241E+02 -0.27594278405E+02 -0.14042567595E+02  0.39625849503E+02  0.51100000000E-03 0.  1.
         12    1    3    3    0    0  0.20361487275E+02  0.26905427375E+02  0.21967173835E+02  0.40262251708E+02  0.00000000000E+00 0. -1.
</event>
<event>
 7    1  0.2593256E-015  0.9000764E+02  0.7816164E-02  0.1186339E+00
        -11   -1    0    0    0    0  0.00000000000E+00  0.00000000000E+00  0.45593999997E+02  0.45594000000E+02  0.51100000000E-03 0. -1.
         11   -1    0    0    0    0 -0.00000000000E+00 -0.00000000000E+00 -0.45593999997E+02  0.45594000000E+02  0.51100000000E-03 0.  1.
    9900012    2    1    2    0    0 -0.23947341494E+00  0.34992206969E-01  0.11552786644E+01  0.90007643798E+02  0.89999903896E+02 0.  0.
        -12    1    1    2    0    0  0.23947341494E+00 -0.34992206969E-01 -0.11552786644E+01  0.11803562019E+01  0.00000000000E+00 0.  1.
         11    1    3    3    0    0  0.21266522483E+01 -0.30161129434E+02  0.29393812461E+02  0.42168858056E+02  0.51100000000E-03 0. -1.
        -11    1    3    3    0    0  0.52799776207E+01 -0.16787547007E+01 -0.63300235063E+01  0.84122279374E+01  0.51100000000E-03 0.  1.
        -12    1    3    3    0    0 -0.76461032839E+01  0.31874876341E+02 -0.21908510290E+02  0.39426557805E+02  0.00000000000E+00 0.  1.
</event>
<event>
 7    1  0.2593256E-015  0.9000774E+02  0.7816164E-02  0.1186339E+00
        -11   -1    0    0    0    0  0.00000000000E+00  0.00000000000E+00  0.45593999997E+02  0.45594000000E+02  0.51100000000E-03 0.  1.
         11   -1    0    0    0    0 -0.00000000000E+00 -0.00000000000E+00 -0.45593999997E+02  0.45594000000E+02  0.51100000000E-03 0. -1.
    9900012    2    1    2    0    0  0.64496728417E+00 -0.19973993798E+00 -0.96805927013E+00  0.90007738338E+02  0.89999999684E+02 0.  0.
        -12    1    1    2    0    0 -0.64496728417E+00  0.19973993798E+00  0.96805927013E+00  0.11802616621E+01  0.00000000000E+00 0.  1.
         11    1    3    3    0    0  0.41928656648E+02  0.87308119204E+01 -0.52696908639E+01  0.43151001925E+02  0.51100000000E-03 0. -1.
        -11    1    3    3    0    0 -0.49192136379E+01 -0.46332197945E+00  0.79302799923E+01  0.93435898395E+01  0.51100000000E-03 0.  1.
        -12    1    3    3    0    0 -0.36364475726E+02 -0.84672298789E+01 -0.36286483985E+01  0.37513146573E+02  0.00000000000E+00 0.  1.
</event>
<event>
 7    1  0.2593256E-015  0.9000744E+02  0.7816164E-02  0.1186340E+00
        -11   -1    0    0    0    0  0.00000000000E+00  0.00000000000E+00  0.45593999997E+02  0.45594000000E+02  0.51100000000E-03 0.  1.
         11   -1    0    0    0    0 -0.00000000000E+00 -0.00000000000E+00 -0.45593999997E+02  0.45594000000E+02  0.51100000000E-03 0. -1.
    9900012    2    1    2    0    0 -0.12050445057E+00  0.10927876647E+01 -0.43013845215E+00  0.90007438570E+02  0.89999695958E+02 0.  0.
        -12    1    1    2    0    0  0.12050445057E+00 -0.10927876647E+01  0.43013845215E+00  0.11805614303E+01  0.00000000000E+00 0.  1.
         11    1    3    3    0    0 -0.15282801715E+02 -0.24580215265E+02 -0.17208476447E+02  0.33673174377E+02  0.51100000000E-03 0. -1.
        -11    1    3    3    0    0 -0.14570336789E+01 -0.97542258678E+01 -0.55130669727E+01  0.11298751131E+02  0.51100000000E-03 0.  1.
        -12    1    3    3    0    0  0.16619330943E+02  0.35427228798E+02  0.22291404967E+02  0.45035513061E+02  0.00000000000E+00 0.  1.
</event>
<event>
 7    1  0.2900635E-015  0.9000703E+02  0.7816164E-02  0.1186340E+00
        -11   -1    0    0    0    0  0.00000000000E+00  0.00000000000E+00  0.45593999997E+02  0.45594000000E+02  0.51100000000E-03 0.  1.
         11   -1    0    0    0    0 -0.00000000000E+00 -0.00000000000E+00 -0.45593999997E+02  0.45594000000E+02  0.51100000000E-03 0. -1.
    9900012    2    1    2    0    0 -0.60679640264E+00  0.77512935954E+00 -0.65243231198E+00  0.90007027807E+02  0.89999279771E+02 0.  0.
        -12    1    1    2    0    0  0.60679640264E+00 -0.77512935954E+00  0.65243231198E+00  0.11809721927E+01  0.00000000000E+00 0.  1.
         11    1    3    3    0    0  0.16716357529E+02 -0.33075043503E+02  0.44928796785E+01  0.37330698893E+02  0.51100000000E-03 0. -1.
        -11    1    3    3    0    0  0.69391153147E+01 -0.18010884713E+01 -0.62899789458E+01  0.95372467951E+01  0.51100000000E-03 0.  1.
        -12    1    3    3    0    0 -0.24262269247E+02  0.35651261334E+02  0.11446669553E+01  0.43139082119E+02  0.00000000000E+00 0.  1.
</event>
<event>
 7    1  0.2593256E-015  0.9000774E+02  0.7816164E-02  0.1186339E+00
        -11   -1    0    0    0    0  0.00000000000E+00  0.00000000000E+00  0.45593999997E+02  0.45594000000E+02  0.51100000000E-03 0.  1.
         11   -1    0    0    0    0 -0.00000000000E+00 -0.00000000000E+00 -0.45593999997E+02  0.45594000000E+02  0.51100000000E-03 0. -1.
    9900012    2    1    2    0    0 -0.27007476496E+00  0.11086537896E+01  0.30158922023E+00  0.90007741697E+02  0.90000003087E+02 0.  0.
        -12    1    1    2    0    0  0.27007476496E+00 -0.11086537896E+01 -0.30158922023E+00  0.11802583030E+01  0.00000000000E+00 0.  1.
         11    1    3    3    0    0  0.21991046024E+02  0.13407850701E+02  0.24544655267E+02  0.35578317387E+02  0.51100000000E-03 0. -1.
        -11    1    3    3    0    0  0.87240318902E+01  0.61289766900E+01  0.54989711811E+00  0.10675929692E+02  0.51100000000E-03 0.  1.
        -12    1    3    3    0    0 -0.30985152679E+02 -0.18428173601E+02 -0.24792963165E+02  0.43753494618E+02  0.00000000000E+00 0.  1.
</event>
<event>
 7    1  0.2593256E-015  0.9000764E+02  0.7816164E-02  0.1186339E+00
        -11   -1    0    0    0    0  0.00000000000E+00  0.00000000000E+00  0.45593999997E+02  0.45594000000E+02  0.51100000000E-03 0.  1.
         11   -1    0    0    0    0 -0.00000000000E+00 -0.00000000000E+00 -0.45593999997E+02  0.45594000000E+02  0.51100000000E-03 0. -1.
    9900012    2    1    2    0    0  0.83190646034E+00  0.76920405598E+00 -0.33090178025E+00  0.90007644449E+02  0.89999904556E+02 0.  0.
        -12    1    1    2    0    0 -0.83190646034E+00 -0.76920405598E+00  0.33090178025E+00  0.11803555510E+01  0.00000000000E+00 0.  1.
         11    1    3    3    0    0 -0.14157910151E+02  0.91176168952E+01 -0.32594749148E+02  0.36687804921E+02  0.51100000000E-03 0. -1.
        -11    1    3    3    0    0 -0.10375263200E+02 -0.48542298544E+00 -0.13584684073E+01  0.10475073204E+02  0.51100000000E-03 0.  1.
        -12    1    3    3    0    0  0.25365079812E+02 -0.78629898538E+01  0.33622315775E+02  0.42844766324E+02  0.00000000000E+00 0.  1.
</event>
<event>
 7    1  0.2593256E-015  0.9000778E+02  0.7816164E-02  0.1186339E+00
        -11   -1    0    0    0    0  0.00000000000E+00  0.00000000000E+00  0.45593999997E+02  0.45594000000E+02  0.51100000000E-03 0. -1.
         11   -1    0    0    0    0 -0.00000000000E+00 -0.00000000000E+00 -0.45593999997E+02  0.45594000000E+02  0.51100000000E-03 0.  1.
    9900012    2    1    2    0    0 -0.10233759564E+01  0.53328766256E+00 -0.24746028741E+00  0.90007775160E+02  0.90000036992E+02 0.  0.
        -12    1    1    2    0    0  0.10233759564E+01 -0.53328766256E+00  0.24746028741E+00  0.11802248400E+01  0.00000000000E+00 0.  1.
         11    1    3    3    0    0  0.41170398899E+01  0.64863088748E+01 -0.46679260625E+01  0.89895358200E+01  0.51100000000E-03 0. -1.
        -11    1    3    3    0    0 -0.21613207841E+02  0.30267320252E+02 -0.10300763917E+02  0.38592060918E+02  0.51100000000E-03 0.  1.
         12    1    3    3    0    0  0.16472791995E+02 -0.36220341464E+02  0.14721229692E+02  0.42426178422E+02  0.00000000000E+00 0. -1.
</event>
<event>
 7    1  0.2593256E-015  0.9000771E+02  0.7816164E-02  0.1186339E+00
        -11   -1    0    0    0    0  0.00000000000E+00  0.00000000000E+00  0.45593999997E+02  0.45594000000E+02  0.51100000000E-03 0.  1.
         11   -1    0    0    0    0 -0.00000000000E+00 -0.00000000000E+00 -0.45593999997E+02  0.45594000000E+02  0.51100000000E-03 0. -1.
    9900012    2    1    2    0    0 -0.24084595240E+00  0.24359307850E+00 -0.11294852043E+01  0.90007711397E+02  0.89999972387E+02 0.  0.
        -12    1    1    2    0    0  0.24084595240E+00 -0.24359307850E+00  0.11294852043E+01  0.11802886035E+01  0.00000000000E+00 0.  1.
         11    1    3    3    0    0 -0.58440605232E+01  0.84438648123E+01 -0.35886210058E+01  0.10877963842E+02  0.51100000000E-03 0. -1.
        -11    1    3    3    0    0 -0.46484599759E+01 -0.20719562911E+02  0.36053165961E+02  0.41841836043E+02  0.51100000000E-03 0.  1.
         12    1    3    3    0    0  0.10251674547E+02  0.12519291177E+02 -0.33594030159E+02  0.37287911512E+02  0.00000000000E+00 0. -1.
</event>
<event>
 7    1  0.2593256E-015  0.9000776E+02  0.7816164E-02  0.1186339E+00
        -11   -1    0    0    0    0  0.00000000000E+00  0.00000000000E+00  0.45593999997E+02  0.45594000000E+02  0.51100000000E-03 0.  1.
         11   -1    0    0    0    0 -0.00000000000E+00 -0.00000000000E+00 -0.45593999997E+02  0.45594000000E+02  0.51100000000E-03 0. -1.
    9900012    2    1    2    0    0 -0.17788835304E+00  0.10684682073E+00 -0.11618557716E+01  0.90007758778E+02  0.90000020393E+02 0.  0.
        -12    1    1    2    0    0  0.17788835304E+00 -0.10684682073E+00  0.11618557716E+01  0.11802412224E+01  0.00000000000E+00 0.  1.
         11    1    3    3    0    0  0.43992143805E+01 -0.11047497748E+02  0.65985368374E+00  0.11909479451E+02  0.51100000000E-03 0. -1.
        -11    1    3    3    0    0  0.27923963020E+01 -0.28411233229E+02  0.17467979740E+02  0.33468283003E+02  0.51100000000E-03 0.  1.
         12    1    3    3    0    0 -0.73694990355E+01  0.39565577798E+02 -0.19289689196E+02  0.44629996323E+02  0.00000000000E+00 0. -1.
</event>
<event>
 7    1  0.2593256E-015  0.9000778E+02  0.7816164E-02  0.1186339E+00
        -11   -1    0    0    0    0  0.00000000000E+00  0.00000000000E+00  0.45593999997E+02  0.45594000000E+02  0.51100000000E-03 0. -1.
         11   -1    0    0    0    0 -0.00000000000E+00 -0.00000000000E+00 -0.45593999997E+02  0.45594000000E+02  0.51100000000E-03 0.  1.
    9900012    2    1    2    0    0 -0.35136495478E+00  0.89640400419E+00 -0.68259035962E+00  0.90007776687E+02  0.90000038539E+02 0.  0.
        -12    1    1    2    0    0  0.35136495478E+00 -0.89640400419E+00  0.68259035962E+00  0.11802233133E+01  0.00000000000E+00 0.  1.
         11    1    3    3    0    0  0.28176037088E+01 -0.31522340077E+01  0.92103631445E+01  0.10134409673E+02  0.51100000000E-03 0. -1.
        -11    1    3    3    0    0  0.24804245868E+02 -0.27286271886E+02 -0.85180519232E+01  0.37846379686E+02  0.51100000000E-03 0.  1.
         12    1    3    3    0    0 -0.27973214531E+02  0.31334909898E+02 -0.13749015808E+01  0.42026987328E+02  0.00000000000E+00 0. -1.
</event>
<event>
 7    1  0.2593256E-015  0.9000780E+02  0.7816164E-02  0.1186339E+00
        -11   -1    0    0    0    0  0.00000000000E+00  0.00000000000E+00  0.45593999997E+02  0.45594000000E+02  0.51100000000E-03 0. -1.
         11   -1    0    0    0    0 -0.00000000000E+00 -0.00000000000E+00 -0.45593999997E+02  0.45594000000E+02  0.51100000000E-03 0.  1.
    9900012    2    1    2    0    0  0.78902098295E+00 -0.87744904909E+00 -0.20049559761E-01  0.90007799623E+02  0.90000061778E+02 0.  0.
        -12    1    1    2    0    0 -0.78902098295E+00  0.87744904909E+00  0.20049559761E-01  0.11802003771E+01  0.00000000000E+00 0.  1.
         11    1    3    3    0    0  0.85324954470E+00  0.88783003529E+01 -0.40755965970E+01  0.98062602364E+01  0.51100000000E-03 0. -1.
        -11    1    3    3    0    0  0.29879231677E+02 -0.22354474242E+02 -0.17498801960E+02  0.41215277199E+02  0.51100000000E-03 0.  1.
         12    1    3    3    0    0 -0.29943460239E+02  0.12598724840E+02  0.21554348997E+02  0.38986262188E+02  0.00000000000E+00 0. -1.
</event>
<event>
 7    1  0.2593256E-015  0.9000819E+02  0.7816164E-02  0.1186338E+00
        -11   -1    0    0    0    0  0.00000000000E+00  0.00000000000E+00  0.45593999997E+02  0.45594000000E+02  0.51100000000E-03 0.  1.
         11   -1    0    0    0    0 -0.00000000000E+00 -0.00000000000E+00 -0.45593999997E+02  0.45594000000E+02  0.51100000000E-03 0. -1.
    9900012    2    1    2    0    0 -0.16560054637E+00 -0.10733163944E+00 -0.11631923603E+01  0.90008186418E+02  0.90000453677E+02 0.  0.
        -12    1    1    2    0    0  0.16560054637E+00  0.10733163944E+00  0.11631923603E+01  0.11798135822E+01  0.00000000000E+00 0.  1.
         11    1    3    3    0    0 -0.70232037278E+01 -0.88176277373E+00 -0.27153869784E+02  0.28061281879E+02  0.51100000000E-03 0. -1.
        -11    1    3    3    0    0  0.28804308308E+01  0.22265534842E+02 -0.59667803364E+01  0.23230441051E+02  0.51100000000E-03 0.  1.
        -12    1    3    3    0    0  0.39771723507E+01 -0.21491103708E+02  0.31957457760E+02  0.38716463488E+02  0.00000000000E+00 0.  1.
</event>
<event>
 7    1  0.2593256E-015  0.9000777E+02  0.7816164E-02  0.1186339E+00
        -11   -1    0    0    0    0  0.00000000000E+00  0.00000000000E+00  0.45593999997E+02  0.45594000000E+02  0.51100000000E-03 0.  1.
         11   -1    0    0    0    0 -0.00000000000E+00 -0.00000000000E+00 -0.45593999997E+02  0.45594000000E+02  0.51100000000E-03 0. -1.
    9900012    2    1    2    0    0 -0.78039223981E+00 -0.26562217395E-01 -0.88499975014E+00  0.90007770295E+02  0.90000032063E+02 0.  0.
        -12    1    1    2    0    0  0.78039223981E+00  0.26562217395E-01  0.88499975014E+00  0.11802297052E+01  0.00000000000E+00 0.  1.
         11    1    3    3    0    0 -0.17146355684E+02 -0.26243493371E+02  0.17483383331E+02  0.35894110248E+02  0.51100000000E-03 0. -1.
        -11    1    3    3    0    0 -0.13340872712E+01 -0.11900067878E+01  0.10438492825E+02  0.10590469192E+02  0.51100000000E-03 0.  1.
        -12    1    3    3    0    0  0.17700050715E+02  0.27406937942E+02 -0.28806875906E+02  0.43523190854E+02  0.00000000000E+00 0.  1.
</event>
<event>
 7    1  0.2593256E-015  0.9000771E+02  0.7816164E-02  0.1186339E+00
        -11   -1    0    0    0    0  0.00000000000E+00  0.00000000000E+00  0.45593999997E+02  0.45594000000E+02  0.51100000000E-03 0. -1.
         11   -1    0    0    0    0 -0.00000000000E+00 -0.00000000000E+00 -0.45593999997E+02  0.45594000000E+02  0.51100000000E-03 0.  1.
    9900012    2    1    2    0    0  0.70950590824E+00  0.53588049526E+00  0.77622587382E+00  0.90007706331E+02  0.89999967254E+02 0.  0.
        -12    1    1    2    0    0 -0.70950590824E+00 -0.53588049526E+00 -0.77622587382E+00  0.11802936695E+01  0.00000000000E+00 0.  1.
         11    1    3    3    0    0 -0.53754108636E+00 -0.17143212511E+02  0.22014057068E+02  0.27906941690E+02  0.51100000000E-03 0. -1.
        -11    1    3    3    0    0 -0.18472253652E+02  0.16199796407E+01 -0.29943987363E+02  0.35220602898E+02  0.51100000000E-03 0.  1.
         12    1    3    3    0    0  0.19719300647E+02  0.16059113366E+02  0.87061561684E+01  0.26880161743E+02  0.00000000000E+00 0. -1.
</event>
<event>
 7    1  0.2593256E-015  0.9000773E+02  0.7816164E-02  0.1186339E+00
        -11   -1    0    0    0    0  0.00000000000E+00  0.00000000000E+00  0.45593999997E+02  0.45594000000E+02  0.51100000000E-03 0.  1.
         11   -1    0    0    0    0 -0.00000000000E+00 -0.00000000000E+00 -0.45593999997E+02  0.45594000000E+02  0.51100000000E-03 0. -1.
    9900012    2    1    2    0    0 -0.35102219005E+00 -0.86458026887E+00 -0.72271136712E+00  0.90007734208E+02  0.89999995500E+02 0.  0.
        -12    1    1    2    0    0  0.35102219005E+00  0.86458026887E+00  0.72271136712E+00  0.11802657918E+01  0.00000000000E+00 0.  1.
         11    1    3    3    0    0 -0.45535375954E+01  0.85379493636E+01  0.35326684950E+01  0.10301020868E+02  0.51100000000E-03 0. -1.
        -11    1    3    3    0    0  0.18639223728E+02  0.66420906972E+01  0.31935334577E+02  0.37568652156E+02  0.51100000000E-03 0.  1.
         12    1    3    3    0    0 -0.14436708322E+02 -0.16044620330E+02 -0.36190714439E+02  0.42138061184E+02  0.00000000000E+00 0. -1.
</event>
<event>
 7    1  0.2593256E-015  0.9000777E+02  0.7816164E-02  0.1186339E+00
        -11   -1    0    0    0    0  0.00000000000E+00  0.00000000000E+00  0.45593999997E+02  0.45594000000E+02  0.51100000000E-03 0. -1.
         11   -1    0    0    0    0 -0.00000000000E+00 -0.00000000000E+00 -0.45593999997E+02  0.45594000000E+02  0.51100000000E-03 0.  1.
    9900012    2    1    2    0    0  0.80191014023E+00  0.12468065817E+00  0.85693517071E+00  0.90007769927E+02  0.90000031690E+02 0.  0.
        -12    1    1    2    0    0 -0.80191014023E+00 -0.12468065817E+00 -0.85693517071E+00  0.11802300735E+01  0.00000000000E+00 0.  1.
         11    1    3    3    0    0 -0.16788265854E+02 -0.10266815569E+02  0.37751110988E+02  0.42572288562E+02  0.51100000000E-03 0. -1.
        -11    1    3    3    0    0 -0.50101984181E+01  0.30398625627E+00 -0.72496406362E+01  0.88176972871E+01  0.51100000000E-03 0.  1.
        -12    1    3    3    0    0  0.22600374412E+02  0.10087509971E+02 -0.29644535181E+02  0.38617784078E+02  0.00000000000E+00 0.  1.
</event>
<event>
 7    1  0.2593256E-015  0.9000773E+02  0.7816164E-02  0.1186339E+00
        -11   -1    0    0    0    0  0.00000000000E+00  0.00000000000E+00  0.45593999997E+02  0.45594000000E+02  0.51100000000E-03 0. -1.
         11   -1    0    0    0    0 -0.00000000000E+00 -0.00000000000E+00 -0.45593999997E+02  0.45594000000E+02  0.51100000000E-03 0.  1.
    9900012    2    1    2    0    0 -0.98970533297E+00 -0.62468577312E+00 -0.15259573027E+00  0.90007731209E+02  0.89999992461E+02 0.  0.
        -12    1    1    2    0    0  0.98970533297E+00  0.62468577312E+00  0.15259573027E+00  0.11802687906E+01  0.00000000000E+00 0.  1.
         11    1    3    3    0    0  0.13318567176E+02  0.34917247040E+02  0.48638903961E+01  0.37686281357E+02  0.51100000000E-03 0. -1.
        -11    1    3    3    0    0  0.85201709154E+01 -0.16835205982E+01  0.53373758645E+01  0.10193877349E+02  0.51100000000E-03 0.  1.
        -12    1    3    3    0    0 -0.22828443424E+02 -0.33858412215E+02 -0.10353861991E+02  0.42127572503E+02  0.00000000000E+00 0.  1.
</event>
<event>
 7    1  0.2593256E-015  0.9000771E+02  0.7816164E-02  0.1186339E+00
        -11   -1    0    0    0    0  0.00000000000E+00  0.00000000000E+00  0.45593999997E+02  0.45594000000E+02  0.51100000000E-03 0.  1.
         11   -1    0    0    0    0 -0.00000000000E+00 -0.00000000000E+00 -0.45593999997E+02  0.45594000000E+02  0.51100000000E-03 0. -1.
    9900012    2    1    2    0    0  0.10828926339E+01  0.46431734331E+00  0.69507817752E-01  0.90007712582E+02  0.89999973588E+02 0.  0.
        -12    1    1    2    0    0 -0.10828926339E+01 -0.46431734331E+00 -0.69507817752E-01  0.11802874178E+01  0.00000000000E+00 0.  1.
         11    1    3    3    0    0 -0.40304933759E+01  0.59450726777E+01  0.72579469087E+01  0.10211099823E+02  0.51100000000E-03 0. -1.
        -11    1    3    3    0    0  0.87285916814E+01  0.11454826323E+02  0.33016562319E+02  0.36020754385E+02  0.51100000000E-03 0.  1.
         12    1    3    3    0    0 -0.36152056716E+01 -0.16935581657E+02 -0.40205001410E+02  0.43775858375E+02  0.00000000000E+00 0. -1.
</event>
<event>
 7    1  0.2593256E-015  0.9000780E+02  0.7816164E-02  0.1186339E+00
        -11   -1    0    0    0    0  0.00000000000E+00  0.00000000000E+00  0.45593999997E+02  0.45594000000E+02  0.51100000000E-03 0.  1.
         11   -1    0    0    0    0 -0.00000000000E+00 -0.00000000000E+00 -0.45593999997E+02  0.45594000000E+02  0.51100000000E-03 0. -1.
    9900012    2    1    2    0    0 -0.27918880376E+00  0.17208392883E+00 -0.11337181678E+01  0.90007798258E+02  0.90000060395E+02 0.  0.
        -12    1    1    2    0    0  0.27918880376E+00 -0.17208392883E+00  0.11337181678E+01  0.11802017415E+01  0.00000000000E+00 0.  1.
         11    1    3    3    0    0  0.49529966678E+01  0.35554702247E+01  0.73281755697E+01  0.95328747999E+01  0.51100000000E-03 0. -1.
        -11    1    3    3    0    0  0.35052721716E+02 -0.14951900855E+02 -0.34863609100E+01  0.38267575720E+02  0.51100000000E-03 0.  1.
         12    1    3    3    0    0 -0.40284907187E+02  0.11568514559E+02 -0.49755328275E+01  0.42207347738E+02  0.00000000000E+00 0. -1.
</event>
<event>
 7    1  0.2593256E-015  0.9000774E+02  0.7816164E-02  0.1186339E+00
        -11   -1    0    0    0    0  0.00000000000E+00  0.00000000000E+00  0.45593999997E+02  0.45594000000E+02  0.51100000000E-03 0. -1.
         11   -1    0    0    0    0 -0.00000000000E+00 -0.00000000000E+00 -0.45593999997E+02  0.45594000000E+02  0.51100000000E-03 0.  1.
    9900012    2    1    2    0    0  0.96140181041E+00 -0.34224310171E+00  0.59295876443E+00  0.90007735675E+02  0.89999996985E+02 0.  0.
        -12    1    1    2    0    0 -0.96140181041E+00  0.34224310171E+00 -0.59295876443E+00  0.11802643255E+01  0.00000000000E+00 0.  1.
         11    1    3    3    0    0  0.25550759905E+02 -0.30225465099E+02 -0.35858987861E+01  0.39740140192E+02  0.51100000000E-03 0. -1.
        -11    1    3    3    0    0  0.24742016610E+01  0.17495010975E+01 -0.86583947019E+01  0.91733432850E+01  0.51100000000E-03 0.  1.
        -12    1    3    3    0    0 -0.27063559755E+02  0.28133720899E+02  0.12837252252E+02  0.41094252197E+02  0.00000000000E+00 0.  1.
</event>
<event>
 7    1  0.2593256E-015  0.9000786E+02  0.7816164E-02  0.1186339E+00
        -11   -1    0    0    0    0  0.00000000000E+00  0.00000000000E+00  0.45593999997E+02  0.45594000000E+02  0.51100000000E-03 0.  1.
         11   -1    0    0    0    0 -0.00000000000E+00 -0.00000000000E+00 -0.45593999997E+02  0.45594000000E+02  0.51100000000E-03 0. -1.
    9900012    2    1    2    0    0  0.66147910986E-01 -0.41499394029E+00 -0.11027887902E+01  0.90007856520E+02  0.90000119426E+02 0.  0.
        -12    1    1    2    0    0 -0.66147910986E-01  0.41499394029E+00  0.11027887902E+01  0.11801434796E+01  0.00000000000E+00 0.  1.
         11    1    3    3    0    0  0.91639834510E+01 -0.39842305236E+02 -0.10643592823E+02  0.42245401497E+02  0.51100000000E-03 0. -1.
        -11    1    3    3    0    0 -0.84305625689E+01  0.50200934846E+01 -0.42440966092E+01  0.10690560327E+02  0.51100000000E-03 0.  1.
        -12    1    3    3    0    0 -0.66727297110E+00  0.34407217811E+02  0.13784900642E+02  0.37071894696E+02  0.00000000000E+00 0.  1.
</event>
<event>
 7    1  0.2593256E-015  0.9000770E+02  0.7816164E-02  0.1186339E+00
        -11   -1    0    0    0    0  0.00000000000E+00  0.00000000000E+00  0.45593999997E+02  0.45594000000E+02  0.51100000000E-03 0. -1.
         11   -1    0    0    0    0 -0.00000000000E+00 -0.00000000000E+00 -0.45593999997E+02  0.45594000000E+02  0.51100000000E-03 0.  1.
    9900012    2    1    2    0    0 -0.33449710133E+00  0.86554126752E+00  0.72941849015E+00  0.90007702864E+02  0.89999963741E+02 0.  0.
        -12    1    1    2    0    0  0.33449710133E+00 -0.86554126752E+00 -0.72941849015E+00  0.11802971365E+01  0.00000000000E+00 0.  1.
         11    1    3    3    0    0 -0.30043986233E+02  0.48085354953E+01  0.25729625087E+02  0.39846916189E+02  0.51100000000E-03 0. -1.
        -11    1    3    3    0    0 -0.57002312812E+01 -0.53319106656E+01 -0.25512964194E+01  0.82116394030E+01  0.51100000000E-03 0.  1.
        -12    1    3    3    0    0  0.35409720413E+02  0.13889164379E+01 -0.22448910178E+02  0.41949147271E+02  0.00000000000E+00 0.  1.
</event>
<event>
 7    1  0.2593256E-015  0.9000777E+02  0.7816164E-02  0.1186339E+00
        -11   -1    0    0    0    0  0.00000000000E+00  0.00000000000E+00  0.45593999997E+02  0.45594000000E+02  0.51100000000E-03 0. -1.
         11   -1    0    0    0    0 -0.00000000000E+00 -0.00000000000E+00 -0.45593999997E+02  0.45594000000E+02  0.51100000000E-03 0.  1.
    9900012    2    1    2    0    0 -0.10162427576E+01 -0.26843362479E+00  0.53679169433E+00  0.90007766431E+02  0.90000028148E+02 0.  0.
        -12    1    1    2    0    0  0.10162427576E+01  0.26843362479E+00 -0.53679169433E+00  0.11802335686E+01  0.00000000000E+00 0.  1.
         11    1    3    3    0    0  0.30394971146E+02  0.14131407681E+02 -0.12886079883E+02  0.35911029073E+02  0.51100000000E-03 0. -1.
        -11    1    3    3    0    0  0.23158011583E+01  0.10264336299E+02  0.13784398918E+01  0.10612239701E+02  0.51100000000E-03 0.  1.
        -12    1    3    3    0    0 -0.33727015062E+02 -0.24664177605E+02  0.12044431686E+02  0.43484497658E+02  0.00000000000E+00 0.  1.
</event>
<event>
 7    1  0.2593256E-015  0.9000761E+02  0.7816164E-02  0.1186339E+00
        -11   -1    0    0    0    0  0.00000000000E+00  0.00000000000E+00  0.45593999997E+02  0.45594000000E+02  0.51100000000E-03 0.  1.
         11   -1    0    0    0    0 -0.00000000000E+00 -0.00000000000E+00 -0.45593999997E+02  0.45594000000E+02  0.51100000000E-03 0. -1.
    9900012    2    1    2    0    0 -0.11478191966E+01 -0.16399668780E+00  0.22119651246E+00  0.90007613742E+02  0.89999873443E+02 0.  0.
        -12    1    1    2    0    0  0.11478191966E+01  0.16399668780E+00 -0.22119651246E+00  0.11803862583E+01  0.00000000000E+00 0.  1.
         11    1    3    3    0    0 -0.35365949302E+02  0.11060912658E+02  0.16488878608E+02  0.40558319453E+02  0.51100000000E-03 0. -1.
        -11    1    3    3    0    0 -0.14922141344E+01 -0.71396677191E+01 -0.10888477303E+02  0.13105742879E+02  0.51100000000E-03 0.  1.
        -12    1    3    3    0    0  0.35710344240E+02 -0.40852416263E+01 -0.53792047918E+01  0.36343551410E+02  0.00000000000E+00 0.  1.
</event>
<event>
 7    1  0.2593256E-015  0.9000773E+02  0.7816164E-02  0.1186339E+00
        -11   -1    0    0    0    0  0.00000000000E+00  0.00000000000E+00  0.45593999997E+02  0.45594000000E+02  0.51100000000E-03 0. -1.
         11   -1    0    0    0    0 -0.00000000000E+00 -0.00000000000E+00 -0.45593999997E+02  0.45594000000E+02  0.51100000000E-03 0.  1.
    9900012    2    1    2    0    0 -0.13500678419E+00  0.50605712896E+00  0.10576924338E+01  0.90007731414E+02  0.89999992669E+02 0.  0.
        -12    1    1    2    0    0  0.13500678419E+00 -0.50605712896E+00 -0.10576924338E+01  0.11802685856E+01  0.00000000000E+00 0.  1.
         11    1    3    3    0    0  0.64714457921E+01  0.55110224955E+01  0.13874636042E+01  0.86125510217E+01  0.51100000000E-03 0. -1.
        -11    1    3    3    0    0  0.94487401282E+00  0.68232025836E+01 -0.39339559028E+02  0.39938074380E+02  0.51100000000E-03 0.  1.
         12    1    3    3    0    0 -0.75513265891E+01 -0.11828167950E+02  0.39009787857E+02  0.41457106013E+02  0.00000000000E+00 0. -1.
</event>
<event>
 7    1  0.2593256E-015  0.9000766E+02  0.7816164E-02  0.1186339E+00
        -11   -1    0    0    0    0  0.00000000000E+00  0.00000000000E+00  0.45593999997E+02  0.45594000000E+02  0.51100000000E-03 0.  1.
         11   -1    0    0    0    0 -0.00000000000E+00 -0.00000000000E+00 -0.45593999997E+02  0.45594000000E+02  0.51100000000E-03 0. -1.
    9900012    2    1    2    0    0  0.10091250140E+00 -0.11267441023E+01 -0.33685857884E+00  0.90007657123E+02  0.89999917397E+02 0.  0.
        -12    1    1    2    0    0 -0.10091250140E+00  0.11267441023E+01  0.33685857884E+00  0.11803428770E+01  0.00000000000E+00 0.  1.
         11    1    3    3    0    0  0.16034326114E+02  0.60947776547E+00 -0.38546519280E+02  0.41752906796E+02  0.51100000000E-03 0. -1.
        -11    1    3    3    0    0  0.55405282154E+01  0.40775049876E+01  0.61189817419E+01  0.92068147396E+01  0.51100000000E-03 0.  1.
        -12    1    3    3    0    0 -0.21473941828E+02 -0.58137268555E+01  0.32090678959E+02  0.39047935587E+02  0.00000000000E+00 0.  1.
</event>
<event>
 7    1  0.2593256E-015  0.9000769E+02  0.7816164E-02  0.1186339E+00
        -11   -1    0    0    0    0  0.00000000000E+00  0.00000000000E+00  0.45593999997E+02  0.45594000000E+02  0.51100000000E-03 0.  1.
         11   -1    0    0    0    0 -0.00000000000E+00 -0.00000000000E+00 -0.45593999997E+02  0.45594000000E+02  0.51100000000E-03 0. -1.
    9900012    2    1    2    0    0 -0.65618303588E+00  0.85630944243E+00  0.47884388093E+00  0.90007689236E+02  0.89999949934E+02 0.  0.
        -12    1    1    2    0    0  0.65618303588E+00 -0.85630944243E+00 -0.47884388093E+00  0.11803107642E+01  0.00000000000E+00 0.  1.
         11    1    3    3    0    0 -0.80580638367E+01  0.61919821108E+01  0.61872119449E+01  0.11897673183E+02  0.51100000000E-03 0. -1.
        -11    1    3    3    0    0  0.76905997446E+01  0.34211295159E+02 -0.13905135260E+02  0.37721490264E+02  0.51100000000E-03 0.  1.
         12    1    3    3    0    0 -0.28871894379E+00 -0.39546967827E+02  0.81967671961E+01  0.40388525789E+02  0.00000000000E+00 0. -1.
</event>
<event>
 7    1  0.2593256E-015  0.9000791E+02  0.7816164E-02  0.1186339E+00
        -11   -1    0    0    0    0  0.00000000000E+00  0.00000000000E+00  0.45593999997E+02  0.45594000000E+02  0.51100000000E-03 0.  1.
         11   -1    0    0    0    0 -0.00000000000E+00 -0.00000000000E+00 -0.45593999997E+02  0.45594000000E+02  0.51100000000E-03 0. -1.
    9900012    2    1    2    0    0  0.99701354430E+00 -0.34538289819E+00 -0.52848435424E+00  0.90007906331E+02  0.90000169895E+02 0.  0.
        -12    1    1    2    0    0 -0.99701354430E+00  0.34538289819E+00  0.52848435424E+00  0.11800936686E+01  0.00000000000E+00 0.  1.
         11    1    3    3    0    0 -0.16643233273E+01 -0.10254132966E+02 -0.14721294148E+01  0.10492110383E+02  0.51100000000E-03 0. -1.
        -11    1    3    3    0    0 -0.80105727286E+01  0.42377356155E+02 -0.87154172529E+01  0.43999637365E+02  0.51100000000E-03 0.  1.
         12    1    3    3    0    0  0.10671909600E+02 -0.32468606087E+02  0.96590623134E+01  0.35516158583E+02  0.00000000000E+00 0. -1.
</event>
<event>
 7    1  0.2593256E-015  0.9000773E+02  0.7816164E-02  0.1186339E+00
        -11   -1    0    0    0    0  0.00000000000E+00  0.00000000000E+00  0.45593999997E+02  0.45594000000E+02  0.51100000000E-03 0. -1.
         11   -1    0    0    0    0 -0.00000000000E+00 -0.00000000000E+00 -0.45593999997E+02  0.45594000000E+02  0.51100000000E-03 0.  1.
    9900012    2    1    2    0    0  0.46542988818E+00  0.10821797621E+01  0.72830976668E-01  0.90007727841E+02  0.89999989048E+02 0.  0.
        -12    1    1    2    0    0 -0.46542988818E+00 -0.10821797621E+01 -0.72830976668E-01  0.11802721591E+01  0.00000000000E+00 0.  1.
         11    1    3    3    0    0 -0.17312654649E+02 -0.22378663173E+02  0.24938462461E+02  0.37715507243E+02  0.51100000000E-03 0. -1.
        -11    1    3    3    0    0  0.85425387860E+01 -0.58457526641E+01  0.30358539303E+01  0.10787224039E+02  0.51100000000E-03 0.  1.
        -12    1    3    3    0    0  0.92355457512E+01  0.29306595600E+02 -0.27901485415E+02  0.41504996559E+02  0.00000000000E+00 0.  1.
</event>
<event>
 7    1  0.2593256E-015  0.9000776E+02  0.7816164E-02  0.1186339E+00
        -11   -1    0    0    0    0  0.00000000000E+00  0.00000000000E+00  0.45593999997E+02  0.45594000000E+02  0.51100000000E-03 0.  1.
         11   -1    0    0    0    0 -0.00000000000E+00 -0.00000000000E+00 -0.45593999997E+02  0.45594000000E+02  0.51100000000E-03 0. -1.
    9900012    2    1    2    0    0 -0.34146631877E+00  0.46791690373E+00 -0.10283140469E+01  0.90007756273E+02  0.90000017856E+02 0.  0.
        -12    1    1    2    0    0  0.34146631877E+00 -0.46791690373E+00  0.10283140469E+01  0.11802437268E+01  0.00000000000E+00 0.  1.
         11    1    3    3    0    0 -0.36689418056E+02  0.11991327413E+02 -0.14975421907E+02  0.41402519150E+02  0.51100000000E-03 0. -1.
        -11    1    3    3    0    0 -0.30850576094E+01 -0.52867855562E+01 -0.51654710931E+00  0.61428416183E+01  0.51100000000E-03 0.  1.
        -12    1    3    3    0    0  0.39433009347E+02 -0.62366249528E+01  0.14463654969E+02  0.42462395505E+02  0.00000000000E+00 0.  1.
</event>
<event>
 7    1  0.2593256E-015  0.9000763E+02  0.7816164E-02  0.1186339E+00
        -11   -1    0    0    0    0  0.00000000000E+00  0.00000000000E+00  0.45593999997E+02  0.45594000000E+02  0.51100000000E-03 0.  1.
         11   -1    0    0    0    0 -0.00000000000E+00 -0.00000000000E+00 -0.45593999997E+02  0.45594000000E+02  0.51100000000E-03 0. -1.
    9900012    2    1    2    0    0  0.46740518709E+00  0.13760782605E+00 -0.10751178124E+01  0.90007626401E+02  0.89999886269E+02 0.  0.
        -12    1    1    2    0    0 -0.46740518709E+00 -0.13760782605E+00  0.10751178124E+01  0.11803735990E+01  0.00000000000E+00 0.  1.
         11    1    3    3    0    0  0.33219737011E+02  0.12282175826E+01 -0.18173361179E+02  0.37885755930E+02  0.51100000000E-03 0. -1.
        -11    1    3    3    0    0  0.46033603720E+01 -0.98034118478E+01  0.47364670038E+01  0.11820826135E+02  0.51100000000E-03 0.  1.
         12    1    3    3    0    0 -0.37355692196E+02  0.87128020913E+01  0.12361776363E+02  0.40301044336E+02  0.00000000000E+00 0. -1.
</event>
<event>
 7    1  0.3033709E-015  0.9000784E+02  0.7816164E-02  0.1186339E+00
        -11   -1    0    0    0    0  0.00000000000E+00  0.00000000000E+00  0.45593999997E+02  0.45594000000E+02  0.51100000000E-03 0. -1.
         11   -1    0    0    0    0 -0.00000000000E+00 -0.00000000000E+00 -0.45593999997E+02  0.45594000000E+02  0.51100000000E-03 0.  1.
    9900012    2    1    2    0    0 -0.81060111712E+00 -0.76096925479E+00  0.39575248886E+00  0.90007843904E+02  0.90000106644E+02 0.  0.
        -12    1    1    2    0    0  0.81060111712E+00  0.76096925479E+00 -0.39575248886E+00  0.11801560957E+01  0.00000000000E+00 0.  1.
         11    1    3    3    0    0 -0.34838182022E+02  0.82665777485E+01  0.99162526882E+01  0.37153294630E+02  0.51100000000E-03 0. -1.
        -11    1    3    3    0    0 -0.33288753126E+01  0.86686917770E+01  0.28393578219E+01  0.97102822345E+01  0.51100000000E-03 0.  1.
        -12    1    3    3    0    0  0.37356456217E+02 -0.17696238780E+02 -0.12359858021E+02  0.43144267040E+02  0.00000000000E+00 0.  1.
</event>
<event>
 7    1  0.2593256E-015  0.9000775E+02  0.7816164E-02  0.1186339E+00
        -11   -1    0    0    0    0  0.00000000000E+00  0.00000000000E+00  0.45593999997E+02  0.45594000000E+02  0.51100000000E-03 0.  1.
         11   -1    0    0    0    0 -0.00000000000E+00 -0.00000000000E+00 -0.45593999997E+02  0.45594000000E+02  0.51100000000E-03 0. -1.
    9900012    2    1    2    0    0 -0.22487108372E+00 -0.44236108021E+00 -0.10708605953E+01  0.90007748864E+02  0.90000010349E+02 0.  0.
        -12    1    1    2    0    0  0.22487108372E+00  0.44236108021E+00  0.10708605953E+01  0.11802511360E+01  0.00000000000E+00 0.  1.
         11    1    3    3    0    0  0.13406785117E+02  0.34589577431E+02  0.14988137394E+02  0.40010311382E+02  0.51100000000E-03 0. -1.
        -11    1    3    3    0    0 -0.51805850127E+01  0.39427804889E+01 -0.60333724042E+01  0.88761231338E+01  0.51100000000E-03 0.  1.
        -12    1    3    3    0    0 -0.84510711882E+01 -0.38974719000E+02 -0.10025625585E+02  0.41121314349E+02  0.00000000000E+00 0.  1.
</event>
<event>
 7    1  0.2593256E-015  0.9000776E+02  0.7816164E-02  0.1186339E+00
        -11   -1    0    0    0    0  0.00000000000E+00  0.00000000000E+00  0.45593999997E+02  0.45594000000E+02  0.51100000000E-03 0. -1.
         11   -1    0    0    0    0 -0.00000000000E+00 -0.00000000000E+00 -0.45593999997E+02  0.45594000000E+02  0.51100000000E-03 0.  1.
    9900012    2    1    2    0    0 -0.45014684853E+00  0.10264620443E+00  0.10861804577E+01  0.90007764254E+02  0.90000025943E+02 0.  0.
        -12    1    1    2    0    0  0.45014684853E+00 -0.10264620443E+00 -0.10861804577E+01  0.11802357456E+01  0.00000000000E+00 0.  1.
         11    1    3    3    0    0 -0.82722110337E+01 -0.23675366505E+01 -0.26570971834E+01  0.90052690621E+01  0.51100000000E-03 0. -1.
        -11    1    3    3    0    0  0.13046130998E+02 -0.36117619116E+02 -0.10044889268E+02  0.39693623485E+02  0.51100000000E-03 0.  1.
         12    1    3    3    0    0 -0.52240668132E+01  0.38587801971E+02  0.13788166909E+02  0.41308871708E+02  0.00000000000E+00 0. -1.
</event>
<event>
 7    1  0.2593256E-015  0.9000774E+02  0.7816164E-02  0.1186339E+00
        -11   -1    0    0    0    0  0.00000000000E+00  0.00000000000E+00  0.45593999997E+02  0.45594000000E+02  0.51100000000E-03 0.  1.
         11   -1    0    0    0    0 -0.00000000000E+00 -0.00000000000E+00 -0.45593999997E+02  0.45594000000E+02  0.51100000000E-03 0. -1.
    9900012    2    1    2    0    0 -0.44843653284E+00  0.30871075027E+00 -0.10471914727E+01  0.90007742557E+02  0.90000003959E+02 0.  0.
        -12    1    1    2    0    0  0.44843653284E+00 -0.30871075027E+00  0.10471914727E+01  0.11802574430E+01  0.00000000000E+00 0.  1.
         11    1    3    3    0    0  0.27644569422E+02 -0.18141562580E+02 -0.12885540827E+02  0.35487683413E+02  0.51100000000E-03 0. -1.
        -11    1    3    3    0    0  0.63178402391E+01 -0.77281221619E+01  0.23220278056E+01  0.10248453094E+02  0.51100000000E-03 0.  1.
        -12    1    3    3    0    0 -0.34410846194E+02  0.26178395492E+02  0.95163215489E+01  0.44271606049E+02  0.00000000000E+00 0.  1.
</event>
<event>
 7    1  0.2593256E-015  0.9000769E+02  0.7816164E-02  0.1186339E+00
        -11   -1    0    0    0    0  0.00000000000E+00  0.00000000000E+00  0.45593999997E+02  0.45594000000E+02  0.51100000000E-03 0. -1.
         11   -1    0    0    0    0 -0.00000000000E+00 -0.00000000000E+00 -0.45593999997E+02  0.45594000000E+02  0.51100000000E-03 0.  1.
    9900012    2    1    2    0    0  0.10897102862E+01 -0.44095972486E+00 -0.10589135927E+00  0.90007692003E+02  0.89999952738E+02 0.  0.
        -12    1    1    2    0    0 -0.10897102862E+01  0.44095972486E+00  0.10589135927E+00  0.11803079966E+01  0.00000000000E+00 0.  1.
         11    1    3    3    0    0  0.41280960381E+01  0.35052195562E+02  0.10095053754E+02  0.36709776643E+02  0.51100000000E-03 0. -1.
        -11    1    3    3    0    0 -0.44529092253E+01  0.54529346367E+01  0.59906514691E+01  0.92439602988E+01  0.51100000000E-03 0.  1.
        -12    1    3    3    0    0  0.14145234734E+01 -0.40946089924E+02 -0.16191596582E+02  0.44053955062E+02  0.00000000000E+00 0.  1.
</event>
<event>
 7    1  0.3241680E-015  0.9000763E+02  0.7816164E-02  0.1186339E+00
        -11   -1    0    0    0    0  0.00000000000E+00  0.00000000000E+00  0.45593999997E+02  0.45594000000E+02  0.51100000000E-03 0.  1.
         11   -1    0    0    0    0 -0.00000000000E+00 -0.00000000000E+00 -0.45593999997E+02  0.45594000000E+02  0.51100000000E-03 0. -1.
    9900012    2    1    2    0    0  0.19752003216E+00 -0.11366671486E+01 -0.24947364946E+00  0.90007634179E+02  0.89999894150E+02 0.  0.
        -12    1    1    2    0    0 -0.19752003216E+00  0.11366671486E+01  0.24947364946E+00  0.11803658211E+01  0.00000000000E+00 0.  1.
         11    1    3    3    0    0  0.28485264480E+02 -0.24182647763E+02 -0.12068330186E+01  0.37385387406E+02  0.51100000000E-03 0. -1.
        -11    1    3    3    0    0  0.12084078432E+01 -0.89437215200E+01 -0.90048214954E+00  0.90698000257E+01  0.51100000000E-03 0.  1.
        -12    1    3    3    0    0 -0.29496152291E+02  0.31989702134E+02  0.18578415186E+01  0.43552446747E+02  0.00000000000E+00 0.  1.
</event>
<event>
 7    1  0.2593256E-015  0.9000823E+02  0.7816164E-02  0.1186338E+00
        -11   -1    0    0    0    0  0.00000000000E+00  0.00000000000E+00  0.45593999997E+02  0.45594000000E+02  0.51100000000E-03 0. -1.
         11   -1    0    0    0    0 -0.00000000000E+00 -0.00000000000E+00 -0.45593999997E+02  0.45594000000E+02  0.51100000000E-03 0.  1.
    9900012    2    1    2    0    0 -0.34177293391E+00  0.11285177068E+01  0.38775863917E-01  0.90008226920E+02  0.90000494714E+02 0.  0.
        -12    1    1    2    0    0  0.34177293391E+00 -0.11285177068E+01 -0.38775863917E-01  0.11797730801E+01  0.00000000000E+00 0.  1.
         11    1    3    3    0    0 -0.51388559549E+00  0.40510001709E+01  0.92662721217E+01  0.10126128583E+02  0.51100000000E-03 0. -1.
        -11    1    3    3    0    0 -0.17888645889E+02  0.27468477105E+02  0.15975532302E+02  0.36465579919E+02  0.51100000000E-03 0.  1.
         12    1    3    3    0    0  0.18060758551E+02 -0.30390959569E+02 -0.25203028560E+02  0.43416518418E+02  0.00000000000E+00 0. -1.
</event>
<event>
 7    1  0.2593256E-015  0.9000737E+02  0.7816164E-02  0.1186340E+00
        -11   -1    0    0    0    0  0.00000000000E+00  0.00000000000E+00  0.45593999997E+02  0.45594000000E+02  0.51100000000E-03 0.  1.
         11   -1    0    0    0    0 -0.00000000000E+00 -0.00000000000E+00 -0.45593999997E+02  0.45594000000E+02  0.51100000000E-03 0. -1.
    9900012    2    1    2    0    0 -0.64743087790E+00  0.35603488352E+00 -0.92084211128E+00  0.90007373991E+02  0.89999630527E+02 0.  0.
        -12    1    1    2    0    0  0.64743087790E+00 -0.35603488352E+00  0.92084211128E+00  0.11806260093E+01  0.00000000000E+00 0.  1.
         11    1    3    3    0    0  0.51671708662E+01  0.11252911729E+02 -0.95642539711E+00  0.12419437465E+02  0.51100000000E-03 0. -1.
        -11    1    3    3    0    0  0.34542220254E+02 -0.91255630855E+01  0.75061013901E+01  0.36507292970E+02  0.51100000000E-03 0.  1.
         12    1    3    3    0    0 -0.40356821998E+02 -0.17713137599E+01 -0.74705181043E+01  0.41080643556E+02  0.00000000000E+00 0. -1.
</event>
<event>
 7    1  0.2593256E-015  0.9000774E+02  0.7816164E-02  0.1186339E+00
        -11   -1    0    0    0    0  0.00000000000E+00  0.00000000000E+00  0.45593999997E+02  0.45594000000E+02  0.51100000000E-03 0.  1.
         11   -1    0    0    0    0 -0.00000000000E+00 -0.00000000000E+00 -0.45593999997E+02  0.45594000000E+02  0.51100000000E-03 0. -1.
    9900012    2    1    2    0    0  0.67805969210E+00  0.32307314449E+00 -0.91042669448E+00  0.90007738178E+02  0.89999999522E+02 0.  0.
        -12    1    1    2    0    0 -0.67805969210E+00 -0.32307314449E+00  0.91042669448E+00  0.11802618221E+01  0.00000000000E+00 0.  1.
         11    1    3    3    0    0 -0.63763977645E+01  0.67395138213E+01  0.89573100247E+01  0.12896235813E+02  0.51100000000E-03 0. -1.
        -11    1    3    3    0    0  0.13095660359E+02  0.29181776288E+02 -0.22224223676E+02  0.38948536633E+02  0.51100000000E-03 0.  1.
         12    1    3    3    0    0 -0.60412029020E+01 -0.35598216965E+02  0.12356486957E+02  0.38162965733E+02  0.00000000000E+00 0. -1.
</event>
<event>
 7    1  0.2593256E-015  0.9000774E+02  0.7816164E-02  0.1186339E+00
        -11   -1    0    0    0    0  0.00000000000E+00  0.00000000000E+00  0.45593999997E+02  0.45594000000E+02  0.51100000000E-03 0. -1.
         11   -1    0    0    0    0 -0.00000000000E+00 -0.00000000000E+00 -0.45593999997E+02  0.45594000000E+02  0.51100000000E-03 0.  1.
    9900012    2    1    2    0    0 -0.82329119079E+00 -0.23490756282E+00  0.81241538439E+00  0.90007742102E+02  0.90000003498E+02 0.  0.
        -12    1    1    2    0    0  0.82329119079E+00  0.23490756282E+00 -0.81241538439E+00  0.11802578975E+01  0.00000000000E+00 0.  1.
         11    1    3    3    0    0  0.82786042093E+01  0.50127909514E+01  0.67210887469E+00  0.97012932837E+01  0.51100000000E-03 0. -1.
        -11    1    3    3    0    0  0.24669411334E+02 -0.89708602675E+01 -0.26372798679E+02  0.37209954313E+02  0.51100000000E-03 0.  1.
         12    1    3    3    0    0 -0.33771306734E+02  0.37231617533E+01  0.26513105189E+02  0.43096494506E+02  0.00000000000E+00 0. -1.
</event>
<event>
 7    1  0.2593256E-015  0.9000790E+02  0.7816164E-02  0.1186339E+00
        -11   -1    0    0    0    0  0.00000000000E+00  0.00000000000E+00  0.45593999997E+02  0.45594000000E+02  0.51100000000E-03 0.  1.
         11   -1    0    0    0    0 -0.00000000000E+00 -0.00000000000E+00 -0.45593999997E+02  0.45594000000E+02  0.51100000000E-03 0. -1.
    9900012    2    1    2    0    0  0.74433121247E+00 -0.91361029118E+00 -0.62616757842E-01  0.90007901031E+02  0.90000164525E+02 0.  0.
        -12    1    1    2    0    0 -0.74433121247E+00  0.91361029118E+00  0.62616757842E-01  0.11800989689E+01  0.00000000000E+00 0.  1.
         11    1    3    3    0    0 -0.31748177611E+02  0.12663208622E+02 -0.16198454192E+02  0.37824509947E+02  0.51100000000E-03 0. -1.
        -11    1    3    3    0    0 -0.49729422452E+01 -0.56073358922E+01 -0.44316750893E+01  0.87070152602E+01  0.51100000000E-03 0.  1.
        -12    1    3    3    0    0  0.37465451069E+02 -0.79694830207E+01  0.20567512523E+02  0.43476375824E+02  0.00000000000E+00 0.  1.
</event>
<event>
 7    1  0.2593256E-015  0.9000801E+02  0.7816164E-02  0.1186339E+00
        -11   -1    0    0    0    0  0.00000000000E+00  0.00000000000E+00  0.45593999997E+02  0.45594000000E+02  0.51100000000E-03 0. -1.
         11   -1    0    0    0    0 -0.00000000000E+00 -0.00000000000E+00 -0.45593999997E+02  0.45594000000E+02  0.51100000000E-03 0.  1.
    9900012    2    1    2    0    0  0.99234549984E-01 -0.10212151215E+01  0.58279578785E+00  0.90008009004E+02  0.90000273922E+02 0.  0.
        -12    1    1    2    0    0 -0.99234549984E-01  0.10212151215E+01 -0.58279578785E+00  0.11799909960E+01  0.00000000000E+00 0.  1.
         11    1    3    3    0    0  0.14358093552E+02  0.27476483448E+02  0.18380828467E+02  0.36041182674E+02  0.51100000000E-03 0. -1.
        -11    1    3    3    0    0  0.42644948692E+01  0.78003721923E+01  0.12609251738E+01  0.89789562524E+01  0.51100000000E-03 0.  1.
        -12    1    3    3    0    0 -0.18523353871E+02 -0.36298070762E+02 -0.19058957853E+02  0.44987870078E+02  0.00000000000E+00 0.  1.
</event>
<event>
 7    1  0.2593256E-015  0.9000756E+02  0.7816164E-02  0.1186339E+00
        -11   -1    0    0    0    0  0.00000000000E+00  0.00000000000E+00  0.45593999997E+02  0.45594000000E+02  0.51100000000E-03 0.  1.
         11   -1    0    0    0    0 -0.00000000000E+00 -0.00000000000E+00 -0.45593999997E+02  0.45594000000E+02  0.51100000000E-03 0. -1.
    9900012    2    1    2    0    0  0.10580200027E+01  0.39978091869E+00 -0.33793201219E+00  0.90007563998E+02  0.89999823043E+02 0.  0.
        -12    1    1    2    0    0 -0.10580200027E+01 -0.39978091869E+00  0.33793201219E+00  0.11804360016E+01  0.00000000000E+00 0.  1.
         11    1    3    3    0    0 -0.41820979976E+01 -0.80990898322E+01  0.47789567113E+01  0.10291920486E+02  0.51100000000E-03 0. -1.
        -11    1    3    3    0    0  0.68583228294E+01  0.83040345920E+01  0.36505644861E+02  0.38061209775E+02  0.51100000000E-03 0.  1.
         12    1    3    3    0    0 -0.16182048291E+01  0.19483615887E+00 -0.41622533585E+02  0.41654433738E+02  0.00000000000E+00 0. -1.
</event>
<event>
 7    1  0.2593256E-015  0.9000772E+02  0.7816164E-02  0.1186339E+00
        -11   -1    0    0    0    0  0.00000000000E+00  0.00000000000E+00  0.45593999997E+02  0.45594000000E+02  0.51100000000E-03 0.  1.
         11   -1    0    0    0    0 -0.00000000000E+00 -0.00000000000E+00 -0.45593999997E+02  0.45594000000E+02  0.51100000000E-03 0. -1.
    9900012    2    1    2    0    0 -0.52179620004E+00  0.10313214900E+01  0.23908732248E+00  0.90007721203E+02  0.89999982323E+02 0.  0.
        -12    1    1    2    0    0  0.52179620004E+00 -0.10313214900E+01 -0.23908732248E+00  0.11802787967E+01  0.00000000000E+00 0.  1.
         11    1    3    3    0    0 -0.13541518390E+02  0.29422735546E+02 -0.19805948805E+02  0.37965058879E+02  0.51100000000E-03 0. -1.
        -11    1    3    3    0    0 -0.31658756291E+01 -0.17182586744E+01 -0.88269125191E+01  0.95336019559E+01  0.51100000000E-03 0.  1.
        -12    1    3    3    0    0  0.16185597819E+02 -0.26673155382E+02  0.28871948647E+02  0.42509060369E+02  0.00000000000E+00 0.  1.
</event>
<event>
 7    1  0.2593256E-015  0.9000778E+02  0.7816164E-02  0.1186339E+00
        -11   -1    0    0    0    0  0.00000000000E+00  0.00000000000E+00  0.45593999997E+02  0.45594000000E+02  0.51100000000E-03 0. -1.
         11   -1    0    0    0    0 -0.00000000000E+00 -0.00000000000E+00 -0.45593999997E+02  0.45594000000E+02  0.51100000000E-03 0.  1.
    9900012    2    1    2    0    0 -0.10932774862E+01 -0.44213632570E+00 -0.46745745006E-01  0.90007777412E+02  0.90000039274E+02 0.  0.
        -12    1    1    2    0    0  0.10932774862E+01  0.44213632570E+00  0.46745745006E-01  0.11802225879E+01  0.00000000000E+00 0.  1.
         11    1    3    3    0    0  0.10330891227E+02 -0.23898717576E+01 -0.10793570391E+01  0.10658508922E+02  0.51100000000E-03 0. -1.
        -11    1    3    3    0    0  0.13081070449E+02 -0.11753015644E+02 -0.31684494143E+02  0.36237479909E+02  0.51100000000E-03 0.  1.
         12    1    3    3    0    0 -0.24505239163E+02  0.13700751076E+02  0.32717105437E+02  0.43111788581E+02  0.00000000000E+00 0. -1.
</event>
<event>
 7    1  0.2593256E-015  0.9000751E+02  0.7816164E-02  0.1186339E+00
        -11   -1    0    0    0    0  0.00000000000E+00  0.00000000000E+00  0.45593999997E+02  0.45594000000E+02  0.51100000000E-03 0.  1.
         11   -1    0    0    0    0 -0.00000000000E+00 -0.00000000000E+00 -0.45593999997E+02  0.45594000000E+02  0.51100000000E-03 0. -1.
    9900012    2    1    2    0    0  0.62300151737E-02  0.10841327011E+01 -0.46707931053E+00  0.90007514672E+02  0.89999773066E+02 0.  0.
        -12    1    1    2    0    0 -0.62300151737E-02 -0.10841327011E+01  0.46707931053E+00  0.11804853278E+01  0.00000000000E+00 0.  1.
         11    1    3    3    0    0 -0.66375965199E+01 -0.35243054176E+02  0.94801874950E+01  0.37094534778E+02  0.51100000000E-03 0. -1.
        -11    1    3    3    0    0 -0.72513050574E+01  0.87072790822E+01  0.10820134069E+02  0.15667591888E+02  0.51100000000E-03 0.  1.
        -12    1    3    3    0    0  0.13895131592E+02  0.27619907795E+02 -0.20767400875E+02  0.37245388005E+02  0.00000000000E+00 0.  1.
</event>
<event>
 7    1  0.2593256E-015  0.9000786E+02  0.7816164E-02  0.1186339E+00
        -11   -1    0    0    0    0  0.00000000000E+00  0.00000000000E+00  0.45593999997E+02  0.45594000000E+02  0.51100000000E-03 0.  1.
         11   -1    0    0    0    0 -0.00000000000E+00 -0.00000000000E+00 -0.45593999997E+02  0.45594000000E+02  0.51100000000E-03 0. -1.
    9900012    2    1    2    0    0  0.99010325823E+00  0.18574503548E+00 -0.61474680205E+00  0.90007864707E+02  0.90000127721E+02 0.  0.
        -12    1    1    2    0    0 -0.99010325823E+00 -0.18574503548E+00  0.61474680205E+00  0.11801352934E+01  0.00000000000E+00 0.  1.
         11    1    3    3    0    0  0.46189342422E+01 -0.22046984865E+02 -0.31059323295E+02  0.38367768491E+02  0.51100000000E-03 0. -1.
        -11    1    3    3    0    0 -0.59312200125E+01 -0.45994621903E+01 -0.35235039416E+01  0.82915320396E+01  0.51100000000E-03 0.  1.
        -12    1    3    3    0    0  0.23023890285E+01  0.26832192091E+02  0.33968080435E+02  0.43348564176E+02  0.00000000000E+00 0.  1.
</event>
<event>
 7    1  0.2593256E-015  0.9000773E+02  0.7816164E-02  0.1186339E+00
        -11   -1    0    0    0    0  0.00000000000E+00  0.00000000000E+00  0.45593999997E+02  0.45594000000E+02  0.51100000000E-03 0.  1.
         11   -1    0    0    0    0 -0.00000000000E+00 -0.00000000000E+00 -0.45593999997E+02  0.45594000000E+02  0.51100000000E-03 0. -1.
    9900012    2    1    2    0    0 -0.11721082590E+01  0.12281102386E+00  0.64081596069E-01  0.90007734450E+02  0.89999995744E+02 0.  0.
        -12    1    1    2    0    0  0.11721082590E+01 -0.12281102386E+00 -0.64081596069E-01  0.11802655503E+01  0.00000000000E+00 0.  1.
         11    1    3    3    0    0  0.37220434793E+02 -0.82553789335E+01 -0.17155721613E+01  0.38163532798E+02  0.51100000000E-03 0. -1.
        -11    1    3    3    0    0 -0.65570348211E+00 -0.43412268293E+01 -0.94909462766E+01  0.10457258672E+02  0.51100000000E-03 0.  1.
        -12    1    3    3    0    0 -0.37736839570E+02  0.12719416787E+02  0.11270600034E+02  0.41386942980E+02  0.00000000000E+00 0.  1.
</event>
<event>
 7    1  0.2593256E-015  0.9000770E+02  0.7816164E-02  0.1186339E+00
        -11   -1    0    0    0    0  0.00000000000E+00  0.00000000000E+00  0.45593999997E+02  0.45594000000E+02  0.51100000000E-03 0. -1.
         11   -1    0    0    0    0 -0.00000000000E+00 -0.00000000000E+00 -0.45593999997E+02  0.45594000000E+02  0.51100000000E-03 0.  1.
    9900012    2    1    2    0    0  0.13074139837E+00  0.72156713212E+00  0.92485302477E+00  0.90007701073E+02  0.89999961927E+02 0.  0.
        -12    1    1    2    0    0 -0.13074139837E+00 -0.72156713212E+00 -0.92485302477E+00  0.11802989269E+01  0.00000000000E+00 0.  1.
         11    1    3    3    0    0  0.29807937452E+02 -0.16983257143E+02 -0.13526039699E+02  0.36876793631E+02  0.51100000000E-03 0. -1.
        -11    1    3    3    0    0 -0.11423449689E+00 -0.28579146325E+01 -0.94742528530E+01  0.98965748090E+01  0.51100000000E-03 0.  1.
        -12    1    3    3    0    0 -0.29562961556E+02  0.20562738907E+02  0.23925145577E+02  0.43234332633E+02  0.00000000000E+00 0.  1.
</event>
<event>
 7    1  0.2593256E-015  0.9000786E+02  0.7816164E-02  0.1186339E+00
        -11   -1    0    0    0    0  0.00000000000E+00  0.00000000000E+00  0.45593999997E+02  0.45594000000E+02  0.51100000000E-03 0.  1.
         11   -1    0    0    0    0 -0.00000000000E+00 -0.00000000000E+00 -0.45593999997E+02  0.45594000000E+02  0.51100000000E-03 0. -1.
    9900012    2    1    2    0    0  0.73526353038E+00 -0.82469105089E+00  0.41473761659E+00  0.90007858026E+02  0.90000120952E+02 0.  0.
        -12    1    1    2    0    0 -0.73526353038E+00  0.82469105089E+00 -0.41473761659E+00  0.11801419741E+01  0.00000000000E+00 0.  1.
         11    1    3    3    0    0 -0.18877195684E+01  0.55730294508E+01 -0.62683929031E+01  0.85973770580E+01  0.51100000000E-03 0. -1.
        -11    1    3    3    0    0 -0.86898897088E+00  0.37237078944E+02  0.52248956298E+01  0.37611896053E+02  0.51100000000E-03 0.  1.
         12    1    3    3    0    0  0.34919720697E+01 -0.43634799445E+02  0.14582348899E+01  0.43798584915E+02  0.00000000000E+00 0. -1.
</event>
<event>
 7    1  0.2593256E-015  0.9000769E+02  0.7816164E-02  0.1186339E+00
        -11   -1    0    0    0    0  0.00000000000E+00  0.00000000000E+00  0.45593999997E+02  0.45594000000E+02  0.51100000000E-03 0.  1.
         11   -1    0    0    0    0 -0.00000000000E+00 -0.00000000000E+00 -0.45593999997E+02  0.45594000000E+02  0.51100000000E-03 0. -1.
    9900012    2    1    2    0    0  0.81443826295E+00 -0.43384760868E+00 -0.73592723183E+00  0.90007693971E+02  0.89999954731E+02 0.  0.
        -12    1    1    2    0    0 -0.81443826295E+00  0.43384760868E+00  0.73592723183E+00  0.11803060291E+01  0.00000000000E+00 0.  1.
         11    1    3    3    0    0  0.79001752219E+01 -0.34897718161E+01 -0.50440663797E+01  0.10001693945E+02  0.51100000000E-03 0. -1.
        -11    1    3    3    0    0  0.10259552964E+02 -0.10538929127E+02  0.37433575461E+02  0.40219398630E+02  0.51100000000E-03 0.  1.
         12    1    3    3    0    0 -0.17345289923E+02  0.13594853335E+02 -0.33125436313E+02  0.39786601396E+02  0.00000000000E+00 0. -1.
</event>
<event>
 7    1  0.2593256E-015  0.9000774E+02  0.7816164E-02  0.1186339E+00
        -11   -1    0    0    0    0  0.00000000000E+00  0.00000000000E+00  0.45593999997E+02  0.45594000000E+02  0.51100000000E-03 0.  1.
         11   -1    0    0    0    0 -0.00000000000E+00 -0.00000000000E+00 -0.45593999997E+02  0.45594000000E+02  0.51100000000E-03 0. -1.
    9900012    2    1    2    0    0 -0.38877903692E+00 -0.10751760013E+01  0.29303740530E+00  0.90007735837E+02  0.89999997150E+02 0.  0.
        -12    1    1    2    0    0  0.38877903692E+00  0.10751760013E+01 -0.29303740530E+00  0.11802641629E+01  0.00000000000E+00 0.  1.
         11    1    3    3    0    0  0.74078823946E+01  0.35567344415E+01 -0.94179657763E+00  0.82712793759E+01  0.51100000000E-03 0. -1.
        -11    1    3    3    0    0 -0.30443356123E+02 -0.33347491825E+02  0.38389326540E+00  0.45155293348E+02  0.51100000000E-03 0.  1.
         12    1    3    3    0    0  0.22646694692E+02  0.28715581382E+02  0.85094071753E+00  0.36581163113E+02  0.00000000000E+00 0. -1.
</event>
<event>
 7    1  0.2593256E-015  0.9000836E+02  0.7816164E-02  0.1186338E+00
        -11   -1    0    0    0    0  0.00000000000E+00  0.00000000000E+00  0.45593999997E+02  0.45594000000E+02  0.51100000000E-03 0.  1.
         11   -1    0    0    0    0 -0.00000000000E+00 -0.00000000000E+00 -0.45593999997E+02  0.45594000000E+02  0.51100000000E-03 0. -1.
    9900012    2    1    2    0    0 -0.68673167374E+00 -0.10882137417E+00  0.95294110192E+00  0.90008364791E+02  0.90000634404E+02 0.  0.
        -12    1    1    2    0    0  0.68673167374E+00  0.10882137417E+00 -0.95294110192E+00  0.11796352093E+01  0.00000000000E+00 0.  1.
         11    1    3    3    0    0 -0.91945142139E+01 -0.61629742233E+01  0.13257721817E+01  0.11148049831E+02  0.51100000000E-03 0. -1.
        -11    1    3    3    0    0 -0.49012897294E+01 -0.30328204666E+02  0.18368181655E+02  0.35794032140E+02  0.51100000000E-03 0.  1.
         12    1    3    3    0    0  0.13409072270E+02  0.36382357515E+02 -0.18741012735E+02  0.43066282819E+02  0.00000000000E+00 0. -1.
</event>
<event>
 7    1  0.2593256E-015  0.9000777E+02  0.7816164E-02  0.1186339E+00
        -11   -1    0    0    0    0  0.00000000000E+00  0.00000000000E+00  0.45593999997E+02  0.45594000000E+02  0.51100000000E-03 0.  1.
         11   -1    0    0    0    0 -0.00000000000E+00 -0.00000000000E+00 -0.45593999997E+02  0.45594000000E+02  0.51100000000E-03 0. -1.
    9900012    2    1    2    0    0  0.52717626064E-01 -0.10184619317E+01  0.59405781073E+00  0.90007767592E+02  0.90000029324E+02 0.  0.
        -12    1    1    2    0    0 -0.52717626064E-01  0.10184619317E+01 -0.59405781073E+00  0.11802324080E+01  0.00000000000E+00 0.  1.
         11    1    3    3    0    0  0.22730586688E+02 -0.18253391252E+02 -0.21149644098E+02  0.36016292274E+02  0.51100000000E-03 0. -1.
        -11    1    3    3    0    0  0.85244461420E+01 -0.20562492318E+00 -0.45045926753E+01  0.96436413802E+01  0.51100000000E-03 0.  1.
        -12    1    3    3    0    0 -0.31202315204E+02  0.17440554243E+02  0.26248294584E+02  0.44347833938E+02  0.00000000000E+00 0.  1.
</event>
<event>
 7    1  0.2593256E-015  0.9000782E+02  0.7816164E-02  0.1186339E+00
        -11   -1    0    0    0    0  0.00000000000E+00  0.00000000000E+00  0.45593999997E+02  0.45594000000E+02  0.51100000000E-03 0.  1.
         11   -1    0    0    0    0 -0.00000000000E+00 -0.00000000000E+00 -0.45593999997E+02  0.45594000000E+02  0.51100000000E-03 0. -1.
    9900012    2    1    2    0    0 -0.41810494591E+00  0.93878688878E+00 -0.58025284188E+00  0.90007819535E+02  0.90000081953E+02 0.  0.
        -12    1    1    2    0    0  0.41810494591E+00 -0.93878688878E+00  0.58025284188E+00  0.11801804645E+01  0.00000000000E+00 0.  1.
         11    1    3    3    0    0  0.30283934428E+02  0.21436203914E+02  0.15004709371E+02  0.40022104221E+02  0.51100000000E-03 0. -1.
        -11    1    3    3    0    0 -0.42922963192E+00 -0.15691284238E+02 -0.10575091531E+02  0.18927049433E+02  0.51100000000E-03 0.  1.
        -12    1    3    3    0    0 -0.30272809742E+02 -0.48061327874E+01 -0.50098706815E+01  0.31058665881E+02  0.00000000000E+00 0.  1.
</event>
<event>
 7    1  0.2593256E-015  0.9000674E+02  0.7816164E-02  0.1186341E+00
        -11   -1    0    0    0    0  0.00000000000E+00  0.00000000000E+00  0.45593999997E+02  0.45594000000E+02  0.51100000000E-03 0.  1.
         11   -1    0    0    0    0 -0.00000000000E+00 -0.00000000000E+00 -0.45593999997E+02  0.45594000000E+02  0.51100000000E-03 0. -1.
    9900012    2    1    2    0    0  0.57186952890E+00  0.18882743534E+00 -0.10162130208E+01  0.90006738191E+02  0.89998986329E+02 0.  0.
        -12    1    1    2    0    0 -0.57186952890E+00 -0.18882743534E+00  0.10162130208E+01  0.11812618093E+01  0.00000000000E+00 0.  1.
         11    1    3    3    0    0  0.42958439089E+01  0.48761192986E+01 -0.71386556915E+01  0.96535599468E+01  0.51100000000E-03 0. -1.
        -11    1    3    3    0    0  0.72657324708E+01  0.32956578320E+02  0.19429842062E+02  0.38941567582E+02  0.51100000000E-03 0.  1.
         12    1    3    3    0    0 -0.10989706851E+02 -0.37643870184E+02 -0.13307399391E+02  0.41411610662E+02  0.00000000000E+00 0. -1.
</event>
<event>
 7    1  0.2593256E-015  0.9000772E+02  0.7816164E-02  0.1186339E+00
        -11   -1    0    0    0    0  0.00000000000E+00  0.00000000000E+00  0.45593999997E+02  0.45594000000E+02  0.51100000000E-03 0.  1.
         11   -1    0    0    0    0 -0.00000000000E+00 -0.00000000000E+00 -0.45593999997E+02  0.45594000000E+02  0.51100000000E-03 0. -1.
    9900012    2    1    2    0    0 -0.43989203494E+00  0.62145318073E+00 -0.90186457177E+00  0.90007716659E+02  0.89999977719E+02 0.  0.
        -12    1    1    2    0    0  0.43989203494E+00 -0.62145318073E+00  0.90186457177E+00  0.11802833406E+01  0.00000000000E+00 0.  1.
         11    1    3    3    0    0  0.56904726194E+01  0.29452881806E+02 -0.15245143698E+02  0.33649192144E+02  0.51100000000E-03 0. -1.
        -11    1    3    3    0    0 -0.90730820358E+01  0.10952041880E+02  0.67808374667E+01  0.15755881314E+02  0.51100000000E-03 0.  1.
        -12    1    3    3    0    0  0.29427173815E+01 -0.39783470506E+02  0.75624416593E+01  0.40602643201E+02  0.00000000000E+00 0.  1.
</event>
<event>
 7    1  0.2593256E-015  0.9000777E+02  0.7816164E-02  0.1186339E+00
        -11   -1    0    0    0    0  0.00000000000E+00  0.00000000000E+00  0.45593999997E+02  0.45594000000E+02  0.51100000000E-03 0.  1.
         11   -1    0    0    0    0 -0.00000000000E+00 -0.00000000000E+00 -0.45593999997E+02  0.45594000000E+02  0.51100000000E-03 0. -1.
    9900012    2    1    2    0    0 -0.44236929054E+00 -0.18321990991E+00 -0.10787387102E+01  0.90007772340E+02  0.90000034135E+02 0.  0.
        -12    1    1    2    0    0  0.44236929054E+00  0.18321990991E+00  0.10787387102E+01  0.11802276600E+01  0.00000000000E+00 0.  1.
         11    1    3    3    0    0 -0.45292114408E+01 -0.74853211351E+01  0.17494537624E+01  0.89221285296E+01  0.51100000000E-03 0. -1.
        -11    1    3    3    0    0  0.30374025190E+02 -0.33839439084E+01 -0.29256828291E+02  0.42308326420E+02  0.51100000000E-03 0.  1.
         12    1    3    3    0    0 -0.26287183040E+02  0.10686045134E+02  0.26428635818E+02  0.38777317390E+02  0.00000000000E+00 0. -1.
</event>
<event>
 7    1  0.2593256E-015  0.9000774E+02  0.7816164E-02  0.1186339E+00
        -11   -1    0    0    0    0  0.00000000000E+00  0.00000000000E+00  0.45593999997E+02  0.45594000000E+02  0.51100000000E-03 0.  1.
         11   -1    0    0    0    0 -0.00000000000E+00 -0.00000000000E+00 -0.45593999997E+02  0.45594000000E+02  0.51100000000E-03 0. -1.
    9900012    2    1    2    0    0 -0.69512383009E+00 -0.65484318539E+00 -0.69353533866E+00  0.90007742400E+02  0.90000003800E+02 0.  0.
        -12    1    1    2    0    0  0.69512383009E+00  0.65484318539E+00  0.69353533866E+00  0.11802576001E+01  0.00000000000E+00 0.  1.
         11    1    3    3    0    0  0.74105733042E+01  0.22953321683E+01 -0.52894281219E+01  0.93895258974E+01  0.51100000000E-03 0. -1.
        -11    1    3    3    0    0  0.36091659234E+02 -0.18685540088E+01  0.44028706082E+01  0.36407205745E+02  0.51100000000E-03 0.  1.
         12    1    3    3    0    0 -0.44197356368E+02 -0.10816213448E+01  0.19302217509E+00  0.44211010757E+02  0.00000000000E+00 0. -1.
</event>
<event>
 7    1  0.2593256E-015  0.9000698E+02  0.7816164E-02  0.1186341E+00
        -11   -1    0    0    0    0  0.00000000000E+00  0.00000000000E+00  0.45593999997E+02  0.45594000000E+02  0.51100000000E-03 0.  1.
         11   -1    0    0    0    0 -0.00000000000E+00 -0.00000000000E+00 -0.45593999997E+02  0.45594000000E+02  0.51100000000E-03 0. -1.
    9900012    2    1    2    0    0 -0.81470176689E+00  0.33797652063E+00 -0.78538615938E+00  0.90006984117E+02  0.89999235504E+02 0.  0.
        -12    1    1    2    0    0  0.81470176689E+00 -0.33797652063E+00  0.78538615938E+00  0.11810158834E+01  0.00000000000E+00 0.  1.
         11    1    3    3    0    0  0.50412646758E+01  0.14120760666E+02 -0.39932696202E+01  0.15516327976E+02  0.51100000000E-03 0. -1.
        -11    1    3    3    0    0  0.23246946588E+02 -0.32362561133E+02  0.40084037898E+00  0.39848670768E+02  0.51100000000E-03 0.  1.
         12    1    3    3    0    0 -0.29102913030E+02  0.18579776987E+02  0.28070430818E+01  0.34641985373E+02  0.00000000000E+00 0. -1.
</event>
<event>
 7    1  0.2593256E-015  0.9000757E+02  0.7816164E-02  0.1186339E+00
        -11   -1    0    0    0    0  0.00000000000E+00  0.00000000000E+00  0.45593999997E+02  0.45594000000E+02  0.51100000000E-03 0. -1.
         11   -1    0    0    0    0 -0.00000000000E+00 -0.00000000000E+00 -0.45593999997E+02  0.45594000000E+02  0.51100000000E-03 0.  1.
    9900012    2    1    2    0    0 -0.68993450728E+00 -0.85680480203E+00  0.42813244356E+00  0.90007567248E+02  0.89999826335E+02 0.  0.
        -12    1    1    2    0    0  0.68993450728E+00  0.85680480203E+00 -0.42813244356E+00  0.11804327521E+01  0.00000000000E+00 0.  1.
         11    1    3    3    0    0  0.36341140508E+02 -0.98516170741E+01  0.95066727947E+01  0.38834387858E+02  0.51100000000E-03 0. -1.
        -11    1    3    3    0    0  0.15991981961E+01 -0.45529697701E+01  0.58639834834E+01  0.75942920113E+01  0.51100000000E-03 0.  1.
        -12    1    3    3    0    0 -0.38630273211E+02  0.13547782042E+02 -0.14942523835E+02  0.43578887379E+02  0.00000000000E+00 0.  1.
</event>
<event>
 7    1  0.2593256E-015  0.9000773E+02  0.7816164E-02  0.1186339E+00
        -11   -1    0    0    0    0  0.00000000000E+00  0.00000000000E+00  0.45593999997E+02  0.45594000000E+02  0.51100000000E-03 0. -1.
         11   -1    0    0    0    0 -0.00000000000E+00 -0.00000000000E+00 -0.45593999997E+02  0.45594000000E+02  0.51100000000E-03 0.  1.
    9900012    2    1    2    0    0 -0.80344743660E+00  0.36865230595E-01  0.86380516560E+00  0.90007726221E+02  0.89999987407E+02 0.  0.
        -12    1    1    2    0    0  0.80344743660E+00 -0.36865230595E-01 -0.86380516560E+00  0.11802737787E+01  0.00000000000E+00 0.  1.
         11    1    3    3    0    0 -0.70337451162E+01  0.20756336301E+00  0.21184839332E+01  0.73487840726E+01  0.51100000000E-03 0. -1.
        -11    1    3    3    0    0 -0.25664522037E+02 -0.79109276914E+01 -0.29113682812E+02  0.39608799470E+02  0.51100000000E-03 0.  1.
         12    1    3    3    0    0  0.31894819716E+02  0.77402295590E+01  0.27859004044E+02  0.43050142679E+02  0.00000000000E+00 0. -1.
</event>
<event>
 7    1  0.2593256E-015  0.9000747E+02  0.7816164E-02  0.1186340E+00
        -11   -1    0    0    0    0  0.00000000000E+00  0.00000000000E+00  0.45593999997E+02  0.45594000000E+02  0.51100000000E-03 0. -1.
         11   -1    0    0    0    0 -0.00000000000E+00 -0.00000000000E+00 -0.45593999997E+02  0.45594000000E+02  0.51100000000E-03 0.  1.
    9900012    2    1    2    0    0  0.86351701519E+00 -0.60071027810E+00  0.53585495131E+00  0.90007468339E+02  0.89999726121E+02 0.  0.
        -12    1    1    2    0    0 -0.86351701519E+00  0.60071027810E+00 -0.53585495131E+00  0.11805316610E+01  0.00000000000E+00 0.  1.
         11    1    3    3    0    0 -0.37614576558E+02  0.14674509377E+01  0.10507304237E+02  0.39082134339E+02  0.51100000000E-03 0. -1.
        -11    1    3    3    0    0 -0.25351179951E+01  0.50942780079E+01 -0.72308691264E+01  0.92013020956E+01  0.51100000000E-03 0.  1.
        -12    1    3    3    0    0  0.41013211568E+02 -0.71624392237E+01 -0.27405801590E+01  0.41724031905E+02  0.00000000000E+00 0.  1.
</event>
<event>
 7    1  0.2593256E-015  0.9000774E+02  0.7816164E-02  0.1186339E+00
        -11   -1    0    0    0    0  0.00000000000E+00  0.00000000000E+00  0.45593999997E+02  0.45594000000E+02  0.51100000000E-03 0.  1.
         11   -1    0    0    0    0 -0.00000000000E+00 -0.00000000000E+00 -0.45593999997E+02  0.45594000000E+02  0.51100000000E-03 0. -1.
    9900012    2    1    2    0    0 -0.83534165852E+00 -0.82348685405E+00  0.13075483705E+00  0.90007735999E+02  0.89999997314E+02 0.  0.
        -12    1    1    2    0    0  0.83534165852E+00  0.82348685405E+00 -0.13075483705E+00  0.11802640013E+01  0.00000000000E+00 0.  1.
         11    1    3    3    0    0 -0.23202907503E+02 -0.32955770503E+02 -0.15024026148E+02  0.43013708140E+02  0.51100000000E-03 0. -1.
        -11    1    3    3    0    0  0.10757760322E+01  0.73417710733E+01 -0.46742438070E+01  0.87696893897E+01  0.51100000000E-03 0.  1.
        -12    1    3    3    0    0  0.21291789813E+02  0.24790512576E+02  0.19829024792E+02  0.38224338469E+02  0.00000000000E+00 0.  1.
</event>
<event>
 7    1  0.2593256E-015  0.9000789E+02  0.7816164E-02  0.1186339E+00
        -11   -1    0    0    0    0  0.00000000000E+00  0.00000000000E+00  0.45593999997E+02  0.45594000000E+02  0.51100000000E-03 0.  1.
         11   -1    0    0    0    0 -0.00000000000E+00 -0.00000000000E+00 -0.45593999997E+02  0.45594000000E+02  0.51100000000E-03 0. -1.
    9900012    2    1    2    0    0  0.99185058979E+00 -0.60712917863E+00  0.20070801588E+00  0.90007891048E+02  0.90000154409E+02 0.  0.
        -12    1    1    2    0    0 -0.99185058979E+00  0.60712917863E+00 -0.20070801588E+00  0.11801089525E+01  0.00000000000E+00 0.  1.
         11    1    3    3    0    0  0.43732724828E+01  0.61084651095E+01 -0.47894137451E+01  0.89093963031E+01  0.51100000000E-03 0. -1.
        -11    1    3    3    0    0  0.16635083143E+02 -0.25070448039E+02 -0.26090504846E+02  0.39824211221E+02  0.51100000000E-03 0.  1.
         12    1    3    3    0    0 -0.20016505036E+02  0.18354853751E+02  0.31080626607E+02  0.41274283523E+02  0.00000000000E+00 0. -1.
</event>
<event>
 7    1  0.2593256E-015  0.9000778E+02  0.7816164E-02  0.1186339E+00
        -11   -1    0    0    0    0  0.00000000000E+00  0.00000000000E+00  0.45593999997E+02  0.45594000000E+02  0.51100000000E-03 0. -1.
         11   -1    0    0    0    0 -0.00000000000E+00 -0.00000000000E+00 -0.45593999997E+02  0.45594000000E+02  0.51100000000E-03 0.  1.
    9900012    2    1    2    0    0 -0.10705727147E+01  0.15028425576E+00  0.47350365974E+00  0.90007780948E+02  0.90000042856E+02 0.  0.
        -12    1    1    2    0    0  0.10705727147E+01 -0.15028425576E+00 -0.47350365974E+00  0.11802190520E+01  0.00000000000E+00 0.  1.
         11    1    3    3    0    0  0.77514390235E+01  0.11743926086E+02  0.36315302201E+02  0.38946190842E+02  0.51100000000E-03 0. -1.
        -11    1    3    3    0    0  0.79323649664E+01 -0.76870338528E+01  0.28286507167E+00  0.11049566341E+02  0.51100000000E-03 0.  1.
        -12    1    3    3    0    0 -0.16754376705E+02 -0.39066079776E+01 -0.36124663613E+02  0.40012023765E+02  0.00000000000E+00 0.  1.
</event>
<event>
 7    1  0.2593256E-015  0.9000781E+02  0.7816164E-02  0.1186339E+00
        -11   -1    0    0    0    0  0.00000000000E+00  0.00000000000E+00  0.45593999997E+02  0.45594000000E+02  0.51100000000E-03 0. -1.
         11   -1    0    0    0    0 -0.00000000000E+00 -0.00000000000E+00 -0.45593999997E+02  0.45594000000E+02  0.51100000000E-03 0.  1.
    9900012    2    1    2    0    0 -0.11588378456E+01 -0.85144745664E-01  0.20659708048E+00  0.90007814788E+02  0.90000077144E+02 0.  0.
        -12    1    1    2    0    0  0.11588378456E+01  0.85144745664E-01 -0.20659708048E+00  0.11801852116E+01  0.00000000000E+00 0.  1.
         11    1    3    3    0    0 -0.14691371593E+01 -0.13962482212E+01  0.81294414145E+01  0.83782868810E+01  0.51100000000E-03 0. -1.
        -11    1    3    3    0    0  0.11883010578E+02 -0.37532809504E+02 -0.11297984527E+02  0.40958053962E+02  0.51100000000E-03 0.  1.
         12    1    3    3    0    0 -0.11572711265E+02  0.38843912980E+02  0.33751401927E+01  0.40671473946E+02  0.00000000000E+00 0. -1.
</event>
<event>
 7    1  0.2593256E-015  0.9000767E+02  0.7816164E-02  0.1186339E+00
        -11   -1    0    0    0    0  0.00000000000E+00  0.00000000000E+00  0.45593999997E+02  0.45594000000E+02  0.51100000000E-03 0. -1.
         11   -1    0    0    0    0 -0.00000000000E+00 -0.00000000000E+00 -0.45593999997E+02  0.45594000000E+02  0.51100000000E-03 0.  1.
    9900012    2    1    2    0    0  0.11895556488E+00  0.11693061694E+01  0.10840016673E+00  0.90007670410E+02  0.89999930860E+02 0.  0.
        -12    1    1    2    0    0 -0.11895556488E+00 -0.11693061694E+01 -0.10840016673E+00  0.11803295897E+01  0.00000000000E+00 0.  1.
         11    1    3    3    0    0  0.41598921705E+01 -0.10180094070E+02 -0.13622827637E+01  0.11081282991E+02  0.51100000000E-03 0. -1.
        -11    1    3    3    0    0 -0.29721361117E+02  0.44931040281E+01 -0.26693226149E+02  0.40200442945E+02  0.51100000000E-03 0.  1.
         12    1    3    3    0    0  0.25680424511E+02  0.68562962110E+01  0.28163909079E+02  0.38725944475E+02  0.00000000000E+00 0. -1.
</event>
<event>
 7    1  0.2593256E-015  0.9000775E+02  0.7816164E-02  0.1186339E+00
        -11   -1    0    0    0    0  0.00000000000E+00  0.00000000000E+00  0.45593999997E+02  0.45594000000E+02  0.51100000000E-03 0. -1.
         11   -1    0    0    0    0 -0.00000000000E+00 -0.00000000000E+00 -0.45593999997E+02  0.45594000000E+02  0.51100000000E-03 0.  1.
    9900012    2    1    2    0    0 -0.16192671584E+00 -0.11075773365E+01  0.37423611486E+00  0.90007745584E+02  0.90000007025E+02 0.  0.
        -12    1    1    2    0    0  0.16192671584E+00  0.11075773365E+01 -0.37423611486E+00  0.11802544164E+01  0.00000000000E+00 0.  1.
         11    1    3    3    0    0  0.85884373750E+01  0.46066390797E+01 -0.15234939528E+01  0.98642492994E+01  0.51100000000E-03 0. -1.
        -11    1    3    3    0    0  0.18142791973E+02  0.56730433429E+01 -0.30867963510E+02  0.36251558488E+02  0.51100000000E-03 0.  1.
         12    1    3    3    0    0 -0.26893156064E+02 -0.11387259759E+02  0.32765693577E+02  0.43891937796E+02  0.00000000000E+00 0. -1.
</event>
<event>
 7    1  0.2593256E-015  0.9000772E+02  0.7816164E-02  0.1186339E+00
        -11   -1    0    0    0    0  0.00000000000E+00  0.00000000000E+00  0.45593999997E+02  0.45594000000E+02  0.51100000000E-03 0. -1.
         11   -1    0    0    0    0 -0.00000000000E+00 -0.00000000000E+00 -0.45593999997E+02  0.45594000000E+02  0.51100000000E-03 0.  1.
    9900012    2    1    2    0    0  0.10146651222E+01  0.45301691276E+00  0.39786778760E+00  0.90007716809E+02  0.89999977871E+02 0.  0.
        -12    1    1    2    0    0 -0.10146651222E+01 -0.45301691276E+00 -0.39786778760E+00  0.11802831905E+01  0.00000000000E+00 0.  1.
         11    1    3    3    0    0 -0.19680143409E+02  0.54422459128E+01  0.34882345617E+02  0.40419105893E+02  0.51100000000E-03 0. -1.
        -11    1    3    3    0    0 -0.68365667218E+01  0.10533566847E+01 -0.36826506305E+01  0.78364609853E+01  0.51100000000E-03 0.  1.
        -12    1    3    3    0    0  0.27531375253E+02 -0.60425856847E+01 -0.30801827199E+02  0.41752149931E+02  0.00000000000E+00 0.  1.
</event>
<event>
 7    1  0.2593256E-015  0.9000773E+02  0.7816164E-02  0.1186339E+00
        -11   -1    0    0    0    0  0.00000000000E+00  0.00000000000E+00  0.45593999997E+02  0.45594000000E+02  0.51100000000E-03 0.  1.
         11   -1    0    0    0    0 -0.00000000000E+00 -0.00000000000E+00 -0.45593999997E+02  0.45594000000E+02  0.51100000000E-03 0. -1.
    9900012    2    1    2    0    0  0.37207720821E+00 -0.72799744445E+00 -0.85123918584E+00  0.90007733132E+02  0.89999994409E+02 0.  0.
        -12    1    1    2    0    0 -0.37207720821E+00  0.72799744445E+00  0.85123918584E+00  0.11802668679E+01  0.00000000000E+00 0.  1.
         11    1    3    3    0    0 -0.73089862718E+00  0.83464374002E+00 -0.10951701288E+02  0.11007752011E+02  0.51100000000E-03 0. -1.
        -11    1    3    3    0    0 -0.34797723252E+02  0.33631978559E+01  0.21463812772E+02  0.41023016739E+02  0.51100000000E-03 0.  1.
         12    1    3    3    0    0  0.35900699088E+02 -0.49258390404E+01 -0.11363350670E+02  0.37976964382E+02  0.00000000000E+00 0. -1.
</event>
<event>
 7    1  0.2593256E-015  0.9000778E+02  0.7816164E-02  0.1186339E+00
        -11   -1    0    0    0    0  0.00000000000E+00  0.00000000000E+00  0.45593999997E+02  0.45594000000E+02  0.51100000000E-03 0.  1.
         11   -1    0    0    0    0 -0.00000000000E+00 -0.00000000000E+00 -0.45593999997E+02  0.45594000000E+02  0.51100000000E-03 0. -1.
    9900012    2    1    2    0    0 -0.39596219704E+00  0.72132615664E+00 -0.84606396839E+00  0.90007778951E+02  0.90000040833E+02 0.  0.
        -12    1    1    2    0    0  0.39596219704E+00 -0.72132615664E+00  0.84606396839E+00  0.11802210489E+01  0.00000000000E+00 0.  1.
         11    1    3    3    0    0  0.24234273971E+02  0.45837848368E+01 -0.27647686831E+02  0.37050043262E+02  0.51100000000E-03 0. -1.
        -11    1    3    3    0    0  0.82887747759E+01  0.49356995106E+01  0.67201257283E-01  0.96472500338E+01  0.51100000000E-03 0.  1.
        -12    1    3    3    0    0 -0.32919010944E+02 -0.87981581907E+01  0.26734421606E+02  0.43310485655E+02  0.00000000000E+00 0.  1.
</event>
<event>
 7    1  0.2593256E-015  0.9000774E+02  0.7816164E-02  0.1186339E+00
        -11   -1    0    0    0    0  0.00000000000E+00  0.00000000000E+00  0.45593999997E+02  0.45594000000E+02  0.51100000000E-03 0. -1.
         11   -1    0    0    0    0 -0.00000000000E+00 -0.00000000000E+00 -0.45593999997E+02  0.45594000000E+02  0.51100000000E-03 0.  1.
    9900012    2    1    2    0    0  0.29618881262E+00 -0.54455830257E+00  0.10043634582E+01  0.90007738371E+02  0.89999999717E+02 0.  0.
        -12    1    1    2    0    0 -0.29618881262E+00  0.54455830257E+00 -0.10043634582E+01  0.11802616294E+01  0.00000000000E+00 0.  1.
         11    1    3    3    0    0  0.98043509965E+01 -0.66036205336E+00  0.12280094388E+01  0.99029987351E+01  0.51100000000E-03 0. -1.
        -11    1    3    3    0    0 -0.54923523013E+01 -0.14629836807E+01 -0.39845380667E+02  0.40248734338E+02  0.51100000000E-03 0.  1.
         12    1    3    3    0    0 -0.40158098826E+01  0.15787874314E+01  0.39621734686E+02  0.39856005298E+02  0.00000000000E+00 0. -1.
</event>
<event>
 7    1  0.2593256E-015  0.9000770E+02  0.7816164E-02  0.1186339E+00
        -11   -1    0    0    0    0  0.00000000000E+00  0.00000000000E+00  0.45593999997E+02  0.45594000000E+02  0.51100000000E-03 0.  1.
         11   -1    0    0    0    0 -0.00000000000E+00 -0.00000000000E+00 -0.45593999997E+02  0.45594000000E+02  0.51100000000E-03 0. -1.
    9900012    2    1    2    0    0  0.19420393276E+00  0.11035221974E+01  0.37098888447E+00  0.90007699547E+02  0.89999960381E+02 0.  0.
        -12    1    1    2    0    0 -0.19420393276E+00 -0.11035221974E+01 -0.37098888447E+00  0.11803004533E+01  0.00000000000E+00 0.  1.
         11    1    3    3    0    0  0.35814035441E+01  0.88237120939E+01  0.27309630198E+01  0.99066899486E+01  0.51100000000E-03 0. -1.
        -11    1    3    3    0    0 -0.37014299473E+02 -0.13112242159E+02 -0.17301688239E+02  0.42910810714E+02  0.51100000000E-03 0.  1.
         12    1    3    3    0    0  0.33627099862E+02  0.53920522622E+01  0.14941714104E+02  0.37190198885E+02  0.00000000000E+00 0. -1.
</event>
<event>
 7    1  0.2593256E-015  0.9000772E+02  0.7816164E-02  0.1186339E+00
        -11   -1    0    0    0    0  0.00000000000E+00  0.00000000000E+00  0.45593999997E+02  0.45594000000E+02  0.51100000000E-03 0. -1.
         11   -1    0    0    0    0 -0.00000000000E+00 -0.00000000000E+00 -0.45593999997E+02  0.45594000000E+02  0.51100000000E-03 0.  1.
    9900012    2    1    2    0    0  0.98254282732E+00 -0.51872781713E+00  0.39822588374E+00  0.90007723418E+02  0.89999984567E+02 0.  0.
        -12    1    1    2    0    0 -0.98254282732E+00  0.51872781713E+00 -0.39822588374E+00  0.11802765821E+01  0.00000000000E+00 0.  1.
         11    1    3    3    0    0 -0.31332664994E+02 -0.10546208556E+02 -0.12445631503E+02  0.35324950875E+02  0.51100000000E-03 0. -1.
        -11    1    3    3    0    0 -0.75172696684E+00 -0.82292111731E+00 -0.11918576196E+02  0.11970578574E+02  0.51100000000E-03 0.  1.
        -12    1    3    3    0    0  0.33066934788E+02  0.10850401856E+02  0.24762433583E+02  0.42712193969E+02  0.00000000000E+00 0.  1.
</event>
<event>
 7    1  0.2593256E-015  0.9000771E+02  0.7816164E-02  0.1186339E+00
        -11   -1    0    0    0    0  0.00000000000E+00  0.00000000000E+00  0.45593999997E+02  0.45594000000E+02  0.51100000000E-03 0.  1.
         11   -1    0    0    0    0 -0.00000000000E+00 -0.00000000000E+00 -0.45593999997E+02  0.45594000000E+02  0.51100000000E-03 0. -1.
    9900012    2    1    2    0    0  0.10256169687E+01 -0.57759118411E+00  0.87012944399E-01  0.90007714867E+02  0.89999975903E+02 0.  0.
        -12    1    1    2    0    0 -0.10256169687E+01  0.57759118411E+00 -0.87012944399E-01  0.11802851329E+01  0.00000000000E+00 0.  1.
         11    1    3    3    0    0  0.23964292919E+02  0.26999352511E+02 -0.73963450787E+01  0.36850485640E+02  0.51100000000E-03 0. -1.
        -11    1    3    3    0    0  0.98493623310E+01 -0.20123373065E+01 -0.25832194665E+01  0.10379424976E+02  0.51100000000E-03 0.  1.
        -12    1    3    3    0    0 -0.32788038281E+02 -0.25564606389E+02  0.10066577490E+02  0.42777804251E+02  0.00000000000E+00 0.  1.
</event>
<event>
 7    1  0.2593256E-015  0.9000791E+02  0.7816164E-02  0.1186339E+00
        -11   -1    0    0    0    0  0.00000000000E+00  0.00000000000E+00  0.45593999997E+02  0.45594000000E+02  0.51100000000E-03 0.  1.
         11   -1    0    0    0    0 -0.00000000000E+00 -0.00000000000E+00 -0.45593999997E+02  0.45594000000E+02  0.51100000000E-03 0. -1.
    9900012    2    1    2    0    0  0.97086896356E+00 -0.19590379590E+00 -0.64159393039E+00  0.90007912032E+02  0.90000175670E+02 0.  0.
        -12    1    1    2    0    0 -0.97086896356E+00  0.19590379590E+00  0.64159393039E+00  0.11800879684E+01  0.00000000000E+00 0.  1.
         11    1    3    3    0    0 -0.14075776693E+02  0.33873135113E+02  0.48042559808E+01  0.36994562406E+02  0.51100000000E-03 0. -1.
        -11    1    3    3    0    0 -0.81518525208E+01  0.22417506950E+01 -0.51965798068E+01  0.99238393603E+01  0.51100000000E-03 0.  1.
        -12    1    3    3    0    0  0.23198498177E+02 -0.36310789603E+02 -0.24927010440E+00  0.43089510265E+02  0.00000000000E+00 0.  1.
</event>
<event>
 7    1  0.2593256E-015  0.9000776E+02  0.7816164E-02  0.1186339E+00
        -11   -1    0    0    0    0  0.00000000000E+00  0.00000000000E+00  0.45593999997E+02  0.45594000000E+02  0.51100000000E-03 0.  1.
         11   -1    0    0    0    0 -0.00000000000E+00 -0.00000000000E+00 -0.45593999997E+02  0.45594000000E+02  0.51100000000E-03 0. -1.
    9900012    2    1    2    0    0  0.35667301007E+00 -0.10441716442E+01 -0.41886452239E+00  0.90007763775E+02  0.90000025457E+02 0.  0.
        -12    1    1    2    0    0 -0.35667301007E+00  0.10441716442E+01  0.41886452239E+00  0.11802362250E+01  0.00000000000E+00 0.  1.
         11    1    3    3    0    0 -0.15746924469E+02  0.30710164851E+02 -0.24880824759E+02  0.42545684815E+02  0.51100000000E-03 0. -1.
        -11    1    3    3    0    0 -0.39898869837E+01 -0.28482928532E+01  0.61269885393E+00  0.49403816115E+01  0.51100000000E-03 0.  1.
        -12    1    3    3    0    0  0.20093484463E+02 -0.28906043642E+02  0.23849261383E+02  0.42521697349E+02  0.00000000000E+00 0.  1.
</event>
<event>
 7    1  0.2593256E-015  0.9000774E+02  0.7816164E-02  0.1186339E+00
        -11   -1    0    0    0    0  0.00000000000E+00  0.00000000000E+00  0.45593999997E+02  0.45594000000E+02  0.51100000000E-03 0.  1.
         11   -1    0    0    0    0 -0.00000000000E+00 -0.00000000000E+00 -0.45593999997E+02  0.45594000000E+02  0.51100000000E-03 0. -1.
    9900012    2    1    2    0    0  0.11250472439E+01  0.30899063979E+00 -0.17834606560E+00  0.90007739929E+02  0.90000001296E+02 0.  0.
        -12    1    1    2    0    0 -0.11250472439E+01 -0.30899063979E+00  0.17834606560E+00  0.11802600712E+01  0.00000000000E+00 0.  1.
         11    1    3    3    0    0 -0.20958584304E+02  0.32337519321E+02 -0.57247328366E+01  0.38958310771E+02  0.51100000000E-03 0. -1.
        -11    1    3    3    0    0  0.74783639124E+01  0.28882562370E+01 -0.75371915210E+01  0.11003508858E+02  0.51100000000E-03 0.  1.
        -12    1    3    3    0    0  0.14605267636E+02 -0.34916784918E+02  0.13083578292E+02  0.40045920300E+02  0.00000000000E+00 0.  1.
</event>
<event>
 7    1  0.2593256E-015  0.9000792E+02  0.7816164E-02  0.1186339E+00
        -11   -1    0    0    0    0  0.00000000000E+00  0.00000000000E+00  0.45593999997E+02  0.45594000000E+02  0.51100000000E-03 0.  1.
         11   -1    0    0    0    0 -0.00000000000E+00 -0.00000000000E+00 -0.45593999997E+02  0.45594000000E+02  0.51100000000E-03 0. -1.
    9900012    2    1    2    0    0 -0.45970441069E+00 -0.69759795444E+00 -0.83343537983E+00  0.90007921366E+02  0.90000185127E+02 0.  0.
        -12    1    1    2    0    0  0.45970441069E+00  0.69759795444E+00  0.83343537983E+00  0.11800786345E+01  0.00000000000E+00 0.  1.
         11    1    3    3    0    0 -0.70223777870E+01  0.72571526833E+01 -0.41064876125E+02  0.42288344804E+02  0.51100000000E-03 0. -1.
        -11    1    3    3    0    0 -0.50163818872E+01 -0.77790372400E+01  0.47655914964E+01  0.10410973547E+02  0.51100000000E-03 0.  1.
        -12    1    3    3    0    0  0.11579055264E+02 -0.17571339773E+00  0.35465849249E+02  0.37308603015E+02  0.00000000000E+00 0.  1.
</event>
<event>
 7    1  0.2593256E-015  0.9000772E+02  0.7816164E-02  0.1186339E+00
        -11   -1    0    0    0    0  0.00000000000E+00  0.00000000000E+00  0.45593999997E+02  0.45594000000E+02  0.51100000000E-03 0. -1.
         11   -1    0    0    0    0 -0.00000000000E+00 -0.00000000000E+00 -0.45593999997E+02  0.45594000000E+02  0.51100000000E-03 0.  1.
    9900012    2    1    2    0    0 -0.71155730343E+00  0.16566146799E+00  0.92698082572E+00  0.90007724198E+02  0.89999985357E+02 0.  0.
        -12    1    1    2    0    0  0.71155730343E+00 -0.16566146799E+00 -0.92698082572E+00  0.11802758022E+01  0.00000000000E+00 0.  1.
         11    1    3    3    0    0  0.59847209021E+01  0.35435267231E+02  0.52123480620E+01  0.36313132894E+02  0.51100000000E-03 0. -1.
        -11    1    3    3    0    0 -0.60999917374E+01  0.71991683705E+01 -0.60086606620E+01  0.11186685284E+02  0.51100000000E-03 0.  1.
        -12    1    3    3    0    0 -0.59628646815E+00 -0.42468774134E+02  0.17232934257E+01  0.42507906020E+02  0.00000000000E+00 0.  1.
</event>
<event>
 7    1  0.2593256E-015  0.9000772E+02  0.7816164E-02  0.1186339E+00
        -11   -1    0    0    0    0  0.00000000000E+00  0.00000000000E+00  0.45593999997E+02  0.45594000000E+02  0.51100000000E-03 0. -1.
         11   -1    0    0    0    0 -0.00000000000E+00 -0.00000000000E+00 -0.45593999997E+02  0.45594000000E+02  0.51100000000E-03 0.  1.
    9900012    2    1    2    0    0 -0.55807342839E+00  0.72124841099E+00  0.74927855912E+00  0.90007718855E+02  0.89999979944E+02 0.  0.
        -12    1    1    2    0    0  0.55807342839E+00 -0.72124841099E+00 -0.74927855912E+00  0.11802811449E+01  0.00000000000E+00 0.  1.
         11    1    3    3    0    0 -0.36735196819E+01 -0.34903838176E+01 -0.12436789859E+02  0.13429492481E+02  0.51100000000E-03 0. -1.
        -11    1    3    3    0    0  0.25007582036E+01  0.37712385151E+02 -0.55320788497E+01  0.38197927719E+02  0.51100000000E-03 0.  1.
         12    1    3    3    0    0  0.61468804995E+00 -0.33500752922E+02  0.18718147267E+02  0.38380298655E+02  0.00000000000E+00 0. -1.
</event>
<event>
 7    1  0.2593256E-015  0.9000777E+02  0.7816164E-02  0.1186339E+00
        -11   -1    0    0    0    0  0.00000000000E+00  0.00000000000E+00  0.45593999997E+02  0.45594000000E+02  0.51100000000E-03 0.  1.
         11   -1    0    0    0    0 -0.00000000000E+00 -0.00000000000E+00 -0.45593999997E+02  0.45594000000E+02  0.51100000000E-03 0. -1.
    9900012    2    1    2    0    0  0.21547567220E+00 -0.71406618521E+00 -0.91467203836E+00  0.90007768997E+02  0.90000030748E+02 0.  0.
        -12    1    1    2    0    0 -0.21547567220E+00  0.71406618521E+00  0.91467203836E+00  0.11802310028E+01  0.00000000000E+00 0.  1.
         11    1    3    3    0    0 -0.39438979926E+02  0.64960790267E+01  0.56351256393E-01  0.39970431021E+02  0.51100000000E-03 0. -1.
        -11    1    3    3    0    0  0.16031560449E+01 -0.54603943437E+01 -0.94335102094E+01  0.11017128974E+02  0.51100000000E-03 0.  1.
        -12    1    3    3    0    0  0.38051299553E+02 -0.17497508682E+01  0.84624869147E+01  0.39020209002E+02  0.00000000000E+00 0.  1.
</event>
<event>
 7    1  0.2593256E-015  0.9000770E+02  0.7816164E-02  0.1186339E+00
        -11   -1    0    0    0    0  0.00000000000E+00  0.00000000000E+00  0.45593999997E+02  0.45594000000E+02  0.51100000000E-03 0.  1.
         11   -1    0    0    0    0 -0.00000000000E+00 -0.00000000000E+00 -0.45593999997E+02  0.45594000000E+02  0.51100000000E-03 0. -1.
    9900012    2    1    2    0    0 -0.40914267532E+00  0.79330725030E+00 -0.77224935797E+00  0.90007702074E+02  0.89999962942E+02 0.  0.
        -12    1    1    2    0    0  0.40914267532E+00 -0.79330725030E+00  0.77224935797E+00  0.11802979255E+01  0.00000000000E+00 0.  1.
         11    1    3    3    0    0 -0.13248190899E+02  0.99508768308E+01  0.35539925554E+02  0.39212508469E+02  0.51100000000E-03 0. -1.
        -11    1    3    3    0    0 -0.34906147351E+01 -0.78385495986E+01  0.22725562306E+01  0.88764724481E+01  0.51100000000E-03 0.  1.
        -12    1    3    3    0    0  0.16329662959E+02 -0.13190199818E+01 -0.38584731143E+02  0.41918721157E+02  0.00000000000E+00 0.  1.
</event>
<event>
 7    1  0.2593256E-015  0.9000776E+02  0.7816164E-02  0.1186339E+00
        -11   -1    0    0    0    0  0.00000000000E+00  0.00000000000E+00  0.45593999997E+02  0.45594000000E+02  0.51100000000E-03 0. -1.
         11   -1    0    0    0    0 -0.00000000000E+00 -0.00000000000E+00 -0.45593999997E+02  0.45594000000E+02  0.51100000000E-03 0.  1.
    9900012    2    1    2    0    0 -0.11176382267E+01  0.28139200771E+00  0.25431939866E+00  0.90007756371E+02  0.90000017955E+02 0.  0.
        -12    1    1    2    0    0  0.11176382267E+01 -0.28139200771E+00 -0.25431939866E+00  0.11802436292E+01  0.00000000000E+00 0.  1.
         11    1    3    3    0    0 -0.12407745434E+01  0.48872053206E+01 -0.69082142490E+01  0.85526441340E+01  0.51100000000E-03 0. -1.
        -11    1    3    3    0    0 -0.31553061946E+02  0.77012156216E+01 -0.19831864905E+02  0.38055319025E+02  0.51100000000E-03 0.  1.
         12    1    3    3    0    0  0.31676198263E+02 -0.12307028934E+02  0.26994398553E+02  0.43399793212E+02  0.00000000000E+00 0. -1.
</event>
<event>
 7    1  0.2593256E-015  0.9000772E+02  0.7816164E-02  0.1186339E+00
        -11   -1    0    0    0    0  0.00000000000E+00  0.00000000000E+00  0.45593999997E+02  0.45594000000E+02  0.51100000000E-03 0.  1.
         11   -1    0    0    0    0 -0.00000000000E+00 -0.00000000000E+00 -0.45593999997E+02  0.45594000000E+02  0.51100000000E-03 0. -1.
    9900012    2    1    2    0    0 -0.17697250921E+00  0.53445969047E+00 -0.10373490839E+01  0.90007720562E+02  0.89999981673E+02 0.  0.
        -12    1    1    2    0    0  0.17697250921E+00 -0.53445969047E+00  0.10373490839E+01  0.11802794379E+01  0.00000000000E+00 0.  1.
         11    1    3    3    0    0 -0.14948625852E+02  0.28575843926E+02  0.22166112007E+02  0.39132809671E+02  0.51100000000E-03 0. -1.
        -11    1    3    3    0    0  0.61765934568E+01  0.57351596369E+01  0.93330356533E+00  0.84801779815E+01  0.51100000000E-03 0.  1.
        -12    1    3    3    0    0  0.85950598863E+01 -0.33776543873E+02 -0.24136764656E+02  0.42394732910E+02  0.00000000000E+00 0.  1.
</event>
<event>
 7    1  0.2593256E-015  0.9000774E+02  0.7816164E-02  0.1186339E+00
        -11   -1    0    0    0    0  0.00000000000E+00  0.00000000000E+00  0.45593999997E+02  0.45594000000E+02  0.51100000000E-03 0.  1.
         11   -1    0    0    0    0 -0.00000000000E+00 -0.00000000000E+00 -0.45593999997E+02  0.45594000000E+02  0.51100000000E-03 0. -1.
    9900012    2    1    2    0    0 -0.56126122300E+00  0.32889445128E+00 -0.98480408667E+00  0.90007735280E+02  0.89999996586E+02 0.  0.
        -12    1    1    2    0    0  0.56126122300E+00 -0.32889445128E+00  0.98480408667E+00  0.11802647202E+01  0.00000000000E+00 0.  1.
         11    1    3    3    0    0 -0.10546798620E+02  0.21489727700E+02  0.33414580135E+02  0.41104470847E+02  0.51100000000E-03 0. -1.
        -11    1    3    3    0    0  0.83243238991E+01  0.40843439334E+01 -0.70627242154E+01  0.11655827184E+02  0.51100000000E-03 0.  1.
        -12    1    3    3    0    0  0.16612134980E+01 -0.25245177183E+02 -0.27336660006E+02  0.37247437248E+02  0.00000000000E+00 0.  1.
</event>
<event>
 7    1  0.2593256E-015  0.9000780E+02  0.7816164E-02  0.1186339E+00
        -11   -1    0    0    0    0  0.00000000000E+00  0.00000000000E+00  0.45593999997E+02  0.45594000000E+02  0.51100000000E-03 0.  1.
         11   -1    0    0    0    0 -0.00000000000E+00 -0.00000000000E+00 -0.45593999997E+02  0.45594000000E+02  0.51100000000E-03 0. -1.
    9900012    2    1    2    0    0 -0.41524187717E+00 -0.54403410743E+00 -0.96149679272E+00  0.90007798742E+02  0.90000060886E+02 0.  0.
        -12    1    1    2    0    0  0.41524187717E+00  0.54403410743E+00  0.96149679272E+00  0.11802012578E+01  0.00000000000E+00 0.  1.
         11    1    3    3    0    0  0.20321402019E+02 -0.35557249855E+01  0.28499909053E+02  0.35183055247E+02  0.51100000000E-03 0. -1.
        -11    1    3    3    0    0  0.78887528744E+01 -0.90907825543E+01 -0.51367099947E-01  0.12036502324E+02  0.51100000000E-03 0.  1.
        -12    1    3    3    0    0 -0.28625396770E+02  0.12102473432E+02 -0.29410038746E+02  0.42788241171E+02  0.00000000000E+00 0.  1.
</event>
<event>
 7    1  0.2593256E-015  0.9000860E+02  0.7816164E-02  0.1186337E+00
        -11   -1    0    0    0    0  0.00000000000E+00  0.00000000000E+00  0.45593999997E+02  0.45594000000E+02  0.51100000000E-03 0. -1.
         11   -1    0    0    0    0 -0.00000000000E+00 -0.00000000000E+00 -0.45593999997E+02  0.45594000000E+02  0.51100000000E-03 0.  1.
    9900012    2    1    2    0    0 -0.97433630959E-03 -0.29747449080E+00  0.11412675232E+01  0.90008600330E+02  0.90000873050E+02 0.  0.
        -12    1    1    2    0    0  0.97433630959E-03  0.29747449080E+00 -0.11412675232E+01  0.11793996699E+01  0.00000000000E+00 0.  1.
         11    1    3    3    0    0  0.40798792020E+01 -0.86637187900E+01 -0.14052978296E+00  0.95773266863E+01  0.51100000000E-03 0. -1.
        -11    1    3    3    0    0 -0.36303965669E+02 -0.16030748320E+02 -0.29384300222E+01  0.39794436624E+02  0.51100000000E-03 0.  1.
         12    1    3    3    0    0  0.32223112130E+02  0.24396992620E+02  0.42202273284E+01  0.40636837019E+02  0.00000000000E+00 0. -1.
</event>
<event>
 7    1  0.2593256E-015  0.9000774E+02  0.7816164E-02  0.1186339E+00
        -11   -1    0    0    0    0  0.00000000000E+00  0.00000000000E+00  0.45593999997E+02  0.45594000000E+02  0.51100000000E-03 0.  1.
         11   -1    0    0    0    0 -0.00000000000E+00 -0.00000000000E+00 -0.45593999997E+02  0.45594000000E+02  0.51100000000E-03 0. -1.
    9900012    2    1    2    0    0  0.10585751403E+01 -0.48631285371E+00  0.18954207810E+00  0.90007742520E+02  0.90000003921E+02 0.  0.
        -12    1    1    2    0    0 -0.10585751403E+01  0.48631285371E+00 -0.18954207810E+00  0.11802574799E+01  0.00000000000E+00 0.  1.
         11    1    3    3    0    0 -0.54763927118E+01 -0.37544719767E+02  0.49094100441E+01  0.38258321536E+02  0.51100000000E-03 0. -1.
        -11    1    3    3    0    0 -0.17418629804E+01 -0.10879995569E+01  0.98673371332E+01  0.10078798145E+02  0.51100000000E-03 0.  1.
        -12    1    3    3    0    0  0.82768308325E+01  0.38146406470E+02 -0.14587205099E+02  0.41670622839E+02  0.00000000000E+00 0.  1.
</event>
<event>
 7    1  0.2593256E-015  0.9000774E+02  0.7816164E-02  0.1186339E+00
        -11   -1    0    0    0    0  0.00000000000E+00  0.00000000000E+00  0.45593999997E+02  0.45594000000E+02  0.51100000000E-03 0.  1.
         11   -1    0    0    0    0 -0.00000000000E+00 -0.00000000000E+00 -0.45593999997E+02  0.45594000000E+02  0.51100000000E-03 0. -1.
    9900012    2    1    2    0    0 -0.79490581484E+00  0.61646365889E+00 -0.61733323209E+00  0.90007744512E+02  0.90000005940E+02 0.  0.
        -12    1    1    2    0    0  0.79490581484E+00 -0.61646365889E+00  0.61733323209E+00  0.11802554879E+01  0.00000000000E+00 0.  1.
         11    1    3    3    0    0 -0.14874323476E+01 -0.22524255613E+01 -0.89461941405E+01  0.93445313290E+01  0.51100000000E-03 0. -1.
        -11    1    3    3    0    0 -0.33623481313E+02  0.18140138403E+02  0.17464927307E+02  0.42007461278E+02  0.51100000000E-03 0.  1.
         12    1    3    3    0    0  0.34316007846E+02 -0.15271249183E+02 -0.91360663983E+01  0.38655751905E+02  0.00000000000E+00 0. -1.
</event>
<event>
 7    1  0.2593256E-015  0.9000771E+02  0.7816164E-02  0.1186339E+00
        -11   -1    0    0    0    0  0.00000000000E+00  0.00000000000E+00  0.45593999997E+02  0.45594000000E+02  0.51100000000E-03 0.  1.
         11   -1    0    0    0    0 -0.00000000000E+00 -0.00000000000E+00 -0.45593999997E+02  0.45594000000E+02  0.51100000000E-03 0. -1.
    9900012    2    1    2    0    0 -0.16967092731E+00 -0.22129328460E+00 -0.11468781888E+01  0.90007708290E+02  0.89999969239E+02 0.  0.
        -12    1    1    2    0    0  0.16967092731E+00  0.22129328460E+00  0.11468781888E+01  0.11802917103E+01  0.00000000000E+00 0.  1.
         11    1    3    3    0    0 -0.91407093309E+01  0.19491346835E+02 -0.28137256016E+02  0.35428383323E+02  0.51100000000E-03 0. -1.
        -11    1    3    3    0    0  0.18175415881E+01  0.92332557358E+01  0.22548687292E+02  0.24433578693E+02  0.51100000000E-03 0.  1.
        -12    1    3    3    0    0  0.71534968155E+01 -0.28945895856E+02  0.44416905348E+01  0.30145746274E+02  0.00000000000E+00 0.  1.
</event>
<event>
 7    1  0.2593256E-015  0.9000775E+02  0.7816164E-02  0.1186339E+00
        -11   -1    0    0    0    0  0.00000000000E+00  0.00000000000E+00  0.45593999997E+02  0.45594000000E+02  0.51100000000E-03 0. -1.
         11   -1    0    0    0    0 -0.00000000000E+00 -0.00000000000E+00 -0.45593999997E+02  0.45594000000E+02  0.51100000000E-03 0.  1.
    9900012    2    1    2    0    0  0.23315066231E+00  0.81029307840E+00  0.82587273204E+00  0.90007745844E+02  0.90000007289E+02 0.  0.
        -12    1    1    2    0    0 -0.23315066231E+00 -0.81029307840E+00 -0.82587273204E+00  0.11802541564E+01  0.00000000000E+00 0.  1.
         11    1    3    3    0    0 -0.31291480233E+01  0.13184566564E+01 -0.84957439585E+01  0.91491836234E+01  0.51100000000E-03 0. -1.
        -11    1    3    3    0    0  0.73205386633E+01  0.12952538068E+02 -0.33039198762E+02  0.36234613063E+02  0.51100000000E-03 0.  1.
         12    1    3    3    0    0 -0.39582399777E+01 -0.13460701646E+02  0.42360815453E+02  0.44623949157E+02  0.00000000000E+00 0. -1.
</event>
<event>
 7    1  0.2593256E-015  0.9000760E+02  0.7816164E-02  0.1186339E+00
        -11   -1    0    0    0    0  0.00000000000E+00  0.00000000000E+00  0.45593999997E+02  0.45594000000E+02  0.51100000000E-03 0.  1.
         11   -1    0    0    0    0 -0.00000000000E+00 -0.00000000000E+00 -0.45593999997E+02  0.45594000000E+02  0.51100000000E-03 0. -1.
    9900012    2    1    2    0    0  0.99171707616E+00 -0.45798785801E+00  0.44731641564E+00  0.90007598537E+02  0.89999858038E+02 0.  0.
        -12    1    1    2    0    0 -0.99171707616E+00  0.45798785801E+00 -0.44731641564E+00  0.11804014626E+01  0.00000000000E+00 0.  1.
         11    1    3    3    0    0 -0.50998430835E+01 -0.31221321236E+01  0.53078941555E+01  0.79956143667E+01  0.51100000000E-03 0. -1.
        -11    1    3    3    0    0 -0.16068570510E+02 -0.33879348322E+02 -0.10411628568E+02  0.38915436663E+02  0.51100000000E-03 0.  1.
         12    1    3    3    0    0  0.22160130670E+02  0.36543492588E+02  0.55510508286E+01  0.43096547508E+02  0.00000000000E+00 0. -1.
</event>
<event>
 7    1  0.2593256E-015  0.9000775E+02  0.7816164E-02  0.1186339E+00
        -11   -1    0    0    0    0  0.00000000000E+00  0.00000000000E+00  0.45593999997E+02  0.45594000000E+02  0.51100000000E-03 0.  1.
         11   -1    0    0    0    0 -0.00000000000E+00 -0.00000000000E+00 -0.45593999997E+02  0.45594000000E+02  0.51100000000E-03 0. -1.
    9900012    2    1    2    0    0  0.51152850404E+00  0.40799215964E+00 -0.98227511081E+00  0.90007752820E+02  0.90000014357E+02 0.  0.
        -12    1    1    2    0    0 -0.51152850404E+00 -0.40799215964E+00  0.98227511081E+00  0.11802471801E+01  0.00000000000E+00 0.  1.
         11    1    3    3    0    0 -0.18736836495E+02  0.22142121274E+02 -0.17744835707E+02  0.34003261180E+02  0.51100000000E-03 0. -1.
        -11    1    3    3    0    0 -0.26696724506E+00  0.11273153352E+02  0.13398793519E+02  0.17512364947E+02  0.51100000000E-03 0.  1.
        -12    1    3    3    0    0  0.19515332244E+02 -0.33007282466E+02  0.33637670766E+01  0.38492126693E+02  0.00000000000E+00 0.  1.
</event>
<event>
 7    1  0.2593256E-015  0.9000770E+02  0.7816164E-02  0.1186339E+00
        -11   -1    0    0    0    0  0.00000000000E+00  0.00000000000E+00  0.45593999997E+02  0.45594000000E+02  0.51100000000E-03 0. -1.
         11   -1    0    0    0    0 -0.00000000000E+00 -0.00000000000E+00 -0.45593999997E+02  0.45594000000E+02  0.51100000000E-03 0.  1.
    9900012    2    1    2    0    0  0.68461314267E+00 -0.19793897768E+00  0.94086988789E+00  0.90007698708E+02  0.89999959531E+02 0.  0.
        -12    1    1    2    0    0 -0.68461314267E+00  0.19793897768E+00 -0.94086988789E+00  0.11803012920E+01  0.00000000000E+00 0.  1.
         11    1    3    3    0    0 -0.34765271787E+01 -0.41055794400E+02  0.16322637968E+00  0.41203047680E+02  0.51100000000E-03 0. -1.
        -11    1    3    3    0    0 -0.72637395663E+01  0.41284856469E+01 -0.52535481129E+01  0.98694515683E+01  0.51100000000E-03 0.  1.
        -12    1    3    3    0    0  0.11424879888E+02  0.36729369776E+02  0.60311916211E+01  0.38935199459E+02  0.00000000000E+00 0.  1.
</event>
<event>
 7    1  0.2593256E-015  0.9000775E+02  0.7816164E-02  0.1186339E+00
        -11   -1    0    0    0    0  0.00000000000E+00  0.00000000000E+00  0.45593999997E+02  0.45594000000E+02  0.51100000000E-03 0.  1.
         11   -1    0    0    0    0 -0.00000000000E+00 -0.00000000000E+00 -0.45593999997E+02  0.45594000000E+02  0.51100000000E-03 0. -1.
    9900012    2    1    2    0    0 -0.84188935609E+00  0.48800918028E+00 -0.66787901479E+00  0.90007748744E+02  0.90000010228E+02 0.  0.
        -12    1    1    2    0    0  0.84188935609E+00 -0.48800918028E+00  0.66787901479E+00  0.11802512556E+01  0.00000000000E+00 0.  1.
         11    1    3    3    0    0  0.22739042705E+02 -0.26984331520E+01 -0.41269409332E+01  0.23267514829E+02  0.51100000000E-03 0. -1.
        -11    1    3    3    0    0  0.10073016987E+02  0.24697273659E+02  0.24719520389E+01  0.26786779286E+02  0.51100000000E-03 0.  1.
        -12    1    3    3    0    0 -0.33653949048E+02 -0.21510831326E+02  0.98710987948E+00  0.39953454629E+02  0.00000000000E+00 0.  1.
</event>
<event>
 7    1  0.2593256E-015  0.9000894E+02  0.7816164E-02  0.1186337E+00
        -11   -1    0    0    0    0  0.00000000000E+00  0.00000000000E+00  0.45593999997E+02  0.45594000000E+02  0.51100000000E-03 0. -1.
         11   -1    0    0    0    0 -0.00000000000E+00 -0.00000000000E+00 -0.45593999997E+02  0.45594000000E+02  0.51100000000E-03 0.  1.
    9900012    2    1    2    0    0 -0.75653051240E+00  0.51537762278E+00  0.74311513133E+00  0.90008944188E+02  0.90001221443E+02 0.  0.
        -12    1    1    2    0    0  0.75653051240E+00 -0.51537762278E+00 -0.74311513133E+00  0.11790558124E+01  0.00000000000E+00 0.  1.
         11    1    3    3    0    0  0.31678222297E+02  0.22840393535E+02 -0.16676825806E+01  0.39089314527E+02  0.51100000000E-03 0. -1.
        -11    1    3    3    0    0  0.53414869328E+01 -0.44586132427E+01  0.57108192694E+01  0.90013427715E+01  0.51100000000E-03 0.  1.
        -12    1    3    3    0    0 -0.37776239742E+02 -0.17866402670E+02 -0.33000215574E+01  0.41918286889E+02  0.00000000000E+00 0.  1.
</event>
<event>
 7    1  0.2593256E-015  0.9000762E+02  0.7816164E-02  0.1186339E+00
        -11   -1    0    0    0    0  0.00000000000E+00  0.00000000000E+00  0.45593999997E+02  0.45594000000E+02  0.51100000000E-03 0.  1.
         11   -1    0    0    0    0 -0.00000000000E+00 -0.00000000000E+00 -0.45593999997E+02  0.45594000000E+02  0.51100000000E-03 0. -1.
    9900012    2    1    2    0    0 -0.47715764061E+00  0.85786318431E+00 -0.65551503642E+00  0.90007615054E+02  0.89999874773E+02 0.  0.
        -12    1    1    2    0    0  0.47715764061E+00 -0.85786318431E+00  0.65551503642E+00  0.11803849457E+01  0.00000000000E+00 0.  1.
         11    1    3    3    0    0 -0.19842889381E+02 -0.25719525438E+02  0.23906531852E+02  0.40333069722E+02  0.51100000000E-03 0. -1.
        -11    1    3    3    0    0 -0.28960002798E+01  0.10598741654E+02  0.23839618233E+01  0.11242927400E+02  0.51100000000E-03 0.  1.
        -12    1    3    3    0    0  0.22261732020E+02  0.15978646968E+02 -0.26946008712E+02  0.38431617933E+02  0.00000000000E+00 0.  1.
</event>
<event>
 7    1  0.2593256E-015  0.9000779E+02  0.7816164E-02  0.1186339E+00
        -11   -1    0    0    0    0  0.00000000000E+00  0.00000000000E+00  0.45593999997E+02  0.45594000000E+02  0.51100000000E-03 0.  1.
         11   -1    0    0    0    0 -0.00000000000E+00 -0.00000000000E+00 -0.45593999997E+02  0.45594000000E+02  0.51100000000E-03 0. -1.
    9900012    2    1    2    0    0 -0.13438283326E+00  0.32248547667E+00 -0.11273175899E+01  0.90007787910E+02  0.90000049911E+02 0.  0.
        -12    1    1    2    0    0  0.13438283326E+00 -0.32248547667E+00  0.11273175899E+01  0.11802120899E+01  0.00000000000E+00 0.  1.
         11    1    3    3    0    0  0.43654845503E+01 -0.20674506305E+00 -0.46099982692E+01  0.63523446997E+01  0.51100000000E-03 0. -1.
        -11    1    3    3    0    0 -0.27158415705E+02  0.33481395193E+02 -0.26715432898E+01  0.43193986983E+02  0.51100000000E-03 0.  1.
         12    1    3    3    0    0  0.22658548322E+02 -0.32952164653E+02  0.61542239690E+01  0.40461456227E+02  0.00000000000E+00 0. -1.
</event>
<event>
 7    1  0.2593256E-015  0.9000760E+02  0.7816164E-02  0.1186339E+00
        -11   -1    0    0    0    0  0.00000000000E+00  0.00000000000E+00  0.45593999997E+02  0.45594000000E+02  0.51100000000E-03 0. -1.
         11   -1    0    0    0    0 -0.00000000000E+00 -0.00000000000E+00 -0.45593999997E+02  0.45594000000E+02  0.51100000000E-03 0.  1.
    9900012    2    1    2    0    0 -0.10721139370E+01 -0.10438498816E+00 -0.48272817545E+00  0.90007597098E+02  0.89999856580E+02 0.  0.
        -12    1    1    2    0    0  0.10721139370E+01  0.10438498816E+00  0.48272817545E+00  0.11804029020E+01  0.00000000000E+00 0.  1.
         11    1    3    3    0    0 -0.22267727355E+02  0.24605787053E+02 -0.21679435088E+02  0.39639555295E+02  0.51100000000E-03 0. -1.
        -11    1    3    3    0    0  0.69694975364E+01  0.11896455418E+01 -0.66926602404E+01  0.97355458902E+01  0.51100000000E-03 0.  1.
        -12    1    3    3    0    0  0.14226115881E+02 -0.25899817583E+02  0.27889367153E+02  0.40632495912E+02  0.00000000000E+00 0.  1.
</event>
<event>
 7    1  0.2593256E-015  0.9000799E+02  0.7816164E-02  0.1186339E+00
        -11   -1    0    0    0    0  0.00000000000E+00  0.00000000000E+00  0.45593999997E+02  0.45594000000E+02  0.51100000000E-03 0. -1.
         11   -1    0    0    0    0 -0.00000000000E+00 -0.00000000000E+00 -0.45593999997E+02  0.45594000000E+02  0.51100000000E-03 0.  1.
    9900012    2    1    2    0    0  0.73575927770E+00 -0.26400077213E-01  0.92216819668E+00  0.90007986076E+02  0.90000250691E+02 0.  0.
        -12    1    1    2    0    0 -0.73575927770E+00  0.26400077213E-01 -0.92216819668E+00  0.11800139244E+01  0.00000000000E+00 0.  1.
         11    1    3    3    0    0 -0.21430101913E+01  0.60927989153E+00 -0.88140937339E+01  0.90913125167E+01  0.51100000000E-03 0. -1.
        -11    1    3    3    0    0  0.13859198478E+02  0.25225048811E+01 -0.33423175142E+02  0.36270498345E+02  0.51100000000E-03 0.  1.
         12    1    3    3    0    0 -0.10980429009E+02 -0.31581848498E+01  0.43159437073E+02  0.44646175214E+02  0.00000000000E+00 0. -1.
</event>
<event>
 7    1  0.2593256E-015  0.9000772E+02  0.7816164E-02  0.1186339E+00
        -11   -1    0    0    0    0  0.00000000000E+00  0.00000000000E+00  0.45593999997E+02  0.45594000000E+02  0.51100000000E-03 0.  1.
         11   -1    0    0    0    0 -0.00000000000E+00 -0.00000000000E+00 -0.45593999997E+02  0.45594000000E+02  0.51100000000E-03 0. -1.
    9900012    2    1    2    0    0 -0.82059931861E+00 -0.50796978976E+00 -0.67944040415E+00  0.90007722146E+02  0.89999983279E+02 0.  0.
        -12    1    1    2    0    0  0.82059931861E+00  0.50796978976E+00  0.67944040415E+00  0.11802778536E+01  0.00000000000E+00 0.  1.
         11    1    3    3    0    0 -0.42007108780E+01  0.36609340890E+02 -0.21947972119E+02  0.42890596786E+02  0.51100000000E-03 0. -1.
        -11    1    3    3    0    0  0.56188399962E+00 -0.12471201177E+00  0.75350549427E+01  0.75570046953E+01  0.51100000000E-03 0.  1.
        -12    1    3    3    0    0  0.28182275597E+01 -0.36992598668E+02  0.13733476773E+02  0.39560120665E+02  0.00000000000E+00 0.  1.
</event>
<event>
 7    1  0.2593256E-015  0.9000773E+02  0.7816164E-02  0.1186339E+00
        -11   -1    0    0    0    0  0.00000000000E+00  0.00000000000E+00  0.45593999997E+02  0.45594000000E+02  0.51100000000E-03 0. -1.
         11   -1    0    0    0    0 -0.00000000000E+00 -0.00000000000E+00 -0.45593999997E+02  0.45594000000E+02  0.51100000000E-03 0.  1.
    9900012    2    1    2    0    0 -0.54751754936E+00  0.80336080546E+00  0.66923344680E+00  0.90007729922E+02  0.89999991157E+02 0.  0.
        -12    1    1    2    0    0  0.54751754936E+00 -0.80336080546E+00 -0.66923344680E+00  0.11802700780E+01  0.00000000000E+00 0.  1.
         11    1    3    3    0    0 -0.52826085949E+01 -0.22565358215E+01 -0.75554027147E+01  0.94911547202E+01  0.51100000000E-03 0. -1.
        -11    1    3    3    0    0 -0.25394374740E+02  0.19657071930E+01 -0.24973773149E+02  0.35671103414E+02  0.51100000000E-03 0.  1.
         12    1    3    3    0    0  0.30129465786E+02  0.10941894340E+01  0.33198409311E+02  0.44845471787E+02  0.00000000000E+00 0. -1.
</event>
<event>
 7    1  0.2593256E-015  0.9000771E+02  0.7816164E-02  0.1186339E+00
        -11   -1    0    0    0    0  0.00000000000E+00  0.00000000000E+00  0.45593999997E+02  0.45594000000E+02  0.51100000000E-03 0. -1.
         11   -1    0    0    0    0 -0.00000000000E+00 -0.00000000000E+00 -0.45593999997E+02  0.45594000000E+02  0.51100000000E-03 0.  1.
    9900012    2    1    2    0    0 -0.98899449249E+00  0.46744211201E+00  0.44325038605E+00  0.90007710570E+02  0.89999971549E+02 0.  0.
        -12    1    1    2    0    0  0.98899449249E+00 -0.46744211201E+00 -0.44325038605E+00  0.11802894302E+01  0.00000000000E+00 0.  1.
         11    1    3    3    0    0 -0.50008807501E+01 -0.23520908755E+02  0.29291956124E+02  0.37898029642E+02  0.51100000000E-03 0. -1.
        -11    1    3    3    0    0  0.72093989362E+01 -0.74861571785E+01 -0.19302854656E+01  0.10570902732E+02  0.51100000000E-03 0.  1.
        -12    1    3    3    0    0 -0.31975126786E+01  0.31474508046E+02 -0.26918420272E+02  0.41538778196E+02  0.00000000000E+00 0.  1.
</event>
<event>
 7    1  0.2593256E-015  0.9000772E+02  0.7816164E-02  0.1186339E+00
        -11   -1    0    0    0    0  0.00000000000E+00  0.00000000000E+00  0.45593999997E+02  0.45594000000E+02  0.51100000000E-03 0.  1.
         11   -1    0    0    0    0 -0.00000000000E+00 -0.00000000000E+00 -0.45593999997E+02  0.45594000000E+02  0.51100000000E-03 0. -1.
    9900012    2    1    2    0    0 -0.10844550703E+01  0.45644873995E+00 -0.93116611413E-01  0.90007720815E+02  0.89999981930E+02 0.  0.
        -12    1    1    2    0    0  0.10844550703E+01 -0.45644873995E+00  0.93116611413E-01  0.11802791852E+01  0.00000000000E+00 0.  1.
         11    1    3    3    0    0  0.26959944244E+02  0.19075105119E+02 -0.12393082196E+02  0.35274448479E+02  0.51100000000E-03 0. -1.
        -11    1    3    3    0    0  0.45459419014E+01  0.93326669319E+01  0.29516497830E+01  0.10792427741E+02  0.51100000000E-03 0.  1.
        -12    1    3    3    0    0 -0.32590341216E+02 -0.27951323311E+02  0.93483158012E+01  0.43940844595E+02  0.00000000000E+00 0.  1.
</event>
<event>
 7    1  0.2593256E-015  0.9000763E+02  0.7816164E-02  0.1186339E+00
        -11   -1    0    0    0    0  0.00000000000E+00  0.00000000000E+00  0.45593999997E+02  0.45594000000E+02  0.51100000000E-03 0.  1.
         11   -1    0    0    0    0 -0.00000000000E+00 -0.00000000000E+00 -0.45593999997E+02  0.45594000000E+02  0.51100000000E-03 0. -1.
    9900012    2    1    2    0    0  0.49710317535E+00 -0.69161943484E+00 -0.81721065887E+00  0.90007626216E+02  0.89999886082E+02 0.  0.
        -12    1    1    2    0    0 -0.49710317535E+00  0.69161943484E+00  0.81721065887E+00  0.11803737843E+01  0.00000000000E+00 0.  1.
         11    1    3    3    0    0  0.22156561921E+02  0.77782951419E+01 -0.25196189435E+02  0.34442169993E+02  0.51100000000E-03 0. -1.
        -11    1    3    3    0    0  0.73206979756E+01  0.11831784354E+02  0.11001177001E+02  0.17737238667E+02  0.51100000000E-03 0.  1.
        -12    1    3    3    0    0 -0.28980156722E+02 -0.20301698931E+02  0.13377801775E+02  0.37828217556E+02  0.00000000000E+00 0.  1.
</event>
<event>
 7    1  0.2593256E-015  0.9000774E+02  0.7816164E-02  0.1186339E+00
        -11   -1    0    0    0    0  0.00000000000E+00  0.00000000000E+00  0.45593999997E+02  0.45594000000E+02  0.51100000000E-03 0.  1.
         11   -1    0    0    0    0 -0.00000000000E+00 -0.00000000000E+00 -0.45593999997E+02  0.45594000000E+02  0.51100000000E-03 0. -1.
    9900012    2    1    2    0    0 -0.51013667324E+00  0.24371278899E+00 -0.10360447406E+01  0.90007735600E+02  0.89999996910E+02 0.  0.
        -12    1    1    2    0    0  0.51013667324E+00 -0.24371278899E+00  0.10360447406E+01  0.11802643998E+01  0.00000000000E+00 0.  1.
         11    1    3    3    0    0  0.24560369002E+02  0.69245164891E+01 -0.23289384134E+02  0.34547880799E+02  0.51100000000E-03 0. -1.
        -11    1    3    3    0    0  0.12633936478E+01  0.96026789109E-01 -0.11807978611E+02  0.11875762872E+02  0.51100000000E-03 0.  1.
        -12    1    3    3    0    0 -0.26333899323E+02 -0.67768304892E+01  0.34061318005E+02  0.43584091929E+02  0.00000000000E+00 0.  1.
</event>
<event>
 7    1  0.2593256E-015  0.9000783E+02  0.7816164E-02  0.1186339E+00
        -11   -1    0    0    0    0  0.00000000000E+00  0.00000000000E+00  0.45593999997E+02  0.45594000000E+02  0.51100000000E-03 0.  1.
         11   -1    0    0    0    0 -0.00000000000E+00 -0.00000000000E+00 -0.45593999997E+02  0.45594000000E+02  0.51100000000E-03 0. -1.
    9900012    2    1    2    0    0 -0.25852674864E-01 -0.41599050993E+00 -0.11041225739E+01  0.90007829197E+02  0.90000091743E+02 0.  0.
        -12    1    1    2    0    0  0.25852674864E-01  0.41599050993E+00  0.11041225739E+01  0.11801708026E+01  0.00000000000E+00 0.  1.
         11    1    3    3    0    0 -0.33628184747E+01 -0.55416536684E+01 -0.70216118004E+01  0.95562286500E+01  0.51100000000E-03 0. -1.
        -11    1    3    3    0    0  0.18227582644E+02 -0.27009155567E+02 -0.18465364753E+02  0.37452756229E+02  0.51100000000E-03 0.  1.
         12    1    3    3    0    0 -0.14890616844E+02  0.32134818725E+02  0.24382853979E+02  0.42998844318E+02  0.00000000000E+00 0. -1.
</event>
<event>
 7    1  0.2593256E-015  0.9000782E+02  0.7816164E-02  0.1186339E+00
        -11   -1    0    0    0    0  0.00000000000E+00  0.00000000000E+00  0.45593999997E+02  0.45594000000E+02  0.51100000000E-03 0. -1.
         11   -1    0    0    0    0 -0.00000000000E+00 -0.00000000000E+00 -0.45593999997E+02  0.45594000000E+02  0.51100000000E-03 0.  1.
    9900012    2    1    2    0    0  0.37473931154E+00 -0.11162387808E+01 -0.79971432499E-01  0.90007824590E+02  0.90000087075E+02 0.  0.
        -12    1    1    2    0    0 -0.37473931154E+00  0.11162387808E+01  0.79971432499E-01  0.11801754096E+01  0.00000000000E+00 0.  1.
         11    1    3    3    0    0 -0.12633965527E+01 -0.47452255424E+01 -0.49071509687E+01  0.69421514812E+01  0.51100000000E-03 0. -1.
        -11    1    3    3    0    0 -0.34373188696E+02  0.23447356471E+02 -0.53911472241E+00  0.41612321151E+02  0.51100000000E-03 0.  1.
         12    1    3    3    0    0  0.36011324560E+02 -0.19818369709E+02  0.53662942586E+01  0.41453351958E+02  0.00000000000E+00 0. -1.
</event>
<event>
 7    1  0.2593256E-015  0.9000777E+02  0.7816164E-02  0.1186339E+00
        -11   -1    0    0    0    0  0.00000000000E+00  0.00000000000E+00  0.45593999997E+02  0.45594000000E+02  0.51100000000E-03 0.  1.
         11   -1    0    0    0    0 -0.00000000000E+00 -0.00000000000E+00 -0.45593999997E+02  0.45594000000E+02  0.51100000000E-03 0. -1.
    9900012    2    1    2    0    0  0.75755908494E+00  0.90486028335E+00  0.16920039105E-01  0.90007765198E+02  0.90000026899E+02 0.  0.
        -12    1    1    2    0    0 -0.75755908494E+00 -0.90486028335E+00 -0.16920039105E-01  0.11802348018E+01  0.00000000000E+00 0.  1.
         11    1    3    3    0    0  0.46259574052E+01  0.10440123518E+02 -0.56541199408E+01  0.12742242093E+02  0.51100000000E-03 0. -1.
        -11    1    3    3    0    0 -0.14786280859E+02  0.31390037508E+02  0.28499352236E+01  0.34815092811E+02  0.51100000000E-03 0.  1.
         12    1    3    3    0    0  0.10917882539E+02 -0.40925300743E+02  0.28211047563E+01  0.42450430294E+02  0.00000000000E+00 0. -1.
</event>
<event>
 7    1  0.2593256E-015  0.9000769E+02  0.7816164E-02  0.1186339E+00
        -11   -1    0    0    0    0  0.00000000000E+00  0.00000000000E+00  0.45593999997E+02  0.45594000000E+02  0.51100000000E-03 0.  1.
         11   -1    0    0    0    0 -0.00000000000E+00 -0.00000000000E+00 -0.45593999997E+02  0.45594000000E+02  0.51100000000E-03 0. -1.
    9900012    2    1    2    0    0 -0.67437509897E+00  0.90471037883E+00  0.34619304545E+00  0.90007689758E+02  0.89999950462E+02 0.  0.
        -12    1    1    2    0    0  0.67437509897E+00 -0.90471037883E+00 -0.34619304545E+00  0.11803102424E+01  0.00000000000E+00 0.  1.
         11    1    3    3    0    0 -0.32431573509E+01 -0.24571450035E+02 -0.27967465555E+02  0.37369149794E+02  0.51100000000E-03 0. -1.
        -11    1    3    3    0    0  0.72578134188E+01 -0.13092028621E+01 -0.55342648072E+01  0.92205181510E+01  0.51100000000E-03 0.  1.
        -12    1    3    3    0    0 -0.46890311669E+01  0.26785363276E+02  0.33847923408E+02  0.43418021813E+02  0.00000000000E+00 0.  1.
</event>
<event>
 7    1  0.2593256E-015  0.9000777E+02  0.7816164E-02  0.1186339E+00
        -11   -1    0    0    0    0  0.00000000000E+00  0.00000000000E+00  0.45593999997E+02  0.45594000000E+02  0.51100000000E-03 0.  1.
         11   -1    0    0    0    0 -0.00000000000E+00 -0.00000000000E+00 -0.45593999997E+02  0.45594000000E+02  0.51100000000E-03 0. -1.
    9900012    2    1    2    0    0  0.28622906333E+00 -0.11353056988E+01  0.14861333672E+00  0.90007774585E+02  0.90000036410E+02 0.  0.
        -12    1    1    2    0    0 -0.28622906333E+00  0.11353056988E+01 -0.14861333672E+00  0.11802254150E+01  0.00000000000E+00 0.  1.
         11    1    3    3    0    0 -0.26644560936E+02 -0.90141522981E+01 -0.26774049137E+02  0.38833455636E+02  0.51100000000E-03 0. -1.
        -11    1    3    3    0    0  0.47805013752E+00 -0.95345716058E+01 -0.93236354842E-01  0.95470037665E+01  0.51100000000E-03 0.  1.
        -12    1    3    3    0    0  0.26452739862E+02  0.17413418205E+02  0.27015898829E+02  0.41627315183E+02  0.00000000000E+00 0.  1.
</event>
<event>
 7    1  0.2593256E-015  0.9000776E+02  0.7816164E-02  0.1186339E+00
        -11   -1    0    0    0    0  0.00000000000E+00  0.00000000000E+00  0.45593999997E+02  0.45594000000E+02  0.51100000000E-03 0.  1.
         11   -1    0    0    0    0 -0.00000000000E+00 -0.00000000000E+00 -0.45593999997E+02  0.45594000000E+02  0.51100000000E-03 0. -1.
    9900012    2    1    2    0    0 -0.32471888983E+00 -0.11284861499E+01 -0.11852178978E+00  0.90007758176E+02  0.90000019784E+02 0.  0.
        -12    1    1    2    0    0  0.32471888983E+00  0.11284861499E+01  0.11852178978E+00  0.11802418238E+01  0.00000000000E+00 0.  1.
         11    1    3    3    0    0  0.60956533282E+01  0.10244490670E+02  0.47941891876E+01  0.12848767599E+02  0.51100000000E-03 0. -1.
        -11    1    3    3    0    0 -0.25674936363E+01  0.14426527796E+02  0.30111743232E+02  0.33487815822E+02  0.51100000000E-03 0.  1.
         12    1    3    3    0    0 -0.38528785817E+01 -0.25799504616E+02 -0.35024454209E+02  0.43671174755E+02  0.00000000000E+00 0. -1.
</event>
<event>
 7    1  0.2593256E-015  0.9000774E+02  0.7816164E-02  0.1186339E+00
        -11   -1    0    0    0    0  0.00000000000E+00  0.00000000000E+00  0.45593999997E+02  0.45594000000E+02  0.51100000000E-03 0.  1.
         11   -1    0    0    0    0 -0.00000000000E+00 -0.00000000000E+00 -0.45593999997E+02  0.45594000000E+02  0.51100000000E-03 0. -1.
    9900012    2    1    2    0    0 -0.93901862305E+00  0.10921287386E+00 -0.70663143779E+00  0.90007740954E+02  0.90000002335E+02 0.  0.
        -12    1    1    2    0    0  0.93901862305E+00 -0.10921287386E+00  0.70663143779E+00  0.11802590458E+01  0.00000000000E+00 0.  1.
         11    1    3    3    0    0  0.23602977550E+02  0.57946283925E+01 -0.28931745396E+02  0.37785237320E+02  0.51100000000E-03 0. -1.
        -11    1    3    3    0    0 -0.74020596476E+01  0.18925454057E+01 -0.82317708376E+01  0.11230951274E+02  0.51100000000E-03 0.  1.
        -12    1    3    3    0    0 -0.17139936526E+02 -0.75779609244E+01  0.36456884796E+02  0.40991552360E+02  0.00000000000E+00 0.  1.
</event>
<event>
 7    1  0.2593256E-015  0.9000773E+02  0.7816164E-02  0.1186339E+00
        -11   -1    0    0    0    0  0.00000000000E+00  0.00000000000E+00  0.45593999997E+02  0.45594000000E+02  0.51100000000E-03 0. -1.
         11   -1    0    0    0    0 -0.00000000000E+00 -0.00000000000E+00 -0.45593999997E+02  0.45594000000E+02  0.51100000000E-03 0.  1.
    9900012    2    1    2    0    0  0.69233062203E+00 -0.75946765644E+00  0.58044348578E+00  0.90007734161E+02  0.89999995452E+02 0.  0.
        -12    1    1    2    0    0 -0.69233062203E+00  0.75946765644E+00 -0.58044348578E+00  0.11802658394E+01  0.00000000000E+00 0.  1.
         11    1    3    3    0    0 -0.90564304728E+01 -0.16165632094E+01 -0.32902530655E+01  0.97702597210E+01  0.51100000000E-03 0. -1.
        -11    1    3    3    0    0 -0.21274634113E+02 -0.25190064193E+02 -0.14177259011E+02  0.35890723927E+02  0.51100000000E-03 0.  1.
         12    1    3    3    0    0  0.31023395208E+02  0.26047159746E+02  0.18047955562E+02  0.44346750513E+02  0.00000000000E+00 0. -1.
</event>
<event>
 7    1  0.2593256E-015  0.9000781E+02  0.7816164E-02  0.1186339E+00
        -11   -1    0    0    0    0  0.00000000000E+00  0.00000000000E+00  0.45593999997E+02  0.45594000000E+02  0.51100000000E-03 0.  1.
         11   -1    0    0    0    0 -0.00000000000E+00 -0.00000000000E+00 -0.45593999997E+02  0.45594000000E+02  0.51100000000E-03 0. -1.
    9900012    2    1    2    0    0 -0.58969647455E+00  0.17752400722E+00  0.10067764480E+01  0.90007806998E+02  0.90000069251E+02 0.  0.
        -12    1    1    2    0    0  0.58969647455E+00 -0.17752400722E+00 -0.10067764480E+01  0.11801930018E+01  0.00000000000E+00 0.  1.
         11    1    3    3    0    0 -0.22066711534E+02  0.10574344085E+02 -0.30574313860E+02  0.39160505347E+02  0.51100000000E-03 0. -1.
        -11    1    3    3    0    0  0.41329209021E+01 -0.72595719714E+00 -0.65941178526E+01  0.78160373304E+01  0.51100000000E-03 0.  1.
        -12    1    3    3    0    0  0.17344094158E+02 -0.96708628803E+01  0.38175208160E+02  0.43031264321E+02  0.00000000000E+00 0.  1.
</event>
<event>
 7    1  0.2593256E-015  0.9000788E+02  0.7816164E-02  0.1186339E+00
        -11   -1    0    0    0    0  0.00000000000E+00  0.00000000000E+00  0.45593999997E+02  0.45594000000E+02  0.51100000000E-03 0.  1.
         11   -1    0    0    0    0 -0.00000000000E+00 -0.00000000000E+00 -0.45593999997E+02  0.45594000000E+02  0.51100000000E-03 0. -1.
    9900012    2    1    2    0    0  0.73180383303E+00  0.87356698931E+00 -0.30665485900E+00  0.90007875711E+02  0.90000138870E+02 0.  0.
        -12    1    1    2    0    0 -0.73180383303E+00 -0.87356698931E+00  0.30665485900E+00  0.11801242890E+01  0.00000000000E+00 0.  1.
         11    1    3    3    0    0 -0.25887492689E+02 -0.75024381578E+01  0.11652007389E+02  0.29363551088E+02  0.51100000000E-03 0. -1.
        -11    1    3    3    0    0 -0.73242520414E+01  0.19294681898E+02 -0.13985411425E+02  0.24930325921E+02  0.51100000000E-03 0.  1.
         12    1    3    3    0    0  0.33943548564E+02 -0.10918676751E+02  0.20267491773E+01  0.35713998702E+02  0.00000000000E+00 0. -1.
</event>
<event>
 7    1  0.2593256E-015  0.9000777E+02  0.7816164E-02  0.1186339E+00
        -11   -1    0    0    0    0  0.00000000000E+00  0.00000000000E+00  0.45593999997E+02  0.45594000000E+02  0.51100000000E-03 0. -1.
         11   -1    0    0    0    0 -0.00000000000E+00 -0.00000000000E+00 -0.45593999997E+02  0.45594000000E+02  0.51100000000E-03 0.  1.
    9900012    2    1    2    0    0  0.93448713071E+00  0.46893386729E+00  0.54751463384E+00  0.90007772292E+02  0.90000034086E+02 0.  0.
        -12    1    1    2    0    0 -0.93448713071E+00 -0.46893386729E+00 -0.54751463384E+00  0.11802277084E+01  0.00000000000E+00 0.  1.
         11    1    3    3    0    0  0.60011868664E+01  0.96100157779E+01  0.32378920548E+02  0.34303952296E+02  0.51100000000E-03 0. -1.
        -11    1    3    3    0    0  0.15238413577E+02  0.72502808797E+01 -0.35920061351E+01  0.17253357051E+02  0.51100000000E-03 0.  1.
        -12    1    3    3    0    0 -0.20305113313E+02 -0.16391362790E+02 -0.28239399779E+02  0.38450462944E+02  0.00000000000E+00 0.  1.
</event>
<event>
 7    1  0.2593256E-015  0.9000778E+02  0.7816164E-02  0.1186339E+00
        -11   -1    0    0    0    0  0.00000000000E+00  0.00000000000E+00  0.45593999997E+02  0.45594000000E+02  0.51100000000E-03 0. -1.
         11   -1    0    0    0    0 -0.00000000000E+00 -0.00000000000E+00 -0.45593999997E+02  0.45594000000E+02  0.51100000000E-03 0.  1.
    9900012    2    1    2    0    0 -0.28979318048E-01  0.11412675447E+01  0.29932425646E+00  0.90007776962E+02  0.90000038818E+02 0.  0.
        -12    1    1    2    0    0  0.28979318048E-01 -0.11412675447E+01 -0.29932425646E+00  0.11802230382E+01  0.00000000000E+00 0.  1.
         11    1    3    3    0    0  0.33041447702E+02 -0.10265278312E+02  0.17126511643E+02  0.38606095457E+02  0.51100000000E-03 0. -1.
        -11    1    3    3    0    0  0.67630588396E+01  0.33359060858E+01 -0.36025059739E+00  0.75496367486E+01  0.51100000000E-03 0.  1.
        -12    1    3    3    0    0 -0.39833485860E+02  0.80706397709E+01 -0.16466936789E+02  0.43852044756E+02  0.00000000000E+00 0.  1.
</event>
<event>
 7    1  0.2593256E-015  0.9000776E+02  0.7816164E-02  0.1186339E+00
        -11   -1    0    0    0    0  0.00000000000E+00  0.00000000000E+00  0.45593999997E+02  0.45594000000E+02  0.51100000000E-03 0.  1.
         11   -1    0    0    0    0 -0.00000000000E+00 -0.00000000000E+00 -0.45593999997E+02  0.45594000000E+02  0.51100000000E-03 0. -1.
    9900012    2    1    2    0    0  0.82339467793E+00 -0.35793896937E+00 -0.76606735777E+00  0.90007763457E+02  0.90000025134E+02 0.  0.
        -12    1    1    2    0    0 -0.82339467793E+00  0.35793896937E+00  0.76606735777E+00  0.11802365433E+01  0.00000000000E+00 0.  1.
         11    1    3    3    0    0  0.19802124198E+02  0.29029318228E+02 -0.13873469933E+02  0.37779605713E+02  0.51100000000E-03 0. -1.
        -11    1    3    3    0    0 -0.99819042725E+00  0.77950086093E+01 -0.22329008579E+01  0.81697239764E+01  0.51100000000E-03 0.  1.
        -12    1    3    3    0    0 -0.17980539093E+02 -0.37182265807E+02  0.15340303433E+02  0.44058433768E+02  0.00000000000E+00 0.  1.
</event>
<event>
 7    1  0.2593256E-015  0.9000774E+02  0.7816164E-02  0.1186339E+00
        -11   -1    0    0    0    0  0.00000000000E+00  0.00000000000E+00  0.45593999997E+02  0.45594000000E+02  0.51100000000E-03 0.  1.
         11   -1    0    0    0    0 -0.00000000000E+00 -0.00000000000E+00 -0.45593999997E+02  0.45594000000E+02  0.51100000000E-03 0. -1.
    9900012    2    1    2    0    0 -0.53792436167E+00  0.43909344833E+00  0.95437948621E+00  0.90007743300E+02  0.90000004711E+02 0.  0.
        -12    1    1    2    0    0  0.53792436167E+00 -0.43909344833E+00 -0.95437948621E+00  0.11802567004E+01  0.00000000000E+00 0.  1.
         11    1    3    3    0    0  0.88268917325E+01 -0.37256318110E+02  0.21913496426E+01  0.38350349024E+02  0.51100000000E-03 0. -1.
        -11    1    3    3    0    0  0.13278750825E+01 -0.49550211162E+01  0.50989387392E+01  0.72328875993E+01  0.51100000000E-03 0.  1.
        -12    1    3    3    0    0 -0.10692691177E+02  0.42650432674E+02 -0.63359088956E+01  0.44424506676E+02  0.00000000000E+00 0.  1.
</event>
<event>
 7    1  0.2593256E-015  0.9000773E+02  0.7816164E-02  0.1186339E+00
        -11   -1    0    0    0    0  0.00000000000E+00  0.00000000000E+00  0.45593999997E+02  0.45594000000E+02  0.51100000000E-03 0. -1.
         11   -1    0    0    0    0 -0.00000000000E+00 -0.00000000000E+00 -0.45593999997E+02  0.45594000000E+02  0.51100000000E-03 0.  1.
    9900012    2    1    2    0    0 -0.70729108547E+00 -0.86537762759E-02  0.94483038419E+00  0.90007728835E+02  0.89999990056E+02 0.  0.
        -12    1    1    2    0    0  0.70729108547E+00  0.86537762759E-02 -0.94483038419E+00  0.11802711647E+01  0.00000000000E+00 0.  1.
         11    1    3    3    0    0  0.17247054515E+02  0.23368604952E+01 -0.16983867603E+02  0.24318173563E+02  0.51100000000E-03 0. -1.
        -11    1    3    3    0    0  0.37936611524E+01 -0.15260235872E+02 -0.16614560644E+02  0.22875976252E+02  0.51100000000E-03 0.  1.
        -12    1    3    3    0    0 -0.21748006753E+02  0.12914721600E+02  0.34543258631E+02  0.42813579021E+02  0.00000000000E+00 0.  1.
</event>
<event>
 7    1  0.2593256E-015  0.9000774E+02  0.7816164E-02  0.1186339E+00
        -11   -1    0    0    0    0  0.00000000000E+00  0.00000000000E+00  0.45593999997E+02  0.45594000000E+02  0.51100000000E-03 0.  1.
         11   -1    0    0    0    0 -0.00000000000E+00 -0.00000000000E+00 -0.45593999997E+02  0.45594000000E+02  0.51100000000E-03 0. -1.
    9900012    2    1    2    0    0 -0.66436630446E+00 -0.46258559013E+00 -0.85886111921E+00  0.90007741369E+02  0.90000002755E+02 0.  0.
        -12    1    1    2    0    0  0.66436630446E+00  0.46258559013E+00  0.85886111921E+00  0.11802586313E+01  0.00000000000E+00 0.  1.
         11    1    3    3    0    0  0.36505118305E+02 -0.36722248372E+01  0.12260759017E+00  0.36689561602E+02  0.51100000000E-03 0. -1.
        -11    1    3    3    0    0  0.71792339075E+01  0.50579870360E+01 -0.16001362201E+01  0.89266493456E+01  0.51100000000E-03 0.  1.
        -12    1    3    3    0    0 -0.44348718517E+02 -0.18483477889E+01  0.61866751070E+00  0.44391530421E+02  0.00000000000E+00 0.  1.
</event>
<event>
 7    1  0.2593256E-015  0.9000759E+02  0.7816164E-02  0.1186339E+00
        -11   -1    0    0    0    0  0.00000000000E+00  0.00000000000E+00  0.45593999997E+02  0.45594000000E+02  0.51100000000E-03 0. -1.
         11   -1    0    0    0    0 -0.00000000000E+00 -0.00000000000E+00 -0.45593999997E+02  0.45594000000E+02  0.51100000000E-03 0.  1.
    9900012    2    1    2    0    0  0.19123695718E+00  0.52305598529E+00  0.10407748788E+01  0.90007588425E+02  0.89999847792E+02 0.  0.
        -12    1    1    2    0    0 -0.19123695718E+00 -0.52305598529E+00 -0.10407748788E+01  0.11804115748E+01  0.00000000000E+00 0.  1.
         11    1    3    3    0    0 -0.12791642795E+01 -0.28732030668E+01 -0.11566025749E+02  0.11986013057E+02  0.51100000000E-03 0. -1.
        -11    1    3    3    0    0  0.11968110908E+02  0.29009501142E+02 -0.18462733662E+02  0.36409605460E+02  0.51100000000E-03 0.  1.
         12    1    3    3    0    0 -0.10497709672E+02 -0.25613242090E+02  0.31069534289E+02  0.41611969908E+02  0.00000000000E+00 0. -1.
</event>
<event>
 7    1  0.3147951E-015  0.9000799E+02  0.7816164E-02  0.1186339E+00
        -11   -1    0    0    0    0  0.00000000000E+00  0.00000000000E+00  0.45593999997E+02  0.45594000000E+02  0.51100000000E-03 0. -1.
         11   -1    0    0    0    0 -0.00000000000E+00 -0.00000000000E+00 -0.45593999997E+02  0.45594000000E+02  0.51100000000E-03 0.  1.
    9900012    2    1    2    0    0  0.10675024437E+01 -0.44344475153E+00  0.23712297528E+00  0.90007986432E+02  0.90000251053E+02 0.  0.
        -12    1    1    2    0    0 -0.10675024437E+01  0.44344475153E+00 -0.23712297528E+00  0.11800135679E+01  0.00000000000E+00 0.  1.
         11    1    3    3    0    0 -0.35469366749E+01 -0.27151041093E+02  0.29685574343E+02  0.40385555792E+02  0.51100000000E-03 0. -1.
        -11    1    3    3    0    0  0.64049068529E+01 -0.50219967828E+01 -0.53714785649E+01  0.97517211668E+01  0.51100000000E-03 0.  1.
        -12    1    3    3    0    0 -0.17904677343E+01  0.31729593125E+02 -0.24076972803E+02  0.39870709474E+02  0.00000000000E+00 0.  1.
</event>
<event>
 7    1  0.2593256E-015  0.9000769E+02  0.7816164E-02  0.1186339E+00
        -11   -1    0    0    0    0  0.00000000000E+00  0.00000000000E+00  0.45593999997E+02  0.45594000000E+02  0.51100000000E-03 0. -1.
         11   -1    0    0    0    0 -0.00000000000E+00 -0.00000000000E+00 -0.45593999997E+02  0.45594000000E+02  0.51100000000E-03 0.  1.
    9900012    2    1    2    0    0 -0.79444261941E+00 -0.87279403428E+00 -0.14618208078E-01  0.90007694025E+02  0.89999954786E+02 0.  0.
        -12    1    1    2    0    0  0.79444261941E+00  0.87279403428E+00  0.14618208078E-01  0.11803059747E+01  0.00000000000E+00 0.  1.
         11    1    3    3    0    0  0.20330108819E+01  0.14337500232E+02 -0.54114148953E+01  0.15458992774E+02  0.51100000000E-03 0. -1.
        -11    1    3    3    0    0 -0.30084576157E+02  0.13180448050E+02  0.11335095412E+02  0.34746083543E+02  0.51100000000E-03 0.  1.
         12    1    3    3    0    0  0.27257122656E+02 -0.28390742316E+02 -0.59382987245E+01  0.39802617709E+02  0.00000000000E+00 0. -1.
</event>
<event>
 7    1  0.2593256E-015  0.9000777E+02  0.7816164E-02  0.1186339E+00
        -11   -1    0    0    0    0  0.00000000000E+00  0.00000000000E+00  0.45593999997E+02  0.45594000000E+02  0.51100000000E-03 0.  1.
         11   -1    0    0    0    0 -0.00000000000E+00 -0.00000000000E+00 -0.45593999997E+02  0.45594000000E+02  0.51100000000E-03 0. -1.
    9900012    2    1    2    0    0  0.35593026110E+00  0.10200518012E+01  0.47513222161E+00  0.90007770083E+02  0.90000031849E+02 0.  0.
        -12    1    1    2    0    0 -0.35593026110E+00 -0.10200518012E+01 -0.47513222161E+00  0.11802299165E+01  0.00000000000E+00 0.  1.
         11    1    3    3    0    0 -0.30145016378E+02 -0.17726278396E+02 -0.62111450899E+01  0.35517900864E+02  0.51100000000E-03 0. -1.
        -11    1    3    3    0    0  0.58501214238E+01  0.26536374723E+02 -0.19232031835E+01  0.27241545750E+02  0.51100000000E-03 0.  1.
        -12    1    3    3    0    0  0.24650825215E+02 -0.77900445252E+01  0.86094804950E+01  0.27248323469E+02  0.00000000000E+00 0.  1.
</event>
<event>
 7    1  0.2593256E-015  0.9000772E+02  0.7816164E-02  0.1186339E+00
        -11   -1    0    0    0    0  0.00000000000E+00  0.00000000000E+00  0.45593999997E+02  0.45594000000E+02  0.51100000000E-03 0. -1.
         11   -1    0    0    0    0 -0.00000000000E+00 -0.00000000000E+00 -0.45593999997E+02  0.45594000000E+02  0.51100000000E-03 0.  1.
    9900012    2    1    2    0    0  0.89765374166E-01  0.73353844740E+00  0.92028951501E+00  0.90007716446E+02  0.89999977503E+02 0.  0.
        -12    1    1    2    0    0 -0.89765374166E-01 -0.73353844740E+00 -0.92028951501E+00  0.11802835539E+01  0.00000000000E+00 0.  1.
         11    1    3    3    0    0 -0.78592933686E+01 -0.11221096186E+02 -0.15797831133E+00  0.13700600325E+02  0.51100000000E-03 0. -1.
        -11    1    3    3    0    0 -0.77372114653E+01 -0.27025270108E+02 -0.14330600674E+02  0.31553062951E+02  0.51100000000E-03 0.  1.
         12    1    3    3    0    0  0.15686270208E+02  0.38979904741E+02  0.15408868501E+02  0.44754053170E+02  0.00000000000E+00 0. -1.
</event>
<event>
 7    1  0.2593256E-015  0.9000775E+02  0.7816164E-02  0.1186339E+00
        -11   -1    0    0    0    0  0.00000000000E+00  0.00000000000E+00  0.45593999997E+02  0.45594000000E+02  0.51100000000E-03 0.  1.
         11   -1    0    0    0    0 -0.00000000000E+00 -0.00000000000E+00 -0.45593999997E+02  0.45594000000E+02  0.51100000000E-03 0. -1.
    9900012    2    1    2    0    0  0.66528496782E+00 -0.40504929467E+00 -0.88675330357E+00  0.90007745603E+02  0.90000007045E+02 0.  0.
        -12    1    1    2    0    0 -0.66528496782E+00  0.40504929467E+00  0.88675330357E+00  0.11802543967E+01  0.00000000000E+00 0.  1.
         11    1    3    3    0    0  0.63451930036E+01  0.69305414939E+01  0.10656759267E+01  0.94567195736E+01  0.51100000000E-03 0. -1.
        -11    1    3    3    0    0 -0.89339476168E+01  0.27491653621E+02  0.23531119998E+02  0.37273583776E+02  0.51100000000E-03 0.  1.
         12    1    3    3    0    0  0.32540395811E+01 -0.34827244410E+02 -0.25483549228E+02  0.43277442254E+02  0.00000000000E+00 0. -1.
</event>
<event>
 7    1  0.2593256E-015  0.9000781E+02  0.7816164E-02  0.1186339E+00
        -11   -1    0    0    0    0  0.00000000000E+00  0.00000000000E+00  0.45593999997E+02  0.45594000000E+02  0.51100000000E-03 0. -1.
         11   -1    0    0    0    0 -0.00000000000E+00 -0.00000000000E+00 -0.45593999997E+02  0.45594000000E+02  0.51100000000E-03 0.  1.
    9900012    2    1    2    0    0 -0.89592188324E+00  0.27417878459E+00  0.71763859902E+00  0.90007807141E+02  0.90000069395E+02 0.  0.
        -12    1    1    2    0    0  0.89592188324E+00 -0.27417878459E+00 -0.71763859902E+00  0.11801928595E+01  0.00000000000E+00 0.  1.
         11    1    3    3    0    0  0.79894392570E+01 -0.65465237875E+01  0.24333422133E+01  0.10611751407E+02  0.51100000000E-03 0. -1.
        -11    1    3    3    0    0 -0.47061774827E+01  0.38449802890E+02 -0.18962210201E+02  0.43128886662E+02  0.51100000000E-03 0.  1.
         12    1    3    3    0    0 -0.41791836575E+01 -0.31629100318E+02  0.17246506587E+02  0.36267169071E+02  0.00000000000E+00 0. -1.
</event>
<event>
 7    1  0.2593256E-015  0.9000769E+02  0.7816164E-02  0.1186339E+00
        -11   -1    0    0    0    0  0.00000000000E+00  0.00000000000E+00  0.45593999997E+02  0.45594000000E+02  0.51100000000E-03 0.  1.
         11   -1    0    0    0    0 -0.00000000000E+00 -0.00000000000E+00 -0.45593999997E+02  0.45594000000E+02  0.51100000000E-03 0. -1.
    9900012    2    1    2    0    0  0.49613600587E+00 -0.16098352280E+00 -0.10588016399E+01  0.90007691759E+02  0.89999952490E+02 0.  0.
        -12    1    1    2    0    0 -0.49613600587E+00  0.16098352280E+00  0.10588016399E+01  0.11803082409E+01  0.00000000000E+00 0.  1.
         11    1    3    3    0    0 -0.15958170586E+02 -0.48780413274E+01 -0.35696007548E+02  0.39403850710E+02  0.51100000000E-03 0. -1.
        -11    1    3    3    0    0 -0.74632647085E+01  0.61532663621E+01  0.16182653161E+01  0.98072315119E+01  0.51100000000E-03 0.  1.
        -12    1    3    3    0    0  0.23917571300E+02 -0.14362085575E+01  0.33018940592E+02  0.40796609537E+02  0.00000000000E+00 0.  1.
</event>
<event>
 7    1  0.2593256E-015  0.9000768E+02  0.7816164E-02  0.1186339E+00
        -11   -1    0    0    0    0  0.00000000000E+00  0.00000000000E+00  0.45593999997E+02  0.45594000000E+02  0.51100000000E-03 0.  1.
         11   -1    0    0    0    0 -0.00000000000E+00 -0.00000000000E+00 -0.45593999997E+02  0.45594000000E+02  0.51100000000E-03 0. -1.
    9900012    2    1    2    0    0  0.90655023406E+00  0.65746257433E+00 -0.37291017103E+00  0.90007681247E+02  0.89999941839E+02 0.  0.
        -12    1    1    2    0    0 -0.90655023406E+00 -0.65746257433E+00  0.37291017103E+00  0.11803187532E+01  0.00000000000E+00 0.  1.
         11    1    3    3    0    0 -0.74367321931E+01 -0.78666046714E+01 -0.19224184442E+01  0.10994732725E+02  0.51100000000E-03 0. -1.
        -11    1    3    3    0    0 -0.94980403469E+01  0.33179451768E+01  0.37346983381E+02  0.38678400930E+02  0.51100000000E-03 0.  1.
         12    1    3    3    0    0  0.17841322774E+02  0.52061220689E+01 -0.35797475107E+02  0.40334547591E+02  0.00000000000E+00 0. -1.
</event>
<event>
 7    1  0.2593256E-015  0.9000773E+02  0.7816164E-02  0.1186339E+00
        -11   -1    0    0    0    0  0.00000000000E+00  0.00000000000E+00  0.45593999997E+02  0.45594000000E+02  0.51100000000E-03 0.  1.
         11   -1    0    0    0    0 -0.00000000000E+00 -0.00000000000E+00 -0.45593999997E+02  0.45594000000E+02  0.51100000000E-03 0. -1.
    9900012    2    1    2    0    0 -0.19785415033E+00 -0.91978177040E-01 -0.11599239738E+01  0.90007733134E+02  0.89999994411E+02 0.  0.
        -12    1    1    2    0    0  0.19785415033E+00  0.91978177040E-01  0.11599239738E+01  0.11802668660E+01  0.00000000000E+00 0.  1.
         11    1    3    3    0    0 -0.22914978912E+01  0.44657932910E+01 -0.45617100343E+01  0.67825858639E+01  0.51100000000E-03 0. -1.
        -11    1    3    3    0    0  0.13932941004E+02  0.12725517504E+02  0.38200600944E+02  0.42606942550E+02  0.51100000000E-03 0.  1.
         12    1    3    3    0    0 -0.11839297263E+02 -0.17283288972E+02 -0.34798814883E+02  0.40618204720E+02  0.00000000000E+00 0. -1.
</event>
<event>
 7    1  0.2593256E-015  0.9000742E+02  0.7816164E-02  0.1186340E+00
        -11   -1    0    0    0    0  0.00000000000E+00  0.00000000000E+00  0.45593999997E+02  0.45594000000E+02  0.51100000000E-03 0.  1.
         11   -1    0    0    0    0 -0.00000000000E+00 -0.00000000000E+00 -0.45593999997E+02  0.45594000000E+02  0.51100000000E-03 0. -1.
    9900012    2    1    2    0    0  0.39660835337E+00  0.78097788560E+00 -0.79153919405E+00  0.90007424319E+02  0.89999681519E+02 0.  0.
        -12    1    1    2    0    0 -0.39660835337E+00 -0.78097788560E+00  0.79153919405E+00  0.11805756814E+01  0.00000000000E+00 0.  1.
         11    1    3    3    0    0  0.55205304295E+01 -0.67098581347E+01  0.86418852294E+01  0.12254820806E+02  0.51100000000E-03 0. -1.
        -11    1    3    3    0    0 -0.46128399158E+01  0.42198677263E+02 -0.59909927057E+01  0.42870720180E+02  0.51100000000E-03 0.  1.
         12    1    3    3    0    0 -0.51108216034E+00 -0.34707841243E+02 -0.34424317177E+01  0.34881883333E+02  0.00000000000E+00 0. -1.
</event>
<event>
 7    1  0.2593256E-015  0.9000767E+02  0.7816164E-02  0.1186339E+00
        -11   -1    0    0    0    0  0.00000000000E+00  0.00000000000E+00  0.45593999997E+02  0.45594000000E+02  0.51100000000E-03 0.  1.
         11   -1    0    0    0    0 -0.00000000000E+00 -0.00000000000E+00 -0.45593999997E+02  0.45594000000E+02  0.51100000000E-03 0. -1.
    9900012    2    1    2    0    0  0.10043932610E+01  0.46150702508E+00  0.41399593292E+00  0.90007666492E+02  0.89999926890E+02 0.  0.
        -12    1    1    2    0    0 -0.10043932610E+01 -0.46150702508E+00 -0.41399593292E+00  0.11803335077E+01  0.00000000000E+00 0.  1.
         11    1    3    3    0    0  0.24455916206E+02 -0.21133049141E+02 -0.24688849812E+02  0.40672311328E+02  0.51100000000E-03 0. -1.
        -11    1    3    3    0    0  0.37190802066E+01  0.13405570993E+01 -0.32752050145E+01  0.51337724012E+01  0.51100000000E-03 0.  1.
        -12    1    3    3    0    0 -0.27170603151E+02  0.20253999067E+02  0.28378050760E+02  0.44201582763E+02  0.00000000000E+00 0.  1.
</event>
<event>
 7    1  0.2593256E-015  0.9000719E+02  0.7816164E-02  0.1186340E+00
        -11   -1    0    0    0    0  0.00000000000E+00  0.00000000000E+00  0.45593999997E+02  0.45594000000E+02  0.51100000000E-03 0. -1.
         11   -1    0    0    0    0 -0.00000000000E+00 -0.00000000000E+00 -0.45593999997E+02  0.45594000000E+02  0.51100000000E-03 0.  1.
    9900012    2    1    2    0    0  0.10293723297E+01  0.42866622164E+00 -0.38851283161E+00  0.90007193351E+02  0.89999447501E+02 0.  0.
        -12    1    1    2    0    0 -0.10293723297E+01 -0.42866622164E+00  0.38851283161E+00  0.11808066493E+01  0.00000000000E+00 0.  1.
         11    1    3    3    0    0  0.33528618161E+02 -0.21860733143E+02 -0.29173182691E+01  0.40131915423E+02  0.51100000000E-03 0. -1.
        -11    1    3    3    0    0  0.37982158073E+01  0.71047496762E+01  0.64700466727E+01  0.10332735141E+02  0.51100000000E-03 0.  1.
        -12    1    3    3    0    0 -0.36297461639E+02  0.15184649688E+02 -0.39412412352E+01  0.39542542787E+02  0.00000000000E+00 0.  1.
</event>
<event>
 7    1  0.2593256E-015  0.9000775E+02  0.7816164E-02  0.1186339E+00
        -11   -1    0    0    0    0  0.00000000000E+00  0.00000000000E+00  0.45593999997E+02  0.45594000000E+02  0.51100000000E-03 0. -1.
         11   -1    0    0    0    0 -0.00000000000E+00 -0.00000000000E+00 -0.45593999997E+02  0.45594000000E+02  0.51100000000E-03 0.  1.
    9900012    2    1    2    0    0  0.87276194775E+00  0.47122743348E+00  0.63971266560E+00  0.90007745364E+02  0.90000006803E+02 0.  0.
        -12    1    1    2    0    0 -0.87276194775E+00 -0.47122743348E+00 -0.63971266560E+00  0.11802546361E+01  0.00000000000E+00 0.  1.
         11    1    3    3    0    0 -0.27604642843E+01  0.55912954166E+01  0.75735904144E+01  0.98103017041E+01  0.51100000000E-03 0. -1.
        -11    1    3    3    0    0  0.54901196204E+01  0.30897079959E+02  0.18164173919E+02  0.36258904808E+02  0.51100000000E-03 0.  1.
         12    1    3    3    0    0 -0.18568933883E+01 -0.36017147942E+02 -0.25098051668E+02  0.43938538852E+02  0.00000000000E+00 0. -1.
</event>
<event>
 7    1  0.2593256E-015  0.9000773E+02  0.7816164E-02  0.1186339E+00
        -11   -1    0    0    0    0  0.00000000000E+00  0.00000000000E+00  0.45593999997E+02  0.45594000000E+02  0.51100000000E-03 0.  1.
         11   -1    0    0    0    0 -0.00000000000E+00 -0.00000000000E+00 -0.45593999997E+02  0.45594000000E+02  0.51100000000E-03 0. -1.
    9900012    2    1    2    0    0 -0.45315373517E-01 -0.88192835316E+00  0.78306276313E+00  0.90007729525E+02  0.89999990755E+02 0.  0.
        -12    1    1    2    0    0  0.45315373517E-01  0.88192835316E+00 -0.78306276313E+00  0.11802704750E+01  0.00000000000E+00 0.  1.
         11    1    3    3    0    0 -0.18906808428E+02 -0.33632331662E+02  0.39522255584E+01  0.38784290958E+02  0.51100000000E-03 0. -1.
        -11    1    3    3    0    0 -0.89453372885E+01  0.11938906691E+01 -0.13420028764E+01  0.91238920487E+01  0.51100000000E-03 0.  1.
        -12    1    3    3    0    0  0.27806830343E+02  0.31556512639E+02 -0.18271599188E+01  0.42099546519E+02  0.00000000000E+00 0.  1.
</event>
<event>
 7    1  0.2593256E-015  0.9000781E+02  0.7816164E-02  0.1186339E+00
        -11   -1    0    0    0    0  0.00000000000E+00  0.00000000000E+00  0.45593999997E+02  0.45594000000E+02  0.51100000000E-03 0.  1.
         11   -1    0    0    0    0 -0.00000000000E+00 -0.00000000000E+00 -0.45593999997E+02  0.45594000000E+02  0.51100000000E-03 0. -1.
    9900012    2    1    2    0    0 -0.92559084133E+00 -0.97646761755E-01 -0.72566291055E+00  0.90007813593E+02  0.90000075932E+02 0.  0.
        -12    1    1    2    0    0  0.92559084133E+00  0.97646761755E-01  0.72566291055E+00  0.11801864070E+01  0.00000000000E+00 0.  1.
         11    1    3    3    0    0 -0.47564340505E+01 -0.92228423855E+01  0.77973674083E+00  0.10406367099E+02  0.51100000000E-03 0. -1.
        -11    1    3    3    0    0 -0.16104540986E+02 -0.18451637679E+01  0.33864607658E+02  0.37544274154E+02  0.51100000000E-03 0.  1.
         12    1    3    3    0    0  0.19935384195E+02  0.10970359392E+02 -0.35370007309E+02  0.42057172340E+02  0.00000000000E+00 0. -1.
</event>
<event>
 7    1  0.2593256E-015  0.9000778E+02  0.7816164E-02  0.1186339E+00
        -11   -1    0    0    0    0  0.00000000000E+00  0.00000000000E+00  0.45593999997E+02  0.45594000000E+02  0.51100000000E-03 0. -1.
         11   -1    0    0    0    0 -0.00000000000E+00 -0.00000000000E+00 -0.45593999997E+02  0.45594000000E+02  0.51100000000E-03 0.  1.
    9900012    2    1    2    0    0 -0.46865247503E+00  0.36519488925E+00  0.10197636850E+01  0.90007779502E+02  0.90000041392E+02 0.  0.
        -12    1    1    2    0    0  0.46865247503E+00 -0.36519488925E+00 -0.10197636850E+01  0.11802204975E+01  0.00000000000E+00 0.  1.
         11    1    3    3    0    0 -0.12948189166E+02  0.22985245621E+02  0.30208977288E+02  0.40106850139E+02  0.51100000000E-03 0. -1.
        -11    1    3    3    0    0 -0.62936731479E+01 -0.28725926908E+01  0.31601354696E+01  0.76058245383E+01  0.51100000000E-03 0.  1.
        -12    1    3    3    0    0  0.18773209839E+02 -0.19747458041E+02 -0.32349349073E+02  0.42295104826E+02  0.00000000000E+00 0.  1.
</event>
<event>
 7    1  0.2593256E-015  0.9000777E+02  0.7816164E-02  0.1186339E+00
        -11   -1    0    0    0    0  0.00000000000E+00  0.00000000000E+00  0.45593999997E+02  0.45594000000E+02  0.51100000000E-03 0.  1.
         11   -1    0    0    0    0 -0.00000000000E+00 -0.00000000000E+00 -0.45593999997E+02  0.45594000000E+02  0.51100000000E-03 0. -1.
    9900012    2    1    2    0    0  0.62079787683E+00  0.94731144477E+00 -0.33189618516E+00  0.90007769491E+02  0.90000031248E+02 0.  0.
        -12    1    1    2    0    0 -0.62079787683E+00 -0.94731144477E+00  0.33189618516E+00  0.11802305093E+01  0.00000000000E+00 0.  1.
         11    1    3    3    0    0 -0.90076275788E+01  0.69255425122E+01 -0.41392003144E+01  0.12092703304E+02  0.51100000000E-03 0. -1.
        -11    1    3    3    0    0 -0.32867869025E+02  0.58640078845E+01 -0.18513916439E+01  0.33438167623E+02  0.51100000000E-03 0.  1.
         12    1    3    3    0    0  0.42496294481E+02 -0.11842238952E+02  0.56586957731E+01  0.44476898564E+02  0.00000000000E+00 0. -1.
</event>
<event>
 7    1  0.2593256E-015  0.9000816E+02  0.7816164E-02  0.1186338E+00
        -11   -1    0    0    0    0  0.00000000000E+00  0.00000000000E+00  0.45593999997E+02  0.45594000000E+02  0.51100000000E-03 0.  1.
         11   -1    0    0    0    0 -0.00000000000E+00 -0.00000000000E+00 -0.45593999997E+02  0.45594000000E+02  0.51100000000E-03 0. -1.
    9900012    2    1    2    0    0 -0.11764107150E+01  0.57798775352E-01  0.68787869641E-01  0.90008163300E+02  0.90000430254E+02 0.  0.
        -12    1    1    2    0    0  0.11764107150E+01 -0.57798775352E-01 -0.68787869641E-01  0.11798367004E+01  0.00000000000E+00 0.  1.
         11    1    3    3    0    0 -0.18308868284E+01  0.33556607085E+01  0.29585889675E+01  0.48338239840E+01  0.51100000000E-03 0. -1.
        -11    1    3    3    0    0  0.41263170610E+02  0.93723487723E+01  0.19589024418E+01  0.42359502704E+02  0.51100000000E-03 0.  1.
         12    1    3    3    0    0 -0.40608694497E+02 -0.12670210705E+02 -0.48487035397E+01  0.42814836611E+02  0.00000000000E+00 0. -1.
</event>
<event>
 7    1  0.2593256E-015  0.9000774E+02  0.7816164E-02  0.1186339E+00
        -11   -1    0    0    0    0  0.00000000000E+00  0.00000000000E+00  0.45593999997E+02  0.45594000000E+02  0.51100000000E-03 0. -1.
         11   -1    0    0    0    0 -0.00000000000E+00 -0.00000000000E+00 -0.45593999997E+02  0.45594000000E+02  0.51100000000E-03 0.  1.
    9900012    2    1    2    0    0  0.90599468285E-01  0.85468284931E+00  0.80890660756E+00  0.90007736921E+02  0.89999998248E+02 0.  0.
        -12    1    1    2    0    0 -0.90599468285E-01 -0.85468284931E+00 -0.80890660756E+00  0.11802630793E+01  0.00000000000E+00 0.  1.
         11    1    3    3    0    0  0.23923357806E+02 -0.22756953996E+02  0.15762342918E+02  0.36587668119E+02  0.51100000000E-03 0. -1.
        -11    1    3    3    0    0  0.87671760599E+01  0.74311680511E+01  0.42701602644E+01  0.12260501768E+02  0.51100000000E-03 0.  1.
        -12    1    3    3    0    0 -0.32599934397E+02  0.16180468794E+02 -0.19223596574E+02  0.41159567033E+02  0.00000000000E+00 0.  1.
</event>
<event>
 7    1  0.2593256E-015  0.9000774E+02  0.7816164E-02  0.1186339E+00
        -11   -1    0    0    0    0  0.00000000000E+00  0.00000000000E+00  0.45593999997E+02  0.45594000000E+02  0.51100000000E-03 0.  1.
         11   -1    0    0    0    0 -0.00000000000E+00 -0.00000000000E+00 -0.45593999997E+02  0.45594000000E+02  0.51100000000E-03 0. -1.
    9900012    2    1    2    0    0 -0.99225373262E+00  0.56045384975E+00 -0.30714683354E+00  0.90007739366E+02  0.90000000725E+02 0.  0.
        -12    1    1    2    0    0  0.99225373262E+00 -0.56045384975E+00  0.30714683354E+00  0.11802606343E+01  0.00000000000E+00 0.  1.
         11    1    3    3    0    0  0.38055371368E+02  0.63488248493E+01 -0.13715671242E+02  0.40946776489E+02  0.51100000000E-03 0. -1.
        -11    1    3    3    0    0  0.47815990464E+00 -0.75905141944E+01  0.27003599863E+01  0.80707178706E+01  0.51100000000E-03 0.  1.
        -12    1    3    3    0    0 -0.39525785005E+02  0.18021431948E+01  0.10708164423E+02  0.40990245006E+02  0.00000000000E+00 0.  1.
</event>
<event>
 7    1  0.2593256E-015  0.9000771E+02  0.7816164E-02  0.1186339E+00
        -11   -1    0    0    0    0  0.00000000000E+00  0.00000000000E+00  0.45593999997E+02  0.45594000000E+02  0.51100000000E-03 0.  1.
         11   -1    0    0    0    0 -0.00000000000E+00 -0.00000000000E+00 -0.45593999997E+02  0.45594000000E+02  0.51100000000E-03 0. -1.
    9900012    2    1    2    0    0  0.98830873885E+00 -0.26229998149E+00 -0.58951670835E+00  0.90007709615E+02  0.89999970582E+02 0.  0.
        -12    1    1    2    0    0 -0.98830873885E+00  0.26229998149E+00  0.58951670835E+00  0.11802903850E+01  0.00000000000E+00 0.  1.
         11    1    3    3    0    0  0.33529850011E+02  0.20469036579E+02 -0.66240626681E+01  0.39838555531E+02  0.51100000000E-03 0. -1.
        -11    1    3    3    0    0  0.41355728094E+00 -0.34468078700E+01  0.11990315606E+02  0.12482755413E+02  0.51100000000E-03 0.  1.
        -12    1    3    3    0    0 -0.32955098554E+02 -0.17284528691E+02 -0.59557696458E+01  0.37686398671E+02  0.00000000000E+00 0.  1.
</event>
<event>
 7    1  0.2593256E-015  0.9000775E+02  0.7816164E-02  0.1186339E+00
        -11   -1    0    0    0    0  0.00000000000E+00  0.00000000000E+00  0.45593999997E+02  0.45594000000E+02  0.51100000000E-03 0.  1.
         11   -1    0    0    0    0 -0.00000000000E+00 -0.00000000000E+00 -0.45593999997E+02  0.45594000000E+02  0.51100000000E-03 0. -1.
    9900012    2    1    2    0    0 -0.28321701021E+00 -0.11086415962E+01 -0.28930072571E+00  0.90007748767E+02  0.90000010250E+02 0.  0.
        -12    1    1    2    0    0  0.28321701021E+00  0.11086415962E+01  0.28930072571E+00  0.11802512332E+01  0.00000000000E+00 0.  1.
         11    1    3    3    0    0  0.33552697410E+01  0.83818545626E+01  0.50457430997E+01  0.10342767745E+02  0.51100000000E-03 0. -1.
        -11    1    3    3    0    0 -0.38589938304E+02 -0.38782258724E+01 -0.17065512432E+02  0.42372817808E+02  0.51100000000E-03 0.  1.
         12    1    3    3    0    0  0.34951451552E+02 -0.56122702864E+01  0.11730468607E+02  0.37292163213E+02  0.00000000000E+00 0. -1.
</event>
<event>
 7    1  0.2593256E-015  0.9000777E+02  0.7816164E-02  0.1186339E+00
        -11   -1    0    0    0    0  0.00000000000E+00  0.00000000000E+00  0.45593999997E+02  0.45594000000E+02  0.51100000000E-03 0.  1.
         11   -1    0    0    0    0 -0.00000000000E+00 -0.00000000000E+00 -0.45593999997E+02  0.45594000000E+02  0.51100000000E-03 0. -1.
    9900012    2    1    2    0    0 -0.10288162713E+01  0.36347309545E+00 -0.44984747133E+00  0.90007771904E+02  0.90000033693E+02 0.  0.
        -12    1    1    2    0    0  0.10288162713E+01 -0.36347309545E+00  0.44984747133E+00  0.11802280961E+01  0.00000000000E+00 0.  1.
         11    1    3    3    0    0 -0.94616280390E+01 -0.39568134196E+00  0.13605153160E+01  0.95671297190E+01  0.51100000000E-03 0. -1.
        -11    1    3    3    0    0 -0.14177974827E+01  0.37564139645E+02 -0.14488301068E+02  0.40286295499E+02  0.51100000000E-03 0.  1.
         12    1    3    3    0    0  0.98506092503E+01 -0.36804985207E+02  0.12677938280E+02  0.40154346686E+02  0.00000000000E+00 0. -1.
</event>
<event>
 7    1  0.2593256E-015  0.9000778E+02  0.7816164E-02  0.1186339E+00
        -11   -1    0    0    0    0  0.00000000000E+00  0.00000000000E+00  0.45593999997E+02  0.45594000000E+02  0.51100000000E-03 0. -1.
         11   -1    0    0    0    0 -0.00000000000E+00 -0.00000000000E+00 -0.45593999997E+02  0.45594000000E+02  0.51100000000E-03 0.  1.
    9900012    2    1    2    0    0 -0.55607863988E+00 -0.96235226823E+00  0.39696149167E+00  0.90007778085E+02  0.90000039956E+02 0.  0.
        -12    1    1    2    0    0  0.55607863988E+00  0.96235226823E+00 -0.39696149167E+00  0.11802219146E+01  0.00000000000E+00 0.  1.
         11    1    3    3    0    0 -0.89054499438E+01  0.13051879012E+01 -0.27751253057E+01  0.94186981522E+01  0.51100000000E-03 0. -1.
        -11    1    3    3    0    0 -0.14333957126E+01  0.68692029541E+01 -0.37303339443E+02  0.37957604065E+02  0.51100000000E-03 0.  1.
         12    1    3    3    0    0  0.97827670165E+01 -0.91367431235E+01  0.40475426240E+02  0.42631475868E+02  0.00000000000E+00 0. -1.
</event>
<event>
 7    1  0.2593256E-015  0.9000771E+02  0.7816164E-02  0.1186339E+00
        -11   -1    0    0    0    0  0.00000000000E+00  0.00000000000E+00  0.45593999997E+02  0.45594000000E+02  0.51100000000E-03 0. -1.
         11   -1    0    0    0    0 -0.00000000000E+00 -0.00000000000E+00 -0.45593999997E+02  0.45594000000E+02  0.51100000000E-03 0.  1.
    9900012    2    1    2    0    0  0.16737733968E+00  0.95489756810E+00  0.67323218663E+00  0.90007709308E+02  0.89999970271E+02 0.  0.
        -12    1    1    2    0    0 -0.16737733968E+00 -0.95489756810E+00 -0.67323218663E+00  0.11802906915E+01  0.00000000000E+00 0.  1.
         11    1    3    3    0    0 -0.51902450345E+01 -0.84967023655E+01  0.12504807395E+02  0.15984455038E+02  0.51100000000E-03 0. -1.
        -11    1    3    3    0    0  0.19297179560E+02  0.27327606831E+02 -0.30028666610E+02  0.44954421948E+02  0.51100000000E-03 0.  1.
         12    1    3    3    0    0 -0.13939557186E+02 -0.17876006897E+02  0.18197091401E+02  0.29068832322E+02  0.00000000000E+00 0. -1.
</event>
<event>
 7    1  0.2593256E-015  0.9000774E+02  0.7816164E-02  0.1186339E+00
        -11   -1    0    0    0    0  0.00000000000E+00  0.00000000000E+00  0.45593999997E+02  0.45594000000E+02  0.51100000000E-03 0. -1.
         11   -1    0    0    0    0 -0.00000000000E+00 -0.00000000000E+00 -0.45593999997E+02  0.45594000000E+02  0.51100000000E-03 0.  1.
    9900012    2    1    2    0    0  0.49539781313E+00  0.58300986346E+00 -0.89872086188E+00  0.90007737876E+02  0.89999999216E+02 0.  0.
        -12    1    1    2    0    0 -0.49539781313E+00 -0.58300986346E+00  0.89872086188E+00  0.11802621242E+01  0.00000000000E+00 0.  1.
         11    1    3    3    0    0 -0.54992982246E+01 -0.49717000932E+01  0.29544637761E+01  0.79805350225E+01  0.51100000000E-03 0. -1.
        -11    1    3    3    0    0  0.88408775488E+01  0.33512633131E+02 -0.28326461082E+02  0.44762105546E+02  0.51100000000E-03 0.  1.
         12    1    3    3    0    0 -0.28461815111E+01 -0.27957923175E+02  0.24473276444E+02  0.37265097307E+02  0.00000000000E+00 0. -1.
</event>
<event>
 7    1  0.2593256E-015  0.9000758E+02  0.7816164E-02  0.1186339E+00
        -11   -1    0    0    0    0  0.00000000000E+00  0.00000000000E+00  0.45593999997E+02  0.45594000000E+02  0.51100000000E-03 0.  1.
         11   -1    0    0    0    0 -0.00000000000E+00 -0.00000000000E+00 -0.45593999997E+02  0.45594000000E+02  0.51100000000E-03 0. -1.
    9900012    2    1    2    0    0  0.91567080286E+00  0.31443733948E+00 -0.67532711983E+00  0.90007580338E+02  0.89999839598E+02 0.  0.
        -12    1    1    2    0    0 -0.91567080286E+00 -0.31443733948E+00  0.67532711983E+00  0.11804196620E+01  0.00000000000E+00 0.  1.
         11    1    3    3    0    0 -0.46424889783E+01  0.83956772244E+01  0.49214703776E+01  0.10782438078E+02  0.51100000000E-03 0. -1.
        -11    1    3    3    0    0  0.20673471894E+02  0.30722663126E+02 -0.63670238820E+01  0.37574106285E+02  0.51100000000E-03 0.  1.
         12    1    3    3    0    0 -0.15115312113E+02 -0.38803903011E+02  0.77022638459E+00  0.41651035975E+02  0.00000000000E+00 0. -1.
</event>
<event>
 7    1  0.2593256E-015  0.9000775E+02  0.7816164E-02  0.1186339E+00
        -11   -1    0    0    0    0  0.00000000000E+00  0.00000000000E+00  0.45593999997E+02  0.45594000000E+02  0.51100000000E-03 0.  1.
         11   -1    0    0    0    0 -0.00000000000E+00 -0.00000000000E+00 -0.45593999997E+02  0.45594000000E+02  0.51100000000E-03 0. -1.
    9900012    2    1    2    0    0  0.26649315463E+00  0.10855772062E+01 -0.37880172414E+00  0.90007751205E+02  0.90000012721E+02 0.  0.
        -12    1    1    2    0    0 -0.26649315463E+00 -0.10855772062E+01  0.37880172414E+00  0.11802487951E+01  0.00000000000E+00 0.  1.
         11    1    3    3    0    0  0.20485339721E+02  0.28413375949E+02 -0.21142005906E+02  0.40913976710E+02  0.51100000000E-03 0. -1.
        -11    1    3    3    0    0  0.46648702195E+01 -0.73761272662E+01 -0.30983411778E+01  0.92611006866E+01  0.51100000000E-03 0.  1.
        -12    1    3    3    0    0 -0.24883716785E+02 -0.19951671476E+02  0.23861545360E+02  0.39832673808E+02  0.00000000000E+00 0.  1.
</event>
<event>
 7    1  0.2593256E-015  0.9000784E+02  0.7816164E-02  0.1186339E+00
        -11   -1    0    0    0    0  0.00000000000E+00  0.00000000000E+00  0.45593999997E+02  0.45594000000E+02  0.51100000000E-03 0. -1.
         11   -1    0    0    0    0 -0.00000000000E+00 -0.00000000000E+00 -0.45593999997E+02  0.45594000000E+02  0.51100000000E-03 0.  1.
    9900012    2    1    2    0    0 -0.83895667434E+00 -0.80198804565E+00 -0.21387214552E+00  0.90007841358E+02  0.90000104063E+02 0.  0.
        -12    1    1    2    0    0  0.83895667434E+00  0.80198804565E+00  0.21387214552E+00  0.11801586425E+01  0.00000000000E+00 0.  1.
         11    1    3    3    0    0  0.12701429634E+02  0.35821268844E+02  0.14269352546E+02  0.40596847645E+02  0.51100000000E-03 0. -1.
        -11    1    3    3    0    0  0.70854373426E+01 -0.37412722540E+01 -0.90825281319E-01  0.80130387437E+01  0.51100000000E-03 0.  1.
        -12    1    3    3    0    0 -0.20625823651E+02 -0.32881984636E+02 -0.14392399410E+02  0.41397954969E+02  0.00000000000E+00 0.  1.
</event>
<event>
 7    1  0.2593256E-015  0.9000768E+02  0.7816164E-02  0.1186339E+00
        -11   -1    0    0    0    0  0.00000000000E+00  0.00000000000E+00  0.45593999997E+02  0.45594000000E+02  0.51100000000E-03 0. -1.
         11   -1    0    0    0    0 -0.00000000000E+00 -0.00000000000E+00 -0.45593999997E+02  0.45594000000E+02  0.51100000000E-03 0.  1.
    9900012    2    1    2    0    0 -0.21336020037E+00 -0.11466077686E+01 -0.18142514555E+00  0.90007683503E+02  0.89999944125E+02 0.  0.
        -12    1    1    2    0    0  0.21336020037E+00  0.11466077686E+01  0.18142514555E+00  0.11803164972E+01  0.00000000000E+00 0.  1.
         11    1    3    3    0    0 -0.30953128342E+02 -0.15015593564E+02  0.10467091774E+02  0.35960036355E+02  0.51100000000E-03 0. -1.
        -11    1    3    3    0    0 -0.91100929297E+01 -0.94423925445E+00  0.25936007543E+01  0.95190412381E+01  0.51100000000E-03 0.  1.
        -12    1    3    3    0    0  0.39849861071E+02  0.14813225050E+02 -0.13242117674E+02  0.44528605909E+02  0.00000000000E+00 0.  1.
</event>
<event>
 7    1  0.2593256E-015  0.9000780E+02  0.7816164E-02  0.1186339E+00
        -11   -1    0    0    0    0  0.00000000000E+00  0.00000000000E+00  0.45593999997E+02  0.45594000000E+02  0.51100000000E-03 0.  1.
         11   -1    0    0    0    0 -0.00000000000E+00 -0.00000000000E+00 -0.45593999997E+02  0.45594000000E+02  0.51100000000E-03 0. -1.
    9900012    2    1    2    0    0  0.12036038207E+00 -0.24138162614E+00 -0.11489623501E+01  0.90007802477E+02  0.90000064670E+02 0.  0.
        -12    1    1    2    0    0 -0.12036038207E+00  0.24138162614E+00  0.11489623501E+01  0.11801975228E+01  0.00000000000E+00 0.  1.
         11    1    3    3    0    0  0.94693595457E+01 -0.42024458981E+01 -0.38320960461E+01  0.11046007519E+02  0.51100000000E-03 0. -1.
        -11    1    3    3    0    0  0.46815062335E+01  0.33264870892E+02 -0.20222218135E+02  0.39209772285E+02  0.51100000000E-03 0.  1.
         12    1    3    3    0    0 -0.14030505397E+02 -0.29303806620E+02  0.22905351831E+02  0.39752022674E+02  0.00000000000E+00 0. -1.
</event>
<event>
 7    1  0.2593256E-015  0.9000772E+02  0.7816164E-02  0.1186339E+00
        -11   -1    0    0    0    0  0.00000000000E+00  0.00000000000E+00  0.45593999997E+02  0.45594000000E+02  0.51100000000E-03 0. -1.
         11   -1    0    0    0    0 -0.00000000000E+00 -0.00000000000E+00 -0.45593999997E+02  0.45594000000E+02  0.51100000000E-03 0.  1.
    9900012    2    1    2    0    0  0.11330777617E+01  0.31958922882E+00  0.84033137787E-01  0.90007718653E+02  0.89999979739E+02 0.  0.
        -12    1    1    2    0    0 -0.11330777617E+01 -0.31958922882E+00 -0.84033137787E-01  0.11802813467E+01  0.00000000000E+00 0.  1.
         11    1    3    3    0    0 -0.40632655119E+01  0.80435345056E+01 -0.34605996813E+01  0.96532028042E+01  0.51100000000E-03 0. -1.
        -11    1    3    3    0    0  0.36901617549E+02 -0.12365739242E+02 -0.16809289502E+02  0.42393314314E+02  0.51100000000E-03 0.  1.
         12    1    3    3    0    0 -0.31705274275E+02  0.46417939651E+01  0.20353922322E+02  0.37961201535E+02  0.00000000000E+00 0. -1.
</event>
<event>
 7    1  0.2593256E-015  0.9000779E+02  0.7816164E-02  0.1186339E+00
        -11   -1    0    0    0    0  0.00000000000E+00  0.00000000000E+00  0.45593999997E+02  0.45594000000E+02  0.51100000000E-03 0.  1.
         11   -1    0    0    0    0 -0.00000000000E+00 -0.00000000000E+00 -0.45593999997E+02  0.45594000000E+02  0.51100000000E-03 0. -1.
    9900012    2    1    2    0    0  0.33627447260E-01 -0.11077911274E+01  0.40566416964E+00  0.90007790101E+02  0.90000052130E+02 0.  0.
        -12    1    1    2    0    0 -0.33627447260E-01  0.11077911274E+01 -0.40566416964E+00  0.11802098990E+01  0.00000000000E+00 0.  1.
         11    1    3    3    0    0  0.97449860099E+01  0.33633393669E+00 -0.41576797712E+01  0.10600196894E+02  0.51100000000E-03 0. -1.
        -11    1    3    3    0    0  0.13974390855E+02  0.17492586421E+02  0.31635355669E+02  0.38756546648E+02  0.51100000000E-03 0.  1.
         12    1    3    3    0    0 -0.23685749418E+02 -0.18936711485E+02 -0.27072011728E+02  0.40651046559E+02  0.00000000000E+00 0. -1.
</event>
<event>
 7    1  0.2593256E-015  0.9000775E+02  0.7816164E-02  0.1186339E+00
        -11   -1    0    0    0    0  0.00000000000E+00  0.00000000000E+00  0.45593999997E+02  0.45594000000E+02  0.51100000000E-03 0.  1.
         11   -1    0    0    0    0 -0.00000000000E+00 -0.00000000000E+00 -0.45593999997E+02  0.45594000000E+02  0.51100000000E-03 0. -1.
    9900012    2    1    2    0    0  0.98812892450E+00 -0.34776396687E+00  0.54373820895E+00  0.90007750116E+02  0.90000011618E+02 0.  0.
        -12    1    1    2    0    0 -0.98812892450E+00  0.34776396687E+00 -0.54373820895E+00  0.11802498837E+01  0.00000000000E+00 0.  1.
         11    1    3    3    0    0 -0.12326675725E+01 -0.39698926424E+01 -0.23565118338E+01  0.47783538191E+01  0.51100000000E-03 0. -1.
        -11    1    3    3    0    0 -0.38210686681E+02 -0.10142651860E+02  0.12481750503E+02  0.41457497021E+02  0.51100000000E-03 0.  1.
         12    1    3    3    0    0  0.40431483178E+02  0.13764780536E+02 -0.95815004606E+01  0.43771899276E+02  0.00000000000E+00 0. -1.
</event>
<event>
 7    1  0.2593256E-015  0.9000772E+02  0.7816164E-02  0.1186339E+00
        -11   -1    0    0    0    0  0.00000000000E+00  0.00000000000E+00  0.45593999997E+02  0.45594000000E+02  0.51100000000E-03 0.  1.
         11   -1    0    0    0    0 -0.00000000000E+00 -0.00000000000E+00 -0.45593999997E+02  0.45594000000E+02  0.51100000000E-03 0. -1.
    9900012    2    1    2    0    0  0.58526653020E+00 -0.10152221708E+01 -0.14091004349E+00  0.90007716726E+02  0.89999977786E+02 0.  0.
        -12    1    1    2    0    0 -0.58526653020E+00  0.10152221708E+01  0.14091004349E+00  0.11802832744E+01  0.00000000000E+00 0.  1.
         11    1    3    3    0    0 -0.81412932636E+01  0.81623706355E+00  0.10285226291E+02  0.13142784297E+02  0.51100000000E-03 0. -1.
        -11    1    3    3    0    0  0.37252316717E+02  0.13503480380E+01  0.13348410626E+02  0.39594679025E+02  0.51100000000E-03 0.  1.
         12    1    3    3    0    0 -0.28525756923E+02 -0.31818072724E+01 -0.23774546961E+02  0.37270253403E+02  0.00000000000E+00 0. -1.
</event>
<event>
 7    1  0.2593256E-015  0.9000772E+02  0.7816164E-02  0.1186339E+00
        -11   -1    0    0    0    0  0.00000000000E+00  0.00000000000E+00  0.45593999997E+02  0.45594000000E+02  0.51100000000E-03 0. -1.
         11   -1    0    0    0    0 -0.00000000000E+00 -0.00000000000E+00 -0.45593999997E+02  0.45594000000E+02  0.51100000000E-03 0.  1.
    9900012    2    1    2    0    0  0.33365623830E+00  0.98453408170E+00  0.55894225774E+00  0.90007724485E+02  0.89999985648E+02 0.  0.
        -12    1    1    2    0    0 -0.33365623830E+00 -0.98453408170E+00 -0.55894225774E+00  0.11802755148E+01  0.00000000000E+00 0.  1.
         11    1    3    3    0    0  0.23013388690E+02 -0.14774777585E+02  0.25516830453E+02  0.37403459042E+02  0.51100000000E-03 0. -1.
        -11    1    3    3    0    0 -0.13678208400E+02 -0.11233800387E+02 -0.75176305619E+01  0.19230351679E+02  0.51100000000E-03 0.  1.
        -12    1    3    3    0    0 -0.90015240516E+01  0.26993112054E+02 -0.17440257633E+02  0.33373913764E+02  0.00000000000E+00 0.  1.
</event>
<event>
 7    1  0.2593256E-015  0.9000729E+02  0.7816164E-02  0.1186340E+00
        -11   -1    0    0    0    0  0.00000000000E+00  0.00000000000E+00  0.45593999997E+02  0.45594000000E+02  0.51100000000E-03 0.  1.
         11   -1    0    0    0    0 -0.00000000000E+00 -0.00000000000E+00 -0.45593999997E+02  0.45594000000E+02  0.51100000000E-03 0. -1.
    9900012    2    1    2    0    0 -0.78346122269E+00  0.83857336086E+00 -0.27761354430E+00  0.90007285789E+02  0.89999541160E+02 0.  0.
        -12    1    1    2    0    0  0.78346122269E+00 -0.83857336086E+00  0.27761354430E+00  0.11807142114E+01  0.00000000000E+00 0.  1.
         11    1    3    3    0    0  0.12225128546E+02 -0.52321210345E+01  0.70806267597E+01  0.15065328873E+02  0.51100000000E-03 0. -1.
        -11    1    3    3    0    0 -0.34945440158E+02 -0.12921739748E+02  0.13039217441E+02  0.39473742382E+02  0.51100000000E-03 0.  1.
         12    1    3    3    0    0  0.21936850389E+02  0.18992434144E+02 -0.20397457745E+02  0.35468214533E+02  0.00000000000E+00 0. -1.
</event>
<event>
 7    1  0.2593256E-015  0.9000776E+02  0.7816164E-02  0.1186339E+00
        -11   -1    0    0    0    0  0.00000000000E+00  0.00000000000E+00  0.45593999997E+02  0.45594000000E+02  0.51100000000E-03 0.  1.
         11   -1    0    0    0    0 -0.00000000000E+00 -0.00000000000E+00 -0.45593999997E+02  0.45594000000E+02  0.51100000000E-03 0. -1.
    9900012    2    1    2    0    0  0.15116871225E+00  0.11238393508E+01  0.32725018848E+00  0.90007762926E+02  0.90000024596E+02 0.  0.
        -12    1    1    2    0    0 -0.15116871225E+00 -0.11238393508E+01 -0.32725018848E+00  0.11802370744E+01  0.00000000000E+00 0.  1.
         11    1    3    3    0    0 -0.71958243045E+01  0.35152786730E+02  0.82893021567E+01  0.36826767885E+02  0.51100000000E-03 0. -1.
        -11    1    3    3    0    0 -0.58658670255E+01  0.48284392435E+01  0.61557980044E+01  0.97783470394E+01  0.51100000000E-03 0.  1.
        -12    1    3    3    0    0  0.13212860042E+02 -0.38857386623E+02 -0.14117849973E+02  0.43402648001E+02  0.00000000000E+00 0.  1.
</event>
<event>
 7    1  0.2593256E-015  0.9000773E+02  0.7816164E-02  0.1186339E+00
        -11   -1    0    0    0    0  0.00000000000E+00  0.00000000000E+00  0.45593999997E+02  0.45594000000E+02  0.51100000000E-03 0.  1.
         11   -1    0    0    0    0 -0.00000000000E+00 -0.00000000000E+00 -0.45593999997E+02  0.45594000000E+02  0.51100000000E-03 0. -1.
    9900012    2    1    2    0    0  0.10443322997E+01  0.64008823288E-01 -0.54617928718E+00  0.90007729313E+02  0.89999990540E+02 0.  0.
        -12    1    1    2    0    0 -0.10443322997E+01 -0.64008823288E-01  0.54617928718E+00  0.11802706873E+01  0.00000000000E+00 0.  1.
         11    1    3    3    0    0  0.38620073227E+02  0.13563780795E+02  0.54691878397E+01  0.41296467420E+02  0.51100000000E-03 0. -1.
        -11    1    3    3    0    0 -0.38326598205E+01  0.49017124468E+01 -0.81073927000E+01  0.10219876852E+02  0.51100000000E-03 0.  1.
        -12    1    3    3    0    0 -0.33743081107E+02 -0.18401484418E+02  0.20920255731E+01  0.38491385041E+02  0.00000000000E+00 0.  1.
</event>
<event>
 7    1  0.2593256E-015  0.9000812E+02  0.7816164E-02  0.1186338E+00
        -11   -1    0    0    0    0  0.00000000000E+00  0.00000000000E+00  0.45593999997E+02  0.45594000000E+02  0.51100000000E-03 0. -1.
         11   -1    0    0    0    0 -0.00000000000E+00 -0.00000000000E+00 -0.45593999997E+02  0.45594000000E+02  0.51100000000E-03 0.  1.
    9900012    2    1    2    0    0  0.72880287588E+00  0.68994661044E+00 -0.62043080199E+00  0.90008121050E+02  0.90000387447E+02 0.  0.
        -12    1    1    2    0    0 -0.72880287588E+00 -0.68994661044E+00  0.62043080199E+00  0.11798789502E+01  0.00000000000E+00 0.  1.
         11    1    3    3    0    0  0.33152242269E+02  0.25316166210E+01 -0.19829337253E+01  0.33307841068E+02  0.51100000000E-03 0. -1.
        -11    1    3    3    0    0  0.97948699956E+01 -0.29941826715E+01  0.91737180441E+01  0.13749971313E+02  0.51100000000E-03 0.  1.
        -12    1    3    3    0    0 -0.42218309389E+02  0.11525126610E+01 -0.78112151207E+01  0.42950308669E+02  0.00000000000E+00 0.  1.
</event>
<event>
 7    1  0.2593256E-015  0.9000774E+02  0.7816164E-02  0.1186339E+00
        -11   -1    0    0    0    0  0.00000000000E+00  0.00000000000E+00  0.45593999997E+02  0.45594000000E+02  0.51100000000E-03 0. -1.
         11   -1    0    0    0    0 -0.00000000000E+00 -0.00000000000E+00 -0.45593999997E+02  0.45594000000E+02  0.51100000000E-03 0.  1.
    9900012    2    1    2    0    0  0.72085141165E+00 -0.29632579160E+00  0.88632930134E+00  0.90007739282E+02  0.90000000640E+02 0.  0.
        -12    1    1    2    0    0 -0.72085141165E+00  0.29632579160E+00 -0.88632930134E+00  0.11802607182E+01  0.00000000000E+00 0.  1.
         11    1    3    3    0    0  0.71754477815E+01 -0.98087938636E+01 -0.50380683887E+01  0.13156048847E+02  0.51100000000E-03 0. -1.
        -11    1    3    3    0    0  0.31491438412E+02 -0.87119205403E+01  0.10943111586E+02  0.34458089677E+02  0.51100000000E-03 0.  1.
         12    1    3    3    0    0 -0.37946034782E+02  0.18224388612E+02 -0.50187138956E+01  0.42393600757E+02  0.00000000000E+00 0. -1.
</event>
<event>
 7    1  0.2593256E-015  0.9000787E+02  0.7816164E-02  0.1186339E+00
        -11   -1    0    0    0    0  0.00000000000E+00  0.00000000000E+00  0.45593999997E+02  0.45594000000E+02  0.51100000000E-03 0. -1.
         11   -1    0    0    0    0 -0.00000000000E+00 -0.00000000000E+00 -0.45593999997E+02  0.45594000000E+02  0.51100000000E-03 0.  1.
    9900012    2    1    2    0    0 -0.10779707923E+01 -0.28902632728E+00 -0.38360584337E+00  0.90007868359E+02  0.90000131421E+02 0.  0.
        -12    1    1    2    0    0  0.10779707923E+01  0.28902632728E+00  0.38360584337E+00  0.11801316409E+01  0.00000000000E+00 0.  1.
         11    1    3    3    0    0  0.41896361615E+02 -0.14087322121E+02 -0.46819225759E+01  0.44448601332E+02  0.51100000000E-03 0. -1.
        -11    1    3    3    0    0 -0.99541321945E+01  0.12523000360E+01  0.90189735215E+00  0.10073054265E+02  0.51100000000E-03 0.  1.
        -12    1    3    3    0    0 -0.33020200213E+02  0.12545995757E+02  0.33964193803E+01  0.35486212762E+02  0.00000000000E+00 0.  1.
</event>
<event>
 7    1  0.2593256E-015  0.9000770E+02  0.7816164E-02  0.1186339E+00
        -11   -1    0    0    0    0  0.00000000000E+00  0.00000000000E+00  0.45593999997E+02  0.45594000000E+02  0.51100000000E-03 0. -1.
         11   -1    0    0    0    0 -0.00000000000E+00 -0.00000000000E+00 -0.45593999997E+02  0.45594000000E+02  0.51100000000E-03 0.  1.
    9900012    2    1    2    0    0  0.93877908641E+00  0.12872016632E-02  0.71539792288E+00  0.90007702572E+02  0.89999963446E+02 0.  0.
        -12    1    1    2    0    0 -0.93877908641E+00 -0.12872016632E-02 -0.71539792288E+00  0.11802974278E+01  0.00000000000E+00 0.  1.
         11    1    3    3    0    0  0.85713407620E+01  0.18347891559E+02  0.21453627468E+02  0.29502053130E+02  0.51100000000E-03 0. -1.
        -11    1    3    3    0    0  0.52324569053E+01  0.82569156525E+01 -0.28351841913E+02  0.29989701590E+02  0.51100000000E-03 0.  1.
         12    1    3    3    0    0 -0.12865018581E+02 -0.26603520010E+02  0.76136123678E+01  0.30515947852E+02  0.00000000000E+00 0. -1.
</event>
<event>
 7    1  0.2593256E-015  0.9000777E+02  0.7816164E-02  0.1186339E+00
        -11   -1    0    0    0    0  0.00000000000E+00  0.00000000000E+00  0.45593999997E+02  0.45594000000E+02  0.51100000000E-03 0.  1.
         11   -1    0    0    0    0 -0.00000000000E+00 -0.00000000000E+00 -0.45593999997E+02  0.45594000000E+02  0.51100000000E-03 0. -1.
    9900012    2    1    2    0    0 -0.82724416218E+00 -0.83993360112E+00 -0.55846942524E-01  0.90007771107E+02  0.90000032886E+02 0.  0.
        -12    1    1    2    0    0  0.82724416218E+00  0.83993360112E+00  0.55846942524E-01  0.11802288927E+01  0.00000000000E+00 0.  1.
         11    1    3    3    0    0 -0.37933648055E+01 -0.82057576810E+01  0.24104636224E+01  0.93559826209E+01  0.51100000000E-03 0. -1.
        -11    1    3    3    0    0  0.24734815539E+02 -0.29064292456E+02 -0.18279750075E+01  0.38208450487E+02  0.51100000000E-03 0.  1.
         12    1    3    3    0    0 -0.21768694896E+02  0.36430116536E+02 -0.63833555737E+00  0.42443338000E+02  0.00000000000E+00 0. -1.
</event>
<event>
 7    1  0.2593256E-015  0.9000746E+02  0.7816164E-02  0.1186340E+00
        -11   -1    0    0    0    0  0.00000000000E+00  0.00000000000E+00  0.45593999997E+02  0.45594000000E+02  0.51100000000E-03 0. -1.
         11   -1    0    0    0    0 -0.00000000000E+00 -0.00000000000E+00 -0.45593999997E+02  0.45594000000E+02  0.51100000000E-03 0.  1.
    9900012    2    1    2    0    0 -0.91331565633E-01  0.28039841615E+00  0.11431153442E+01  0.90007458846E+02  0.89999716502E+02 0.  0.
        -12    1    1    2    0    0  0.91331565633E-01 -0.28039841615E+00 -0.11431153442E+01  0.11805411542E+01  0.00000000000E+00 0.  1.
         11    1    3    3    0    0  0.29411398004E+02 -0.69125366793E+01 -0.24754836941E+02  0.39059127590E+02  0.51100000000E-03 0. -1.
        -11    1    3    3    0    0 -0.23356921993E+01  0.69932252977E+01 -0.56688806772E+01  0.93003691598E+01  0.51100000000E-03 0.  1.
        -12    1    3    3    0    0 -0.27167037370E+02  0.19970979781E+00  0.31566832962E+02  0.41647962096E+02  0.00000000000E+00 0.  1.
</event>
<event>
 7    1  0.2593256E-015  0.9000769E+02  0.7816164E-02  0.1186339E+00
        -11   -1    0    0    0    0  0.00000000000E+00  0.00000000000E+00  0.45593999997E+02  0.45594000000E+02  0.51100000000E-03 0.  1.
         11   -1    0    0    0    0 -0.00000000000E+00 -0.00000000000E+00 -0.45593999997E+02  0.45594000000E+02  0.51100000000E-03 0. -1.
    9900012    2    1    2    0    0 -0.10408038422E+01  0.41088092399E+00 -0.37554401619E+00  0.90007691108E+02  0.89999951831E+02 0.  0.
        -12    1    1    2    0    0  0.10408038422E+01 -0.41088092399E+00  0.37554401619E+00  0.11803088917E+01  0.00000000000E+00 0.  1.
         11    1    3    3    0    0  0.14915249994E+01 -0.80788660764E+01  0.32472653216E+01  0.88338811535E+01  0.51100000000E-03 0. -1.
        -11    1    3    3    0    0  0.34018906535E+02  0.79039429570E+01 -0.20942190026E+02  0.40722642835E+02  0.51100000000E-03 0.  1.
         12    1    3    3    0    0 -0.36551235377E+02  0.58580404337E+00  0.17319380688E+02  0.40451167120E+02  0.00000000000E+00 0. -1.
</event>
<event>
 7    1  0.2593256E-015  0.9000769E+02  0.7816164E-02  0.1186339E+00
        -11   -1    0    0    0    0  0.00000000000E+00  0.00000000000E+00  0.45593999997E+02  0.45594000000E+02  0.51100000000E-03 0.  1.
         11   -1    0    0    0    0 -0.00000000000E+00 -0.00000000000E+00 -0.45593999997E+02  0.45594000000E+02  0.51100000000E-03 0. -1.
    9900012    2    1    2    0    0 -0.30094858240E+00  0.50630997007E+00  0.10228409617E+01  0.90007693486E+02  0.89999954240E+02 0.  0.
        -12    1    1    2    0    0  0.30094858240E+00 -0.50630997007E+00 -0.10228409617E+01  0.11803065144E+01  0.00000000000E+00 0.  1.
         11    1    3    3    0    0  0.40236820058E+01 -0.76355202975E+01  0.13666122235E+01  0.87383531817E+01  0.51100000000E-03 0. -1.
        -11    1    3    3    0    0  0.10702038505E+02 -0.16722849546E+01  0.37688906824E+02  0.39214587374E+02  0.51100000000E-03 0.  1.
         12    1    3    3    0    0 -0.15026669093E+02  0.98141152222E+01 -0.38032678085E+02  0.42054752930E+02  0.00000000000E+00 0. -1.
</event>
<event>
 7    1  0.2593256E-015  0.9000770E+02  0.7816164E-02  0.1186339E+00
        -11   -1    0    0    0    0  0.00000000000E+00  0.00000000000E+00  0.45593999997E+02  0.45594000000E+02  0.51100000000E-03 0. -1.
         11   -1    0    0    0    0 -0.00000000000E+00 -0.00000000000E+00 -0.45593999997E+02  0.45594000000E+02  0.51100000000E-03 0.  1.
    9900012    2    1    2    0    0 -0.11250441579E+01 -0.30590661651E+00  0.18388587934E+00  0.90007696127E+02  0.89999956916E+02 0.  0.
        -12    1    1    2    0    0  0.11250441579E+01  0.30590661651E+00 -0.18388587934E+00  0.11803038727E+01  0.00000000000E+00 0.  1.
         11    1    3    3    0    0  0.95356066830E+01 -0.38833483978E+01  0.29115580007E+01  0.10699783168E+02  0.51100000000E-03 0. -1.
        -11    1    3    3    0    0 -0.15054829023E+02  0.39121037472E+02 -0.91950204960E+01  0.42914471359E+02  0.51100000000E-03 0.  1.
         12    1    3    3    0    0  0.43941781825E+01 -0.35543595691E+02  0.64673483746E+01  0.36393441600E+02  0.00000000000E+00 0. -1.
</event>
<event>
 7    1  0.2593256E-015  0.9000775E+02  0.7816164E-02  0.1186339E+00
        -11   -1    0    0    0    0  0.00000000000E+00  0.00000000000E+00  0.45593999997E+02  0.45594000000E+02  0.51100000000E-03 0. -1.
         11   -1    0    0    0    0 -0.00000000000E+00 -0.00000000000E+00 -0.45593999997E+02  0.45594000000E+02  0.51100000000E-03 0.  1.
    9900012    2    1    2    0    0 -0.34264531568E+00 -0.89929014583E+00  0.68327812974E+00  0.90007746815E+02  0.90000008273E+02 0.  0.
        -12    1    1    2    0    0  0.34264531568E+00  0.89929014583E+00 -0.68327812974E+00  0.11802531853E+01  0.00000000000E+00 0.  1.
         11    1    3    3    0    0 -0.20231719392E+01 -0.52561405219E+00  0.10555305866E+02  0.10760296325E+02  0.51100000000E-03 0. -1.
        -11    1    3    3    0    0  0.24506783463E+02  0.31002726856E+02 -0.84967272870E+01  0.40422096470E+02  0.51100000000E-03 0.  1.
         12    1    3    3    0    0 -0.22826256839E+02 -0.31376402950E+02 -0.13753004491E+01  0.38825354019E+02  0.00000000000E+00 0. -1.
</event>
<event>
 7    1  0.2593256E-015  0.9000757E+02  0.7816164E-02  0.1186339E+00
        -11   -1    0    0    0    0  0.00000000000E+00  0.00000000000E+00  0.45593999997E+02  0.45594000000E+02  0.51100000000E-03 0. -1.
         11   -1    0    0    0    0 -0.00000000000E+00 -0.00000000000E+00 -0.45593999997E+02  0.45594000000E+02  0.51100000000E-03 0.  1.
    9900012    2    1    2    0    0 -0.91497167148E+00  0.73379381410E+00 -0.13334764558E+00  0.90007572910E+02  0.89999832072E+02 0.  0.
        -12    1    1    2    0    0  0.91497167148E+00 -0.73379381410E+00  0.13334764558E+00  0.11804270904E+01  0.00000000000E+00 0.  1.
         11    1    3    3    0    0 -0.28982929957E+01  0.35031292893E+02  0.19728764870E+01  0.35206303781E+02  0.51100000000E-03 0. -1.
        -11    1    3    3    0    0  0.16224222233E+02 -0.13272829510E+02  0.13558643678E+02  0.24964579086E+02  0.51100000000E-03 0.  1.
        -12    1    3    3    0    0 -0.14240900909E+02 -0.21024669569E+02 -0.15664867810E+02  0.29836690043E+02  0.00000000000E+00 0.  1.
</event>
<event>
 7    1  0.2593256E-015  0.9000775E+02  0.7816164E-02  0.1186339E+00
        -11   -1    0    0    0    0  0.00000000000E+00  0.00000000000E+00  0.45593999997E+02  0.45594000000E+02  0.51100000000E-03 0.  1.
         11   -1    0    0    0    0 -0.00000000000E+00 -0.00000000000E+00 -0.45593999997E+02  0.45594000000E+02  0.51100000000E-03 0. -1.
    9900012    2    1    2    0    0  0.92603488233E+00 -0.69608995247E+00 -0.22561860623E+00  0.90007751899E+02  0.90000013424E+02 0.  0.
        -12    1    1    2    0    0 -0.92603488233E+00  0.69608995247E+00  0.22561860623E+00  0.11802481013E+01  0.00000000000E+00 0.  1.
         11    1    3    3    0    0 -0.26287680023E+02  0.16141310981E+02 -0.11585526454E+02  0.32951607922E+02  0.51100000000E-03 0. -1.
        -11    1    3    3    0    0  0.29269812909E+01  0.15322687130E+02  0.26037548493E+01  0.15815546148E+02  0.51100000000E-03 0.  1.
        -12    1    3    3    0    0  0.24286733615E+02 -0.32160088063E+02  0.87561529988E+01  0.41240597829E+02  0.00000000000E+00 0.  1.
</event>
<event>
 7    1  0.2593256E-015  0.9000782E+02  0.7816164E-02  0.1186339E+00
        -11   -1    0    0    0    0  0.00000000000E+00  0.00000000000E+00  0.45593999997E+02  0.45594000000E+02  0.51100000000E-03 0.  1.
         11   -1    0    0    0    0 -0.00000000000E+00 -0.00000000000E+00 -0.45593999997E+02  0.45594000000E+02  0.51100000000E-03 0. -1.
    9900012    2    1    2    0    0  0.69464475672E+00 -0.14591740149E+00 -0.94287180226E+00  0.90007817615E+02  0.90000080008E+02 0.  0.
        -12    1    1    2    0    0 -0.69464475672E+00  0.14591740149E+00  0.94287180226E+00  0.11801823849E+01  0.00000000000E+00 0.  1.
         11    1    3    3    0    0  0.26074991106E+02  0.30476878096E+02 -0.76189659299E+01  0.40826387322E+02  0.51100000000E-03 0. -1.
        -11    1    3    3    0    0  0.26509266873E+01 -0.22809480096E+01 -0.63460824821E+01  0.72458884379E+01  0.51100000000E-03 0.  1.
        -12    1    3    3    0    0 -0.28031273036E+02 -0.28341847488E+02  0.13022176610E+02  0.41935541856E+02  0.00000000000E+00 0.  1.
</event>
<event>
 7    1  0.2593256E-015  0.9000771E+02  0.7816164E-02  0.1186339E+00
        -11   -1    0    0    0    0  0.00000000000E+00  0.00000000000E+00  0.45593999997E+02  0.45594000000E+02  0.51100000000E-03 0. -1.
         11   -1    0    0    0    0 -0.00000000000E+00 -0.00000000000E+00 -0.45593999997E+02  0.45594000000E+02  0.51100000000E-03 0.  1.
    9900012    2    1    2    0    0  0.85616558604E+00 -0.14414029322E-01  0.81231844984E+00  0.90007708282E+02  0.89999969232E+02 0.  0.
        -12    1    1    2    0    0 -0.85616558604E+00  0.14414029322E-01 -0.81231844984E+00  0.11802917177E+01  0.00000000000E+00 0.  1.
         11    1    3    3    0    0 -0.61347063914E+00  0.25506948456E+01 -0.10213848850E+02  0.10545382830E+02  0.51100000000E-03 0. -1.
        -11    1    3    3    0    0  0.47922317212E+01  0.35829988286E+02 -0.71550627194E+01  0.36850352349E+02  0.51100000000E-03 0.  1.
         12    1    3    3    0    0 -0.33225954960E+01 -0.38395097161E+02  0.18181230020E+02  0.42611973104E+02  0.00000000000E+00 0. -1.
</event>
<event>
 7    1  0.2593256E-015  0.9000791E+02  0.7816164E-02  0.1186339E+00
        -11   -1    0    0    0    0  0.00000000000E+00  0.00000000000E+00  0.45593999997E+02  0.45594000000E+02  0.51100000000E-03 0.  1.
         11   -1    0    0    0    0 -0.00000000000E+00 -0.00000000000E+00 -0.45593999997E+02  0.45594000000E+02  0.51100000000E-03 0. -1.
    9900012    2    1    2    0    0  0.93656688696E+00  0.13928729193E+00 -0.70430409440E+00  0.90007914096E+02  0.90000177762E+02 0.  0.
        -12    1    1    2    0    0 -0.93656688696E+00 -0.13928729193E+00  0.70430409440E+00  0.11800859040E+01  0.00000000000E+00 0.  1.
         11    1    3    3    0    0 -0.26007576276E+01 -0.10516527016E+02 -0.18619685945E+01  0.10992188500E+02  0.51100000000E-03 0. -1.
        -11    1    3    3    0    0 -0.30054342967E+02 -0.76280963337E+01  0.19469072859E+02  0.36612787153E+02  0.51100000000E-03 0.  1.
         12    1    3    3    0    0  0.33591667482E+02  0.18283910641E+02 -0.18311408359E+02  0.42402938443E+02  0.00000000000E+00 0. -1.
</event>
<event>
 7    1  0.2593256E-015  0.9000773E+02  0.7816164E-02  0.1186339E+00
        -11   -1    0    0    0    0  0.00000000000E+00  0.00000000000E+00  0.45593999997E+02  0.45594000000E+02  0.51100000000E-03 0.  1.
         11   -1    0    0    0    0 -0.00000000000E+00 -0.00000000000E+00 -0.45593999997E+02  0.45594000000E+02  0.51100000000E-03 0. -1.
    9900012    2    1    2    0    0  0.98448379000E+00 -0.57954592887E+00 -0.29659187767E+00  0.90007725219E+02  0.89999986392E+02 0.  0.
        -12    1    1    2    0    0 -0.98448379000E+00  0.57954592887E+00  0.29659187767E+00  0.11802747809E+01  0.00000000000E+00 0.  1.
         11    1    3    3    0    0  0.17190970918E+02  0.26009116487E+02 -0.18599326170E+02  0.36303423472E+02  0.51100000000E-03 0. -1.
        -11    1    3    3    0    0 -0.62169898820E+00  0.56968498291E+00 -0.10873276643E+02  0.10905924804E+02  0.51100000000E-03 0.  1.
        -12    1    3    3    0    0 -0.15584788140E+02 -0.27158347399E+02  0.29176010936E+02  0.42798376943E+02  0.00000000000E+00 0.  1.
</event>
<event>
 7    1  0.2593256E-015  0.9000782E+02  0.7816164E-02  0.1186339E+00
        -11   -1    0    0    0    0  0.00000000000E+00  0.00000000000E+00  0.45593999997E+02  0.45594000000E+02  0.51100000000E-03 0.  1.
         11   -1    0    0    0    0 -0.00000000000E+00 -0.00000000000E+00 -0.45593999997E+02  0.45594000000E+02  0.51100000000E-03 0. -1.
    9900012    2    1    2    0    0  0.11393141585E+00  0.12693752328E+00 -0.11677924068E+01  0.90007816706E+02  0.90000079086E+02 0.  0.
        -12    1    1    2    0    0 -0.11393141585E+00 -0.12693752328E+00  0.11677924068E+01  0.11801832941E+01  0.00000000000E+00 0.  1.
         11    1    3    3    0    0  0.24482544835E+02 -0.27430770877E+02  0.25243378154E+01  0.36853961445E+02  0.51100000000E-03 0. -1.
        -11    1    3    3    0    0  0.12743479066E+01 -0.63327171034E+01 -0.81755229471E+01  0.10419522264E+02  0.51100000000E-03 0.  1.
        -12    1    3    3    0    0 -0.25642961326E+02  0.33890425503E+02  0.44833927250E+01  0.42734332997E+02  0.00000000000E+00 0.  1.
</event>
<event>
 7    1  0.4052234E-015  0.9000767E+02  0.7816164E-02  0.1186339E+00
        -11   -1    0    0    0    0  0.00000000000E+00  0.00000000000E+00  0.45593999997E+02  0.45594000000E+02  0.51100000000E-03 0. -1.
         11   -1    0    0    0    0 -0.00000000000E+00 -0.00000000000E+00 -0.45593999997E+02  0.45594000000E+02  0.51100000000E-03 0.  1.
    9900012    2    1    2    0    0 -0.10528964171E+01  0.50907536385E+00  0.15945684252E+00  0.90007671624E+02  0.89999932089E+02 0.  0.
        -12    1    1    2    0    0  0.10528964171E+01 -0.50907536385E+00 -0.15945684252E+00  0.11803283763E+01  0.00000000000E+00 0.  1.
         11    1    3    3    0    0  0.16878448720E+02 -0.27880268214E+02  0.14428961276E+02  0.35642479020E+02  0.51100000000E-03 0. -1.
        -11    1    3    3    0    0  0.64363368787E+01 -0.69374404738E+01 -0.14362913377E+01  0.95717002571E+01  0.51100000000E-03 0.  1.
        -12    1    3    3    0    0 -0.24367682016E+02  0.35326784052E+02 -0.12833213096E+02  0.44793492347E+02  0.00000000000E+00 0.  1.
</event>
<event>
 7    1  0.2593256E-015  0.9000762E+02  0.7816164E-02  0.1186339E+00
        -11   -1    0    0    0    0  0.00000000000E+00  0.00000000000E+00  0.45593999997E+02  0.45594000000E+02  0.51100000000E-03 0.  1.
         11   -1    0    0    0    0 -0.00000000000E+00 -0.00000000000E+00 -0.45593999997E+02  0.45594000000E+02  0.51100000000E-03 0. -1.
    9900012    2    1    2    0    0 -0.87683748398E+00  0.28141373132E+00 -0.73842422308E+00  0.90007615319E+02  0.89999875041E+02 0.  0.
        -12    1    1    2    0    0  0.87683748398E+00 -0.28141373132E+00  0.73842422308E+00  0.11803846808E+01  0.00000000000E+00 0.  1.
         11    1    3    3    0    0 -0.12482495747E+02  0.22166534118E+02 -0.29094115004E+02  0.38647580300E+02  0.51100000000E-03 0. -1.
        -11    1    3    3    0    0  0.47503843897E+01 -0.84463406941E+00 -0.76813425928E+01  0.90709747464E+01  0.51100000000E-03 0.  1.
        -12    1    3    3    0    0  0.68552738739E+01 -0.21040486317E+02  0.36037033374E+02  0.42289060273E+02  0.00000000000E+00 0.  1.
</event>
<event>
 7    1  0.2865728E-015  0.9000766E+02  0.7816164E-02  0.1186339E+00
        -11   -1    0    0    0    0  0.00000000000E+00  0.00000000000E+00  0.45593999997E+02  0.45594000000E+02  0.51100000000E-03 0.  1.
         11   -1    0    0    0    0 -0.00000000000E+00 -0.00000000000E+00 -0.45593999997E+02  0.45594000000E+02  0.51100000000E-03 0. -1.
    9900012    2    1    2    0    0  0.95048296902E+00  0.52224322020E+00  0.46587586966E+00  0.90007662683E+02  0.89999923031E+02 0.  0.
        -12    1    1    2    0    0 -0.95048296902E+00 -0.52224322020E+00 -0.46587586966E+00  0.11803373168E+01  0.00000000000E+00 0.  1.
         11    1    3    3    0    0 -0.33428569875E+02  0.17992409241E+02 -0.42022001997E+01  0.38194954653E+02  0.51100000000E-03 0. -1.
        -11    1    3    3    0    0 -0.14618381294E+01  0.49159764304E+01  0.79140364096E+01  0.94305762038E+01  0.51100000000E-03 0.  1.
        -12    1    3    3    0    0  0.35840890973E+02 -0.22386142451E+02 -0.32459603402E+01  0.42382131826E+02  0.00000000000E+00 0.  1.
</event>
<event>
 7    1  0.2593256E-015  0.9000779E+02  0.7816164E-02  0.1186339E+00
        -11   -1    0    0    0    0  0.00000000000E+00  0.00000000000E+00  0.45593999997E+02  0.45594000000E+02  0.51100000000E-03 0. -1.
         11   -1    0    0    0    0 -0.00000000000E+00 -0.00000000000E+00 -0.45593999997E+02  0.45594000000E+02  0.51100000000E-03 0.  1.
    9900012    2    1    2    0    0  0.83940941633E+00  0.26563721597E+00 -0.78595623962E+00  0.90007788786E+02  0.90000050798E+02 0.  0.
        -12    1    1    2    0    0 -0.83940941633E+00 -0.26563721597E+00  0.78595623962E+00  0.11802112139E+01  0.00000000000E+00 0.  1.
         11    1    3    3    0    0 -0.79253736048E+00 -0.35471146980E+01 -0.18755351077E+00  0.36394113162E+01  0.51100000000E-03 0. -1.
        -11    1    3    3    0    0  0.42082059595E+02 -0.71861467417E+01  0.83623254021E+01  0.43502516377E+02  0.51100000000E-03 0.  1.
         12    1    3    3    0    0 -0.40450112818E+02  0.10998898656E+02 -0.89607281309E+01  0.42865861093E+02  0.00000000000E+00 0. -1.
</event>
<event>
 7    1  0.2593256E-015  0.9000772E+02  0.7816164E-02  0.1186339E+00
        -11   -1    0    0    0    0  0.00000000000E+00  0.00000000000E+00  0.45593999997E+02  0.45594000000E+02  0.51100000000E-03 0.  1.
         11   -1    0    0    0    0 -0.00000000000E+00 -0.00000000000E+00 -0.45593999997E+02  0.45594000000E+02  0.51100000000E-03 0. -1.
    9900012    2    1    2    0    0 -0.63982523528E+00 -0.82691263585E+00 -0.54762568639E+00  0.90007722604E+02  0.89999983742E+02 0.  0.
        -12    1    1    2    0    0  0.63982523528E+00  0.82691263585E+00  0.54762568639E+00  0.11802773960E+01  0.00000000000E+00 0.  1.
         11    1    3    3    0    0  0.22487149601E+02  0.31246030510E+01 -0.30898126996E+02  0.38342265107E+02  0.51100000000E-03 0. -1.
        -11    1    3    3    0    0  0.68708812318E+01  0.59017403452E+01  0.21008714909E+01  0.92980217943E+01  0.51100000000E-03 0.  1.
        -12    1    3    3    0    0 -0.29997856068E+02 -0.98532560320E+01  0.28249629819E+02  0.42367435703E+02  0.00000000000E+00 0.  1.
</event>
<event>
 7    1  0.2593256E-015  0.9000773E+02  0.7816164E-02  0.1186339E+00
        -11   -1    0    0    0    0  0.00000000000E+00  0.00000000000E+00  0.45593999997E+02  0.45594000000E+02  0.51100000000E-03 0.  1.
         11   -1    0    0    0    0 -0.00000000000E+00 -0.00000000000E+00 -0.45593999997E+02  0.45594000000E+02  0.51100000000E-03 0. -1.
    9900012    2    1    2    0    0 -0.56466225501E+00  0.49697938594E-01  0.10352369547E+01  0.90007733547E+02  0.89999994830E+02 0.  0.
        -12    1    1    2    0    0  0.56466225501E+00 -0.49697938594E-01 -0.10352369547E+01  0.11802664529E+01  0.00000000000E+00 0.  1.
         11    1    3    3    0    0 -0.54917993711E+01  0.18812521464E+02 -0.91828071678E+01  0.21642429898E+02  0.51100000000E-03 0. -1.
        -11    1    3    3    0    0 -0.21721877026E+02  0.12530575366E+02  0.10688211122E+02  0.27259734368E+02  0.51100000000E-03 0.  1.
         12    1    3    3    0    0  0.26649014142E+02 -0.31293398891E+02 -0.47016699904E+00  0.41105569281E+02  0.00000000000E+00 0. -1.
</event>
<event>
 7    1  0.2593256E-015  0.9000781E+02  0.7816164E-02  0.1186339E+00
        -11   -1    0    0    0    0  0.00000000000E+00  0.00000000000E+00  0.45593999997E+02  0.45594000000E+02  0.51100000000E-03 0. -1.
         11   -1    0    0    0    0 -0.00000000000E+00 -0.00000000000E+00 -0.45593999997E+02  0.45594000000E+02  0.51100000000E-03 0.  1.
    9900012    2    1    2    0    0  0.41469270532E+00 -0.10994018824E+01  0.11045286347E+00  0.90007807484E+02  0.90000069743E+02 0.  0.
        -12    1    1    2    0    0 -0.41469270532E+00  0.10994018824E+01 -0.11045286347E+00  0.11801925156E+01  0.00000000000E+00 0.  1.
         11    1    3    3    0    0 -0.39744108830E+01 -0.21773714535E+02  0.29881383654E+02  0.37185853168E+02  0.51100000000E-03 0. -1.
        -11    1    3    3    0    0 -0.71802168866E+01 -0.35204346412E+01  0.46005267273E+01  0.92257152043E+01  0.51100000000E-03 0.  1.
        -12    1    3    3    0    0  0.11569320475E+02  0.24194747293E+02 -0.34371457517E+02  0.43596239112E+02  0.00000000000E+00 0.  1.
</event>
<event>
 7    1  0.2593256E-015  0.9000777E+02  0.7816164E-02  0.1186339E+00
        -11   -1    0    0    0    0  0.00000000000E+00  0.00000000000E+00  0.45593999997E+02  0.45594000000E+02  0.51100000000E-03 0.  1.
         11   -1    0    0    0    0 -0.00000000000E+00 -0.00000000000E+00 -0.45593999997E+02  0.45594000000E+02  0.51100000000E-03 0. -1.
    9900012    2    1    2    0    0  0.10150233575E+01 -0.11305847537E+00  0.59150986881E+00  0.90007771819E+02  0.90000033607E+02 0.  0.
        -12    1    1    2    0    0 -0.10150233575E+01  0.11305847537E+00 -0.59150986881E+00  0.11802281813E+01  0.00000000000E+00 0.  1.
         11    1    3    3    0    0 -0.25037477927E+02  0.19995081566E+02 -0.21626994171E+02  0.38657540855E+02  0.51100000000E-03 0. -1.
        -11    1    3    3    0    0 -0.32790355652E+01  0.57502045115E+01  0.62795747855E+01  0.91241430233E+01  0.51100000000E-03 0.  1.
        -12    1    3    3    0    0  0.29331536850E+02 -0.25858344553E+02  0.15938929255E+02  0.42226087941E+02  0.00000000000E+00 0.  1.
</event>
<event>
 7    1  0.2593256E-015  0.9000780E+02  0.7816164E-02  0.1186339E+00
        -11   -1    0    0    0    0  0.00000000000E+00  0.00000000000E+00  0.45593999997E+02  0.45594000000E+02  0.51100000000E-03 0.  1.
         11   -1    0    0    0    0 -0.00000000000E+00 -0.00000000000E+00 -0.45593999997E+02  0.45594000000E+02  0.51100000000E-03 0. -1.
    9900012    2    1    2    0    0  0.83782064933E+00  0.82105998228E+00  0.12956636064E+00  0.90007800705E+02  0.90000062874E+02 0.  0.
        -12    1    1    2    0    0 -0.83782064933E+00 -0.82105998228E+00 -0.12956636064E+00  0.11801992954E+01  0.00000000000E+00 0.  1.
         11    1    3    3    0    0  0.33979054018E+02 -0.16050126817E+02 -0.96450373418E+01  0.38797028603E+02  0.51100000000E-03 0. -1.
        -11    1    3    3    0    0  0.42200032122E+01  0.34491711749E+01  0.10137892746E+02  0.11510085946E+02  0.51100000000E-03 0.  1.
        -12    1    3    3    0    0 -0.37361236581E+02  0.13422015624E+02 -0.36328904336E+00  0.39700686156E+02  0.00000000000E+00 0.  1.
</event>
<event>
 7    1  0.2593256E-015  0.9000767E+02  0.7816164E-02  0.1186339E+00
        -11   -1    0    0    0    0  0.00000000000E+00  0.00000000000E+00  0.45593999997E+02  0.45594000000E+02  0.51100000000E-03 0.  1.
         11   -1    0    0    0    0 -0.00000000000E+00 -0.00000000000E+00 -0.45593999997E+02  0.45594000000E+02  0.51100000000E-03 0. -1.
    9900012    2    1    2    0    0 -0.11514734023E+01 -0.17035984713E+00 -0.19563090925E+00  0.90007667451E+02  0.89999927861E+02 0.  0.
        -12    1    1    2    0    0  0.11514734023E+01  0.17035984713E+00  0.19563090925E+00  0.11803325491E+01  0.00000000000E+00 0.  1.
         11    1    3    3    0    0 -0.84313329650E+01 -0.55044475012E+01  0.27059818481E+01  0.10426344320E+02  0.51100000000E-03 0. -1.
        -11    1    3    3    0    0  0.15501144761E+02  0.89283874496E+01  0.35710454142E+02  0.39940432228E+02  0.51100000000E-03 0.  1.
         12    1    3    3    0    0 -0.82212851978E+01 -0.35942997955E+01 -0.38612066899E+02  0.39640890902E+02  0.00000000000E+00 0. -1.
</event>
<event>
 7    1  0.2593256E-015  0.9000773E+02  0.7816164E-02  0.1186339E+00
        -11   -1    0    0    0    0  0.00000000000E+00  0.00000000000E+00  0.45593999997E+02  0.45594000000E+02  0.51100000000E-03 0.  1.
         11   -1    0    0    0    0 -0.00000000000E+00 -0.00000000000E+00 -0.45593999997E+02  0.45594000000E+02  0.51100000000E-03 0. -1.
    9900012    2    1    2    0    0 -0.40267533107E+00  0.11093503053E+01 -0.15317483319E-01  0.90007728782E+02  0.89999990002E+02 0.  0.
        -12    1    1    2    0    0  0.40267533107E+00 -0.11093503053E+01  0.15317483319E-01  0.11802712177E+01  0.00000000000E+00 0.  1.
         11    1    3    3    0    0  0.18622978521E+02  0.26028155983E+01 -0.31978008052E+02  0.37096940268E+02  0.51100000000E-03 0. -1.
        -11    1    3    3    0    0 -0.75369393938E+00 -0.11933596003E+00 -0.84781537726E+01  0.85124254639E+01  0.51100000000E-03 0.  1.
        -12    1    3    3    0    0 -0.18271959913E+02 -0.13741293330E+01  0.40440844341E+02  0.44398363050E+02  0.00000000000E+00 0.  1.
</event>
<event>
 7    1  0.3184616E-015  0.9000752E+02  0.7816164E-02  0.1186339E+00
        -11   -1    0    0    0    0  0.00000000000E+00  0.00000000000E+00  0.45593999997E+02  0.45594000000E+02  0.51100000000E-03 0. -1.
         11   -1    0    0    0    0 -0.00000000000E+00 -0.00000000000E+00 -0.45593999997E+02  0.45594000000E+02  0.51100000000E-03 0.  1.
    9900012    2    1    2    0    0  0.30024373394E+00  0.11396362185E+01  0.67912388437E-01  0.90007521664E+02  0.89999780149E+02 0.  0.
        -12    1    1    2    0    0 -0.30024373394E+00 -0.11396362185E+01 -0.67912388437E-01  0.11804783364E+01  0.00000000000E+00 0.  1.
         11    1    3    3    0    0  0.35307340153E+01 -0.25413315083E+02  0.27412365222E+02  0.37546510271E+02  0.51100000000E-03 0. -1.
        -11    1    3    3    0    0  0.79374934584E+01 -0.23212891435E+01  0.32965837593E+01  0.89027889132E+01  0.51100000000E-03 0.  1.
        -12    1    3    3    0    0 -0.11167983740E+02  0.28874240445E+02 -0.30641036593E+02  0.43558222480E+02  0.00000000000E+00 0.  1.
</event>
<event>
 7    1  0.2593256E-015  0.9000779E+02  0.7816164E-02  0.1186339E+00
        -11   -1    0    0    0    0  0.00000000000E+00  0.00000000000E+00  0.45593999997E+02  0.45594000000E+02  0.51100000000E-03 0. -1.
         11   -1    0    0    0    0 -0.00000000000E+00 -0.00000000000E+00 -0.45593999997E+02  0.45594000000E+02  0.51100000000E-03 0.  1.
    9900012    2    1    2    0    0  0.11627491966E+01 -0.94816867227E-01  0.17868089674E+00  0.90007786970E+02  0.90000048958E+02 0.  0.
        -12    1    1    2    0    0 -0.11627491966E+01  0.94816867227E-01 -0.17868089674E+00  0.11802130297E+01  0.00000000000E+00 0.  1.
         11    1    3    3    0    0  0.34591078722E+01 -0.41670015840E+02 -0.11904575477E+01  0.41830286119E+02  0.51100000000E-03 0. -1.
        -11    1    3    3    0    0 -0.80366208184E+01  0.42719925715E+01  0.47819075907E+01  0.10281237045E+02  0.51100000000E-03 0.  1.
        -12    1    3    3    0    0  0.57402621429E+01  0.37303206401E+02 -0.34127691463E+01  0.37896263807E+02  0.00000000000E+00 0.  1.
</event>
<event>
 7    1  0.2593256E-015  0.9000776E+02  0.7816164E-02  0.1186339E+00
        -11   -1    0    0    0    0  0.00000000000E+00  0.00000000000E+00  0.45593999997E+02  0.45594000000E+02  0.51100000000E-03 0.  1.
         11   -1    0    0    0    0 -0.00000000000E+00 -0.00000000000E+00 -0.45593999997E+02  0.45594000000E+02  0.51100000000E-03 0. -1.
    9900012    2    1    2    0    0  0.28254016537E+00  0.66662719108E+00  0.93205905711E+00  0.90007764920E+02  0.90000026617E+02 0.  0.
        -12    1    1    2    0    0 -0.28254016537E+00 -0.66662719108E+00 -0.93205905711E+00  0.11802350795E+01  0.00000000000E+00 0.  1.
         11    1    3    3    0    0 -0.13578296175E+02 -0.21465660737E+02 -0.23650503234E+02  0.34705777925E+02  0.51100000000E-03 0. -1.
        -11    1    3    3    0    0 -0.33844594976E+00 -0.48023529653E+01 -0.88546231335E+01  0.10078764347E+02  0.51100000000E-03 0.  1.
        -12    1    3    3    0    0  0.14199282290E+02  0.26934640894E+02  0.33437185424E+02  0.45223222649E+02  0.00000000000E+00 0.  1.
</event>
<event>
 7    1  0.2593256E-015  0.9000775E+02  0.7816164E-02  0.1186339E+00
        -11   -1    0    0    0    0  0.00000000000E+00  0.00000000000E+00  0.45593999997E+02  0.45594000000E+02  0.51100000000E-03 0.  1.
         11   -1    0    0    0    0 -0.00000000000E+00 -0.00000000000E+00 -0.45593999997E+02  0.45594000000E+02  0.51100000000E-03 0. -1.
    9900012    2    1    2    0    0  0.10911107567E+01  0.13726057802E+00 -0.42850636304E+00  0.90007753902E+02  0.90000015453E+02 0.  0.
        -12    1    1    2    0    0 -0.10911107567E+01 -0.13726057802E+00  0.42850636304E+00  0.11802460984E+01  0.00000000000E+00 0.  1.
         11    1    3    3    0    0  0.34569251125E+02  0.19834998177E+02 -0.13150989133E+02  0.41969140943E+02  0.51100000000E-03 0. -1.
        -11    1    3    3    0    0  0.26782526357E+01 -0.51037373820E+01  0.62717214076E+01  0.85179611481E+01  0.51100000000E-03 0.  1.
        -12    1    3    3    0    0 -0.36156393004E+02 -0.14594000217E+02  0.64507613623E+01  0.39520651811E+02  0.00000000000E+00 0.  1.
</event>
<event>
 7    1  0.2593256E-015  0.9000826E+02  0.7816164E-02  0.1186338E+00
        -11   -1    0    0    0    0  0.00000000000E+00  0.00000000000E+00  0.45593999997E+02  0.45594000000E+02  0.51100000000E-03 0.  1.
         11   -1    0    0    0    0 -0.00000000000E+00 -0.00000000000E+00 -0.45593999997E+02  0.45594000000E+02  0.51100000000E-03 0. -1.
    9900012    2    1    2    0    0 -0.58618966088E+00 -0.55445605871E+00 -0.86066353787E+00  0.90008262078E+02  0.90000530336E+02 0.  0.
        -12    1    1    2    0    0  0.58618966088E+00  0.55445605871E+00  0.86066353787E+00  0.11797379222E+01  0.00000000000E+00 0.  1.
         11    1    3    3    0    0  0.44270530383E+01 -0.38511869436E+02  0.25051573624E+01  0.38846347315E+02  0.51100000000E-03 0. -1.
        -11    1    3    3    0    0 -0.71429522926E+01 -0.41052135142E+01 -0.37304538485E+01  0.90438283724E+01  0.51100000000E-03 0.  1.
        -12    1    3    3    0    0  0.21297095933E+01  0.42062626892E+02  0.36463294831E+00  0.42118086390E+02  0.00000000000E+00 0.  1.
</event>
<event>
 7    1  0.2593256E-015  0.9000770E+02  0.7816164E-02  0.1186339E+00
        -11   -1    0    0    0    0  0.00000000000E+00  0.00000000000E+00  0.45593999997E+02  0.45594000000E+02  0.51100000000E-03 0.  1.
         11   -1    0    0    0    0 -0.00000000000E+00 -0.00000000000E+00 -0.45593999997E+02  0.45594000000E+02  0.51100000000E-03 0. -1.
    9900012    2    1    2    0    0 -0.53783507614E+00  0.42049410624E+00  0.96281974737E+00  0.90007701848E+02  0.89999962712E+02 0.  0.
        -12    1    1    2    0    0  0.53783507614E+00 -0.42049410624E+00 -0.96281974737E+00  0.11802981523E+01  0.00000000000E+00 0.  1.
         11    1    3    3    0    0 -0.35033941912E+01  0.88256979938E+00 -0.94009859679E+01  0.10071307648E+02  0.51100000000E-03 0. -1.
        -11    1    3    3    0    0  0.33201161267E+01 -0.39153894423E+02 -0.19160779917E+01  0.39341097783E+02  0.51100000000E-03 0.  1.
         12    1    3    3    0    0 -0.35455701165E+00  0.38691818730E+02  0.12279883707E+02  0.40595296417E+02  0.00000000000E+00 0. -1.
</event>
<event>
 7    1  0.2593256E-015  0.9000725E+02  0.7816164E-02  0.1186340E+00
        -11   -1    0    0    0    0  0.00000000000E+00  0.00000000000E+00  0.45593999997E+02  0.45594000000E+02  0.51100000000E-03 0.  1.
         11   -1    0    0    0    0 -0.00000000000E+00 -0.00000000000E+00 -0.45593999997E+02  0.45594000000E+02  0.51100000000E-03 0. -1.
    9900012    2    1    2    0    0 -0.99080840851E+00 -0.52632168633E+00  0.36802877679E+00  0.90007254049E+02  0.89999509001E+02 0.  0.
        -12    1    1    2    0    0  0.99080840851E+00  0.52632168633E+00 -0.36802877679E+00  0.11807459508E+01  0.00000000000E+00 0.  1.
         11    1    3    3    0    0 -0.62573873115E+01 -0.38605575275E+02  0.35877658195E+01  0.39273622218E+02  0.51100000000E-03 0. -1.
        -11    1    3    3    0    0 -0.79270312082E+01 -0.20998268424E+01  0.87026326335E+00  0.82464813680E+01  0.51100000000E-03 0.  1.
        -12    1    3    3    0    0  0.13193610111E+02  0.40179080431E+02 -0.40900003061E+01  0.42487150464E+02  0.00000000000E+00 0.  1.
</event>
<event>
 7    1  0.2593256E-015  0.9000772E+02  0.7816164E-02  0.1186339E+00
        -11   -1    0    0    0    0  0.00000000000E+00  0.00000000000E+00  0.45593999997E+02  0.45594000000E+02  0.51100000000E-03 0.  1.
         11   -1    0    0    0    0 -0.00000000000E+00 -0.00000000000E+00 -0.45593999997E+02  0.45594000000E+02  0.51100000000E-03 0. -1.
    9900012    2    1    2    0    0  0.96937021052E+00  0.64982619733E+00  0.17639996940E+00  0.90007716288E+02  0.89999977343E+02 0.  0.
        -12    1    1    2    0    0 -0.96937021052E+00 -0.64982619733E+00 -0.17639996940E+00  0.11802837121E+01  0.00000000000E+00 0.  1.
         11    1    3    3    0    0 -0.67892593239E+01 -0.17714145000E+01  0.73416468533E+01  0.10155379376E+02  0.51100000000E-03 0. -1.
        -11    1    3    3    0    0 -0.27024812375E+02 -0.16801458340E+02  0.14069421507E+02  0.34793362988E+02  0.51100000000E-03 0.  1.
         12    1    3    3    0    0  0.34783441909E+02  0.19222699037E+02 -0.21234668391E+02  0.45058973923E+02  0.00000000000E+00 0. -1.
</event>
<event>
 7    1  0.3679288E-015  0.9000770E+02  0.7816164E-02  0.1186339E+00
        -11   -1    0    0    0    0  0.00000000000E+00  0.00000000000E+00  0.45593999997E+02  0.45594000000E+02  0.51100000000E-03 0.  1.
         11   -1    0    0    0    0 -0.00000000000E+00 -0.00000000000E+00 -0.45593999997E+02  0.45594000000E+02  0.51100000000E-03 0. -1.
    9900012    2    1    2    0    0  0.48347777795E+00 -0.50699614702E-01 -0.10755359044E+01  0.90007703980E+02  0.89999964873E+02 0.  0.
        -12    1    1    2    0    0 -0.48347777795E+00  0.50699614702E-01  0.10755359044E+01  0.11802960198E+01  0.00000000000E+00 0.  1.
         11    1    3    3    0    0 -0.12679537470E+02  0.30649803783E+02 -0.16598432245E+02  0.37090283035E+02  0.51100000000E-03 0. -1.
        -11    1    3    3    0    0 -0.84316562191E+01  0.13822554043E+01 -0.41826252476E+01  0.95130337339E+01  0.51100000000E-03 0.  1.
        -12    1    3    3    0    0  0.21594671467E+02 -0.32082758802E+02  0.19705521588E+02  0.43404387211E+02  0.00000000000E+00 0.  1.
</event>
<event>
 7    1  0.2593256E-015  0.9000774E+02  0.7816164E-02  0.1186339E+00
        -11   -1    0    0    0    0  0.00000000000E+00  0.00000000000E+00  0.45593999997E+02  0.45594000000E+02  0.51100000000E-03 0. -1.
         11   -1    0    0    0    0 -0.00000000000E+00 -0.00000000000E+00 -0.45593999997E+02  0.45594000000E+02  0.51100000000E-03 0.  1.
    9900012    2    1    2    0    0  0.11789768999E+01 -0.48042264743E-02 -0.54742175431E-01  0.90007743114E+02  0.90000004523E+02 0.  0.
        -12    1    1    2    0    0 -0.11789768999E+01  0.48042264743E-02  0.54742175431E-01  0.11802568860E+01  0.00000000000E+00 0.  1.
         11    1    3    3    0    0  0.91946763794E+01  0.21155156527E+01  0.14234772051E+02  0.17077652526E+02  0.51100000000E-03 0. -1.
        -11    1    3    3    0    0  0.16548280163E+02  0.27715441740E+02 -0.11169572884E+02  0.34157731861E+02  0.51100000000E-03 0.  1.
         12    1    3    3    0    0 -0.24563979643E+02 -0.29835761619E+02 -0.31199413426E+01  0.38772358727E+02  0.00000000000E+00 0. -1.
</event>
<event>
 7    1  0.2593256E-015  0.9000775E+02  0.7816164E-02  0.1186339E+00
        -11   -1    0    0    0    0  0.00000000000E+00  0.00000000000E+00  0.45593999997E+02  0.45594000000E+02  0.51100000000E-03 0.  1.
         11   -1    0    0    0    0 -0.00000000000E+00 -0.00000000000E+00 -0.45593999997E+02  0.45594000000E+02  0.51100000000E-03 0. -1.
    9900012    2    1    2    0    0 -0.60961575954E+00  0.67722892732E+00 -0.75014575220E+00  0.90007750432E+02  0.90000011937E+02 0.  0.
        -12    1    1    2    0    0  0.60961575954E+00 -0.67722892732E+00  0.75014575220E+00  0.11802495685E+01  0.00000000000E+00 0.  1.
         11    1    3    3    0    0  0.98834834201E+01 -0.30919110857E+02 -0.20351722108E+02  0.38312755757E+02  0.51100000000E-03 0. -1.
        -11    1    3    3    0    0 -0.95778121870E+01 -0.52607835114E+01  0.36174877402E+01  0.11510714455E+02  0.51100000000E-03 0.  1.
        -12    1    3    3    0    0 -0.91528699272E+00  0.36857123296E+02  0.15984088616E+02  0.40184280220E+02  0.00000000000E+00 0.  1.
</event>
<event>
 7    1  0.2593256E-015  0.9000769E+02  0.7816164E-02  0.1186339E+00
        -11   -1    0    0    0    0  0.00000000000E+00  0.00000000000E+00  0.45593999997E+02  0.45594000000E+02  0.51100000000E-03 0.  1.
         11   -1    0    0    0    0 -0.00000000000E+00 -0.00000000000E+00 -0.45593999997E+02  0.45594000000E+02  0.51100000000E-03 0. -1.
    9900012    2    1    2    0    0 -0.48774911708E+00 -0.10276728435E+01  0.31483291568E+00  0.90007690532E+02  0.89999951247E+02 0.  0.
        -12    1    1    2    0    0  0.48774911708E+00  0.10276728435E+01 -0.31483291568E+00  0.11803094676E+01  0.00000000000E+00 0.  1.
         11    1    3    3    0    0 -0.30097919929E+02  0.14133423482E+02 -0.27902530622E+02  0.43407253527E+02  0.51100000000E-03 0. -1.
        -11    1    3    3    0    0  0.31179075004E+01 -0.68357734150E+01  0.76524398793E+00  0.75521350613E+01  0.51100000000E-03 0.  1.
        -12    1    3    3    0    0  0.26492263311E+02 -0.83253229103E+01  0.27452119550E+02  0.39048301944E+02  0.00000000000E+00 0.  1.
</event>
<event>
 7    1  0.2593256E-015  0.9000777E+02  0.7816164E-02  0.1186339E+00
        -11   -1    0    0    0    0  0.00000000000E+00  0.00000000000E+00  0.45593999997E+02  0.45594000000E+02  0.51100000000E-03 0.  1.
         11   -1    0    0    0    0 -0.00000000000E+00 -0.00000000000E+00 -0.45593999997E+02  0.45594000000E+02  0.51100000000E-03 0. -1.
    9900012    2    1    2    0    0 -0.49348500695E-01  0.98428953165E+00 -0.64937058951E+00  0.90007769802E+02  0.90000031564E+02 0.  0.
        -12    1    1    2    0    0  0.49348500695E-01 -0.98428953165E+00  0.64937058951E+00  0.11802301975E+01  0.00000000000E+00 0.  1.
         11    1    3    3    0    0 -0.59173486190E+01 -0.74617160084E+01  0.42243104791E+01  0.10418110182E+02  0.51100000000E-03 0. -1.
        -11    1    3    3    0    0 -0.10605358150E+02 -0.22271171437E+01  0.34192947553E+02  0.35869086062E+02  0.51100000000E-03 0.  1.
         12    1    3    3    0    0  0.16473358268E+02  0.10673122684E+02 -0.39066628622E+02  0.43720573559E+02  0.00000000000E+00 0. -1.
</event>
<event>
 7    1  0.2593256E-015  0.9000773E+02  0.7816164E-02  0.1186339E+00
        -11   -1    0    0    0    0  0.00000000000E+00  0.00000000000E+00  0.45593999997E+02  0.45594000000E+02  0.51100000000E-03 0.  1.
         11   -1    0    0    0    0 -0.00000000000E+00 -0.00000000000E+00 -0.45593999997E+02  0.45594000000E+02  0.51100000000E-03 0. -1.
    9900012    2    1    2    0    0 -0.72219283753E+00  0.66905378174E+00  0.65102779081E+00  0.90007731962E+02  0.89999993224E+02 0.  0.
        -12    1    1    2    0    0  0.72219283753E+00 -0.66905378174E+00 -0.65102779081E+00  0.11802680381E+01  0.00000000000E+00 0.  1.
         11    1    3    3    0    0 -0.20069461670E+01 -0.57536030826E+01  0.67417196369E+01  0.90874949944E+01  0.51100000000E-03 0. -1.
        -11    1    3    3    0    0 -0.12875182889E+02  0.16310080274E+02  0.32537718944E+02  0.38606893262E+02  0.51100000000E-03 0.  1.
         12    1    3    3    0    0  0.14159936219E+02 -0.98874234095E+01 -0.38628410790E+02  0.42313343706E+02  0.00000000000E+00 0. -1.
</event>
<event>
 7    1  0.2593256E-015  0.9000808E+02  0.7816164E-02  0.1186338E+00
        -11   -1    0    0    0    0  0.00000000000E+00  0.00000000000E+00  0.45593999997E+02  0.45594000000E+02  0.51100000000E-03 0.  1.
         11   -1    0    0    0    0 -0.00000000000E+00 -0.00000000000E+00 -0.45593999997E+02  0.45594000000E+02  0.51100000000E-03 0. -1.
    9900012    2    1    2    0    0  0.90196551931E+00 -0.47905581291E+00 -0.59090312934E+00  0.90008083572E+02  0.90000349474E+02 0.  0.
        -12    1    1    2    0    0 -0.90196551931E+00  0.47905581291E+00  0.59090312934E+00  0.11799164285E+01  0.00000000000E+00 0.  1.
         11    1    3    3    0    0  0.10352180780E+02  0.33213540574E+00  0.35457522022E+00  0.10363574898E+02  0.51100000000E-03 0. -1.
        -11    1    3    3    0    0 -0.37677726843E+01 -0.38600901391E+02  0.96920719838E+01  0.39977017883E+02  0.51100000000E-03 0.  1.
         12    1    3    3    0    0 -0.56824425759E+01  0.37789710172E+02 -0.10637550333E+02  0.39667490791E+02  0.00000000000E+00 0. -1.
</event>
<event>
 7    1  0.2593256E-015  0.9000777E+02  0.7816164E-02  0.1186339E+00
        -11   -1    0    0    0    0  0.00000000000E+00  0.00000000000E+00  0.45593999997E+02  0.45594000000E+02  0.51100000000E-03 0. -1.
         11   -1    0    0    0    0 -0.00000000000E+00 -0.00000000000E+00 -0.45593999997E+02  0.45594000000E+02  0.51100000000E-03 0.  1.
    9900012    2    1    2    0    0 -0.10700664183E+01  0.70235413896E-01  0.49291708134E+00  0.90007770191E+02  0.90000031958E+02 0.  0.
        -12    1    1    2    0    0  0.10700664183E+01 -0.70235413896E-01 -0.49291708134E+00  0.11802298090E+01  0.00000000000E+00 0.  1.
         11    1    3    3    0    0 -0.23904363146E+02 -0.33507812696E+02  0.86736935435E+01  0.42064534338E+02  0.51100000000E-03 0. -1.
        -11    1    3    3    0    0  0.52018368711E+01  0.40548028594E+01 -0.11643189658E+02  0.13381494638E+02  0.51100000000E-03 0.  1.
        -12    1    3    3    0    0  0.17632459857E+02  0.29523245251E+02  0.34624131958E+01  0.34561741216E+02  0.00000000000E+00 0.  1.
</event>
<event>
 7    1  0.2593256E-015  0.9000810E+02  0.7816164E-02  0.1186338E+00
        -11   -1    0    0    0    0  0.00000000000E+00  0.00000000000E+00  0.45593999997E+02  0.45594000000E+02  0.51100000000E-03 0.  1.
         11   -1    0    0    0    0 -0.00000000000E+00 -0.00000000000E+00 -0.45593999997E+02  0.45594000000E+02  0.51100000000E-03 0. -1.
    9900012    2    1    2    0    0  0.76846695030E+00 -0.40592884055E+00  0.79801907973E+00  0.90008104187E+02  0.90000370362E+02 0.  0.
        -12    1    1    2    0    0 -0.76846695030E+00  0.40592884055E+00 -0.79801907973E+00  0.11798958127E+01  0.00000000000E+00 0.  1.
         11    1    3    3    0    0  0.49148296610E+01  0.30869449979E+01  0.61516834746E+01  0.84574221752E+01  0.51100000000E-03 0. -1.
        -11    1    3    3    0    0  0.33629761207E+02  0.16776723979E+02 -0.86124158470E+01  0.38556361515E+02  0.51100000000E-03 0.  1.
         12    1    3    3    0    0 -0.37776123918E+02 -0.20269597817E+02  0.32587514521E+01  0.42994320497E+02  0.00000000000E+00 0. -1.
</event>
<event>
 7    1  0.2593256E-015  0.9000772E+02  0.7816164E-02  0.1186339E+00
        -11   -1    0    0    0    0  0.00000000000E+00  0.00000000000E+00  0.45593999997E+02  0.45594000000E+02  0.51100000000E-03 0.  1.
         11   -1    0    0    0    0 -0.00000000000E+00 -0.00000000000E+00 -0.45593999997E+02  0.45594000000E+02  0.51100000000E-03 0. -1.
    9900012    2    1    2    0    0 -0.10690412200E+01 -0.39513421695E-01 -0.49864478208E+00  0.90007721618E+02  0.89999982743E+02 0.  0.
        -12    1    1    2    0    0  0.10690412200E+01  0.39513421695E-01  0.49864478208E+00  0.11802783821E+01  0.00000000000E+00 0.  1.
         11    1    3    3    0    0 -0.31392072938E+00 -0.54359877854E+01  0.44282169012E+01  0.70183769215E+01  0.51100000000E-03 0. -1.
        -11    1    3    3    0    0  0.37803615603E+02 -0.10334114757E+02  0.66849270971E+01  0.39756704228E+02  0.51100000000E-03 0.  1.
         12    1    3    3    0    0 -0.38558736094E+02  0.15730589120E+02 -0.11611788780E+02  0.43232640469E+02  0.00000000000E+00 0. -1.
</event>
<event>
 7    1  0.2593256E-015  0.9000772E+02  0.7816164E-02  0.1186339E+00
        -11   -1    0    0    0    0  0.00000000000E+00  0.00000000000E+00  0.45593999997E+02  0.45594000000E+02  0.51100000000E-03 0.  1.
         11   -1    0    0    0    0 -0.00000000000E+00 -0.00000000000E+00 -0.45593999997E+02  0.45594000000E+02  0.51100000000E-03 0. -1.
    9900012    2    1    2    0    0 -0.58478290048E-01 -0.79624980987E+00 -0.86927070876E+00  0.90007718239E+02  0.89999979320E+02 0.  0.
        -12    1    1    2    0    0  0.58478290048E-01  0.79624980987E+00  0.86927070876E+00  0.11802817610E+01  0.00000000000E+00 0.  1.
         11    1    3    3    0    0  0.77124370454E+01 -0.19526887014E+01 -0.47309632772E+01  0.92561704898E+01  0.51100000000E-03 0. -1.
        -11    1    3    3    0    0  0.22297746936E+02 -0.24770905274E+02  0.18877815430E+02  0.38303513966E+02  0.51100000000E-03 0.  1.
         12    1    3    3    0    0 -0.30068662271E+02  0.25927344165E+02 -0.15016122862E+02  0.42448033783E+02  0.00000000000E+00 0. -1.
</event>
<event>
 7    1  0.2593256E-015  0.9000775E+02  0.7816164E-02  0.1186339E+00
        -11   -1    0    0    0    0  0.00000000000E+00  0.00000000000E+00  0.45593999997E+02  0.45594000000E+02  0.51100000000E-03 0. -1.
         11   -1    0    0    0    0 -0.00000000000E+00 -0.00000000000E+00 -0.45593999997E+02  0.45594000000E+02  0.51100000000E-03 0.  1.
    9900012    2    1    2    0    0 -0.15110670421E+00  0.77242639655E+00  0.87949331520E+00  0.90007752456E+02  0.90000013988E+02 0.  0.
        -12    1    1    2    0    0  0.15110670421E+00 -0.77242639655E+00 -0.87949331520E+00  0.11802475442E+01  0.00000000000E+00 0.  1.
         11    1    3    3    0    0  0.69047956151E+01  0.38842500355E+01  0.46450112716E+01  0.91836665226E+01  0.51100000000E-03 0. -1.
        -11    1    3    3    0    0 -0.29816584100E+02  0.18954470501E+02  0.20548579915E+02  0.40872298395E+02  0.51100000000E-03 0.  1.
         12    1    3    3    0    0  0.22760681780E+02 -0.22066294140E+02 -0.24314097871E+02  0.39951787538E+02  0.00000000000E+00 0. -1.
</event>
<event>
 7    1  0.2593256E-015  0.9000788E+02  0.7816164E-02  0.1186339E+00
        -11   -1    0    0    0    0  0.00000000000E+00  0.00000000000E+00  0.45593999997E+02  0.45594000000E+02  0.51100000000E-03 0.  1.
         11   -1    0    0    0    0 -0.00000000000E+00 -0.00000000000E+00 -0.45593999997E+02  0.45594000000E+02  0.51100000000E-03 0. -1.
    9900012    2    1    2    0    0  0.94983016635E+00 -0.69710211657E+00  0.67431979662E-01  0.90007883151E+02  0.90000146408E+02 0.  0.
        -12    1    1    2    0    0 -0.94983016635E+00  0.69710211657E+00 -0.67431979662E-01  0.11801168492E+01  0.00000000000E+00 0.  1.
         11    1    3    3    0    0 -0.77806956623E+01  0.38902136157E+01  0.29513087198E+01  0.91860334413E+01  0.51100000000E-03 0. -1.
        -11    1    3    3    0    0 -0.16800012901E+02  0.61489706083E+01  0.31769614876E+02  0.36460371675E+02  0.51100000000E-03 0.  1.
         12    1    3    3    0    0  0.25530538730E+02 -0.10736286340E+02 -0.34653491616E+02  0.44361478035E+02  0.00000000000E+00 0. -1.
</event>
<event>
 7    1  0.2593256E-015  0.9000767E+02  0.7816164E-02  0.1186339E+00
        -11   -1    0    0    0    0  0.00000000000E+00  0.00000000000E+00  0.45593999997E+02  0.45594000000E+02  0.51100000000E-03 0. -1.
         11   -1    0    0    0    0 -0.00000000000E+00 -0.00000000000E+00 -0.45593999997E+02  0.45594000000E+02  0.51100000000E-03 0.  1.
    9900012    2    1    2    0    0  0.10071215572E+01 -0.20550567399E+00  0.58021659022E+00  0.90007670510E+02  0.89999930961E+02 0.  0.
        -12    1    1    2    0    0 -0.10071215572E+01  0.20550567399E+00 -0.58021659022E+00  0.11803294898E+01  0.00000000000E+00 0.  1.
         11    1    3    3    0    0 -0.56187536705E+01 -0.73676892158E+01  0.26319497423E+01  0.96322581412E+01  0.51100000000E-03 0. -1.
        -11    1    3    3    0    0  0.48675791581E+01 -0.22839589735E+02 -0.30890109594E+02  0.38723882258E+02  0.51100000000E-03 0.  1.
         12    1    3    3    0    0  0.17582960696E+01  0.30001773277E+02  0.28838376442E+02  0.41651530111E+02  0.00000000000E+00 0. -1.
</event>
<event>
 7    1  0.2593256E-015  0.9000748E+02  0.7816164E-02  0.1186340E+00
        -11   -1    0    0    0    0  0.00000000000E+00  0.00000000000E+00  0.45593999997E+02  0.45594000000E+02  0.51100000000E-03 0. -1.
         11   -1    0    0    0    0 -0.00000000000E+00 -0.00000000000E+00 -0.45593999997E+02  0.45594000000E+02  0.51100000000E-03 0.  1.
    9900012    2    1    2    0    0  0.13653527493E-01  0.27679991367E+00  0.11475257001E+01  0.90007483230E+02  0.89999741209E+02 0.  0.
        -12    1    1    2    0    0 -0.13653527493E-01 -0.27679991367E+00 -0.11475257001E+01  0.11805167696E+01  0.00000000000E+00 0.  1.
         11    1    3    3    0    0 -0.53010702828E+01 -0.55653982628E+01 -0.52194617965E+01  0.92907365517E+01  0.51100000000E-03 0. -1.
        -11    1    3    3    0    0 -0.13767349468E+02  0.30310689011E+02 -0.20985069833E+02  0.39352902509E+02  0.51100000000E-03 0.  1.
         12    1    3    3    0    0  0.19082073278E+02 -0.24468490835E+02  0.27352057330E+02  0.41363844170E+02  0.00000000000E+00 0. -1.
</event>
<event>
 7    1  0.2593256E-015  0.9000812E+02  0.7816164E-02  0.1186338E+00
        -11   -1    0    0    0    0  0.00000000000E+00  0.00000000000E+00  0.45593999997E+02  0.45594000000E+02  0.51100000000E-03 0. -1.
         11   -1    0    0    0    0 -0.00000000000E+00 -0.00000000000E+00 -0.45593999997E+02  0.45594000000E+02  0.51100000000E-03 0.  1.
    9900012    2    1    2    0    0 -0.48001563396E+00 -0.10775798424E+01 -0.23076004533E-01  0.90008116180E+02  0.90000382513E+02 0.  0.
        -12    1    1    2    0    0  0.48001563396E+00  0.10775798424E+01  0.23076004533E-01  0.11798838195E+01  0.00000000000E+00 0.  1.
         11    1    3    3    0    0 -0.30462021711E+01 -0.34749784671E+02  0.14701980463E+02  0.37854657734E+02  0.51100000000E-03 0. -1.
        -11    1    3    3    0    0 -0.40482521680E+01 -0.70252741432E+01 -0.57945038458E+01  0.99658967225E+01  0.51100000000E-03 0.  1.
        -12    1    3    3    0    0  0.66144387052E+01  0.40697478972E+02 -0.89305526218E+01  0.42187561724E+02  0.00000000000E+00 0.  1.
</event>
<event>
 7    1  0.2593256E-015  0.9000773E+02  0.7816164E-02  0.1186339E+00
        -11   -1    0    0    0    0  0.00000000000E+00  0.00000000000E+00  0.45593999997E+02  0.45594000000E+02  0.51100000000E-03 0.  1.
         11   -1    0    0    0    0 -0.00000000000E+00 -0.00000000000E+00 -0.45593999997E+02  0.45594000000E+02  0.51100000000E-03 0. -1.
    9900012    2    1    2    0    0 -0.78497428385E+00  0.63943637964E+00 -0.60660068199E+00  0.90007733972E+02  0.89999995260E+02 0.  0.
        -12    1    1    2    0    0  0.78497428385E+00 -0.63943637964E+00  0.60660068199E+00  0.11802660282E+01  0.00000000000E+00 0.  1.
         11    1    3    3    0    0 -0.17724465564E+02 -0.18457413069E+02 -0.30950788411E+02  0.40159483067E+02  0.51100000000E-03 0. -1.
        -11    1    3    3    0    0  0.28696120706E+01 -0.81446582522E+01  0.44404951785E+01  0.97102074732E+01  0.51100000000E-03 0.  1.
        -12    1    3    3    0    0  0.14069879209E+02  0.27241507701E+02  0.25903692550E+02  0.40138043431E+02  0.00000000000E+00 0.  1.
</event>
<event>
 7    1  0.2593256E-015  0.9000782E+02  0.7816164E-02  0.1186339E+00
        -11   -1    0    0    0    0  0.00000000000E+00  0.00000000000E+00  0.45593999997E+02  0.45594000000E+02  0.51100000000E-03 0. -1.
         11   -1    0    0    0    0 -0.00000000000E+00 -0.00000000000E+00 -0.45593999997E+02  0.45594000000E+02  0.51100000000E-03 0.  1.
    9900012    2    1    2    0    0 -0.76504033957E+00 -0.88743503308E+00  0.14144576404E+00  0.90007815877E+02  0.90000078247E+02 0.  0.
        -12    1    1    2    0    0  0.76504033957E+00  0.88743503308E+00 -0.14144576404E+00  0.11801841226E+01  0.00000000000E+00 0.  1.
         11    1    3    3    0    0 -0.37845949950E+00  0.10149981281E+02 -0.83182173810E+01  0.13128522090E+02  0.51100000000E-03 0. -1.
        -11    1    3    3    0    0 -0.17978992666E+02  0.18605141407E+02 -0.19578915835E+02  0.32445791863E+02  0.51100000000E-03 0.  1.
         12    1    3    3    0    0  0.17592411826E+02 -0.29642557721E+02  0.28038578980E+02  0.44433501925E+02  0.00000000000E+00 0. -1.
</event>
<event>
 7    1  0.2593256E-015  0.9000763E+02  0.7816164E-02  0.1186339E+00
        -11   -1    0    0    0    0  0.00000000000E+00  0.00000000000E+00  0.45593999997E+02  0.45594000000E+02  0.51100000000E-03 0. -1.
         11   -1    0    0    0    0 -0.00000000000E+00 -0.00000000000E+00 -0.45593999997E+02  0.45594000000E+02  0.51100000000E-03 0.  1.
    9900012    2    1    2    0    0  0.10086885028E+01 -0.53586144823E+00 -0.29778655795E+00  0.90007628524E+02  0.89999888420E+02 0.  0.
        -12    1    1    2    0    0 -0.10086885028E+01  0.53586144823E+00  0.29778655795E+00  0.11803714761E+01  0.00000000000E+00 0.  1.
         11    1    3    3    0    0  0.73185455432E+01  0.52069237743E+01  0.55731919431E+01  0.10570413084E+02  0.51100000000E-03 0. -1.
        -11    1    3    3    0    0  0.19874856299E+02 -0.34742192242E+02 -0.51813546843E+01  0.40359339332E+02  0.51100000000E-03 0.  1.
         12    1    3    3    0    0 -0.26184713339E+02  0.28999407019E+02 -0.68962381674E+00  0.39077876109E+02  0.00000000000E+00 0. -1.
</event>
<event>
 7    1  0.2593256E-015  0.9000763E+02  0.7816164E-02  0.1186339E+00
        -11   -1    0    0    0    0  0.00000000000E+00  0.00000000000E+00  0.45593999997E+02  0.45594000000E+02  0.51100000000E-03 0. -1.
         11   -1    0    0    0    0 -0.00000000000E+00 -0.00000000000E+00 -0.45593999997E+02  0.45594000000E+02  0.51100000000E-03 0.  1.
    9900012    2    1    2    0    0 -0.66237998246E+00  0.41412260148E+00  0.88488838811E+00  0.90007630469E+02  0.89999890391E+02 0.  0.
        -12    1    1    2    0    0  0.66237998246E+00 -0.41412260148E+00 -0.88488838811E+00  0.11803695310E+01  0.00000000000E+00 0.  1.
         11    1    3    3    0    0  0.36028901524E+02 -0.11803444786E+02  0.18536027361E+02  0.42201745988E+02  0.51100000000E-03 0. -1.
        -11    1    3    3    0    0 -0.22717258054E+00  0.36863274154E+01 -0.84815471748E+01  0.92507977999E+01  0.51100000000E-03 0.  1.
        -12    1    3    3    0    0 -0.36464108926E+02  0.85312399721E+01 -0.91695917976E+01  0.38555086681E+02  0.00000000000E+00 0.  1.
</event>
<event>
 7    1  0.2593256E-015  0.9000770E+02  0.7816164E-02  0.1186339E+00
        -11   -1    0    0    0    0  0.00000000000E+00  0.00000000000E+00  0.45593999997E+02  0.45594000000E+02  0.51100000000E-03 0. -1.
         11   -1    0    0    0    0 -0.00000000000E+00 -0.00000000000E+00 -0.45593999997E+02  0.45594000000E+02  0.51100000000E-03 0.  1.
    9900012    2    1    2    0    0 -0.42102165380E+00  0.76027475371E+00  0.79864591185E+00  0.90007698248E+02  0.89999959065E+02 0.  0.
        -12    1    1    2    0    0  0.42102165380E+00 -0.76027475371E+00 -0.79864591185E+00  0.11803017524E+01  0.00000000000E+00 0.  1.
         11    1    3    3    0    0 -0.93508862752E+01 -0.95145009528E+00  0.20978798941E+02  0.22988134694E+02  0.51100000000E-03 0. -1.
        -11    1    3    3    0    0  0.32712062712E+02 -0.80683459838E+01 -0.23518841113E+02  0.41089087862E+02  0.51100000000E-03 0.  1.
         12    1    3    3    0    0 -0.23782198090E+02  0.97800708328E+01  0.33386880834E+01  0.25930475692E+02  0.00000000000E+00 0. -1.
</event>
<event>
 7    1  0.2593256E-015  0.9000763E+02  0.7816164E-02  0.1186339E+00
        -11   -1    0    0    0    0  0.00000000000E+00  0.00000000000E+00  0.45593999997E+02  0.45594000000E+02  0.51100000000E-03 0. -1.
         11   -1    0    0    0    0 -0.00000000000E+00 -0.00000000000E+00 -0.45593999997E+02  0.45594000000E+02  0.51100000000E-03 0.  1.
    9900012    2    1    2    0    0  0.98252465168E+00 -0.18532646789E+00  0.62736182569E+00  0.90007625716E+02  0.89999885575E+02 0.  0.
        -12    1    1    2    0    0 -0.98252465168E+00  0.18532646789E+00 -0.62736182569E+00  0.11803742844E+01  0.00000000000E+00 0.  1.
         11    1    3    3    0    0  0.36461256504E+01  0.34923904602E+02  0.27379778499E+02  0.44526684312E+02  0.51100000000E-03 0. -1.
        -11    1    3    3    0    0 -0.98953501731E+00 -0.44886044767E+01 -0.88475375985E+01  0.99702392908E+01  0.51100000000E-03 0.  1.
        -12    1    3    3    0    0 -0.16740659815E+01 -0.30620626593E+02 -0.17904879075E+02  0.35510702113E+02  0.00000000000E+00 0.  1.
</event>
<event>
 7    1  0.2593256E-015  0.9000766E+02  0.7816164E-02  0.1186339E+00
        -11   -1    0    0    0    0  0.00000000000E+00  0.00000000000E+00  0.45593999997E+02  0.45594000000E+02  0.51100000000E-03 0.  1.
         11   -1    0    0    0    0 -0.00000000000E+00 -0.00000000000E+00 -0.45593999997E+02  0.45594000000E+02  0.51100000000E-03 0. -1.
    9900012    2    1    2    0    0  0.32895346549E+00 -0.90119233136E+00 -0.68763152475E+00  0.90007663135E+02  0.89999923489E+02 0.  0.
        -12    1    1    2    0    0 -0.32895346549E+00  0.90119233136E+00  0.68763152475E+00  0.11803368648E+01  0.00000000000E+00 0.  1.
         11    1    3    3    0    0  0.82158179998E+01  0.48472467124E+01  0.30826819658E+01  0.10024888750E+02  0.51100000000E-03 0. -1.
        -11    1    3    3    0    0 -0.37014657947E+01 -0.42479961956E+02  0.13403865049E+01  0.42661981354E+02  0.51100000000E-03 0.  1.
         12    1    3    3    0    0 -0.41853987396E+01  0.36731522912E+02 -0.51106999954E+01  0.37320793031E+02  0.00000000000E+00 0. -1.
</event>
<event>
 7    1  0.2593256E-015  0.9000770E+02  0.7816164E-02  0.1186339E+00
        -11   -1    0    0    0    0  0.00000000000E+00  0.00000000000E+00  0.45593999997E+02  0.45594000000E+02  0.51100000000E-03 0.  1.
         11   -1    0    0    0    0 -0.00000000000E+00 -0.00000000000E+00 -0.45593999997E+02  0.45594000000E+02  0.51100000000E-03 0. -1.
    9900012    2    1    2    0    0 -0.43491554045E+00 -0.10643759287E+01 -0.26656675806E+00  0.90007701105E+02  0.89999961960E+02 0.  0.
        -12    1    1    2    0    0  0.43491554045E+00  0.10643759287E+01  0.26656675806E+00  0.11802988949E+01  0.00000000000E+00 0.  1.
         11    1    3    3    0    0  0.13880342474E+02  0.26674101594E+02 -0.23105020510E+02  0.37921149456E+02  0.51100000000E-03 0. -1.
        -11    1    3    3    0    0  0.75839742847E+01  0.25845520464E+01  0.93770393314E+01  0.12333914306E+02  0.51100000000E-03 0.  1.
        -12    1    3    3    0    0 -0.21899232299E+02 -0.30323029569E+02  0.13461414420E+02  0.39752637343E+02  0.00000000000E+00 0.  1.
</event>
<event>
 7    1  0.2593256E-015  0.9000774E+02  0.7816164E-02  0.1186339E+00
        -11   -1    0    0    0    0  0.00000000000E+00  0.00000000000E+00  0.45593999997E+02  0.45594000000E+02  0.51100000000E-03 0.  1.
         11   -1    0    0    0    0 -0.00000000000E+00 -0.00000000000E+00 -0.45593999997E+02  0.45594000000E+02  0.51100000000E-03 0. -1.
    9900012    2    1    2    0    0  0.31897958444E+00  0.42763431800E-01 -0.11355339802E+01  0.90007739814E+02  0.90000001180E+02 0.  0.
        -12    1    1    2    0    0 -0.31897958444E+00 -0.42763431800E-01  0.11355339802E+01  0.11802601860E+01  0.00000000000E+00 0.  1.
         11    1    3    3    0    0 -0.75401984068E+01  0.30218724107E+01 -0.10637917806E+02  0.13384752534E+02  0.51100000000E-03 0. -1.
        -11    1    3    3    0    0 -0.28208429469E+02 -0.93118068130E+01 -0.14278865316E+02  0.32959235947E+02  0.51100000000E-03 0.  1.
        -12    1    3    3    0    0  0.36067607460E+02  0.63326978341E+01  0.23781249142E+02  0.43663751333E+02  0.00000000000E+00 0.  1.
</event>
<event>
 7    1  0.2593256E-015  0.9000704E+02  0.7816164E-02  0.1186340E+00
        -11   -1    0    0    0    0  0.00000000000E+00  0.00000000000E+00  0.45593999997E+02  0.45594000000E+02  0.51100000000E-03 0.  1.
         11   -1    0    0    0    0 -0.00000000000E+00 -0.00000000000E+00 -0.45593999997E+02  0.45594000000E+02  0.51100000000E-03 0. -1.
    9900012    2    1    2    0    0  0.18817384248E+00 -0.50949991506E+00 -0.10486499671E+01  0.90007040089E+02  0.89999292215E+02 0.  0.
        -12    1    1    2    0    0 -0.18817384248E+00  0.50949991506E+00  0.10486499671E+01  0.11809599112E+01  0.00000000000E+00 0.  1.
         11    1    3    3    0    0 -0.39588082688E+02 -0.10729382230E+02  0.39817430978E+01  0.41209103512E+02  0.51100000000E-03 0. -1.
        -11    1    3    3    0    0  0.46287287896E+01 -0.37007684557E+01  0.69570388050E+01  0.91389937392E+01  0.51100000000E-03 0.  1.
        -12    1    3    3    0    0  0.35147527741E+02  0.13920650770E+02 -0.11987431870E+02  0.39658942837E+02  0.00000000000E+00 0.  1.
</event>
<event>
 7    1  0.2593256E-015  0.9000774E+02  0.7816164E-02  0.1186339E+00
        -11   -1    0    0    0    0  0.00000000000E+00  0.00000000000E+00  0.45593999997E+02  0.45594000000E+02  0.51100000000E-03 0. -1.
         11   -1    0    0    0    0 -0.00000000000E+00 -0.00000000000E+00 -0.45593999997E+02  0.45594000000E+02  0.51100000000E-03 0.  1.
    9900012    2    1    2    0    0 -0.11468821195E+01  0.25631171793E+00 -0.10943056325E+00  0.90007741833E+02  0.90000003225E+02 0.  0.
        -12    1    1    2    0    0  0.11468821195E+01 -0.25631171793E+00  0.10943056325E+00  0.11802581671E+01  0.00000000000E+00 0.  1.
         11    1    3    3    0    0 -0.95135440068E+01 -0.41130940071E+01 -0.42295570947E+01  0.11194383206E+02  0.51100000000E-03 0. -1.
        -11    1    3    3    0    0 -0.30671359652E+02 -0.12687885139E+02 -0.87202790992E+01  0.34318478988E+02  0.51100000000E-03 0.  1.
         12    1    3    3    0    0  0.39038021539E+02  0.17057290864E+02  0.12840405631E+02  0.44494879639E+02  0.00000000000E+00 0. -1.
</event>
<event>
 7    1  0.2593256E-015  0.9000767E+02  0.7816164E-02  0.1186339E+00
        -11   -1    0    0    0    0  0.00000000000E+00  0.00000000000E+00  0.45593999997E+02  0.45594000000E+02  0.51100000000E-03 0. -1.
         11   -1    0    0    0    0 -0.00000000000E+00 -0.00000000000E+00 -0.45593999997E+02  0.45594000000E+02  0.51100000000E-03 0.  1.
    9900012    2    1    2    0    0 -0.12341640265E+00  0.10114880996E+01  0.59569232964E+00  0.90007665668E+02  0.89999926055E+02 0.  0.
        -12    1    1    2    0    0  0.12341640265E+00 -0.10114880996E+01 -0.59569232964E+00  0.11803343321E+01  0.00000000000E+00 0.  1.
         11    1    3    3    0    0  0.55611962215E+01 -0.44770896957E+01 -0.65766063813E+01  0.97068525956E+01  0.51100000000E-03 0. -1.
        -11    1    3    3    0    0 -0.21112960613E+02  0.11086262199E+02 -0.30788778743E+02  0.38943692841E+02  0.51100000000E-03 0.  1.
         12    1    3    3    0    0  0.15428347989E+02 -0.55976844042E+01  0.37961077454E+02  0.41357120231E+02  0.00000000000E+00 0. -1.
</event>
<event>
 7    1  0.2593256E-015  0.9000774E+02  0.7816164E-02  0.1186339E+00
        -11   -1    0    0    0    0  0.00000000000E+00  0.00000000000E+00  0.45593999997E+02  0.45594000000E+02  0.51100000000E-03 0. -1.
         11   -1    0    0    0    0 -0.00000000000E+00 -0.00000000000E+00 -0.45593999997E+02  0.45594000000E+02  0.51100000000E-03 0.  1.
    9900012    2    1    2    0    0 -0.68811954588E+00  0.95705497559E+00  0.59573953874E-01  0.90007740795E+02  0.90000002173E+02 0.  0.
        -12    1    1    2    0    0  0.68811954588E+00 -0.95705497559E+00 -0.59573953874E-01  0.11802592053E+01  0.00000000000E+00 0.  1.
         11    1    3    3    0    0 -0.25102110877E+00  0.19792468773E+00 -0.91449658500E+01  0.91505511549E+01  0.51100000000E-03 0. -1.
        -11    1    3    3    0    0  0.40728304893E+01 -0.37784640738E+02 -0.72797831286E+01  0.38694473333E+02  0.51100000000E-03 0.  1.
         12    1    3    3    0    0 -0.45099289265E+01  0.38543771026E+02  0.16484322932E+02  0.42162716307E+02  0.00000000000E+00 0. -1.
</event>
<event>
 7    1  0.2593256E-015  0.9000788E+02  0.7816164E-02  0.1186339E+00
        -11   -1    0    0    0    0  0.00000000000E+00  0.00000000000E+00  0.45593999997E+02  0.45594000000E+02  0.51100000000E-03 0. -1.
         11   -1    0    0    0    0 -0.00000000000E+00 -0.00000000000E+00 -0.45593999997E+02  0.45594000000E+02  0.51100000000E-03 0.  1.
    9900012    2    1    2    0    0 -0.33538420796E+00  0.40271376021E+00  0.10573652005E+01  0.90007880469E+02  0.90000143691E+02 0.  0.
        -12    1    1    2    0    0  0.33538420796E+00 -0.40271376021E+00 -0.10573652005E+01  0.11801195307E+01  0.00000000000E+00 0.  1.
         11    1    3    3    0    0  0.85976263162E+01 -0.32807347110E+00 -0.56098302865E+01  0.10271173574E+02  0.51100000000E-03 0. -1.
        -11    1    3    3    0    0  0.32217816582E+02 -0.72723039591E+01 -0.10172025529E+02  0.34559285493E+02  0.51100000000E-03 0.  1.
         12    1    3    3    0    0 -0.41150827106E+02  0.80030911904E+01  0.16839221016E+02  0.45177421402E+02  0.00000000000E+00 0. -1.
</event>
<event>
 7    1  0.2593256E-015  0.9000766E+02  0.7816164E-02  0.1186339E+00
        -11   -1    0    0    0    0  0.00000000000E+00  0.00000000000E+00  0.45593999997E+02  0.45594000000E+02  0.51100000000E-03 0. -1.
         11   -1    0    0    0    0 -0.00000000000E+00 -0.00000000000E+00 -0.45593999997E+02  0.45594000000E+02  0.51100000000E-03 0.  1.
    9900012    2    1    2    0    0  0.12899420466E+00  0.65378747478E+00  0.97422913413E+00  0.90007661077E+02  0.89999921403E+02 0.  0.
        -12    1    1    2    0    0 -0.12899420466E+00 -0.65378747478E+00 -0.97422913413E+00  0.11803389229E+01  0.00000000000E+00 0.  1.
         11    1    3    3    0    0 -0.24978664687E+00  0.51140932951E+01  0.81885869144E+01  0.96576031973E+01  0.51100000000E-03 0. -1.
        -11    1    3    3    0    0  0.34124082366E+02  0.65770545560E+01 -0.22812093291E+02  0.41570449174E+02  0.51100000000E-03 0.  1.
         12    1    3    3    0    0 -0.33745301514E+02 -0.11037360376E+02  0.15597735511E+02  0.38779608706E+02  0.00000000000E+00 0. -1.
</event>
<event>
 7    1  0.2593256E-015  0.9000773E+02  0.7816164E-02  0.1186339E+00
        -11   -1    0    0    0    0  0.00000000000E+00  0.00000000000E+00  0.45593999997E+02  0.45594000000E+02  0.51100000000E-03 0.  1.
         11   -1    0    0    0    0 -0.00000000000E+00 -0.00000000000E+00 -0.45593999997E+02  0.45594000000E+02  0.51100000000E-03 0. -1.
    9900012    2    1    2    0    0  0.87692621346E+00 -0.67383544397E+00 -0.41229645939E+00  0.90007727930E+02  0.89999989138E+02 0.  0.
        -12    1    1    2    0    0 -0.87692621346E+00  0.67383544397E+00  0.41229645939E+00  0.11802720703E+01  0.00000000000E+00 0.  1.
         11    1    3    3    0    0 -0.80284396667E+01 -0.18642138196E+01  0.56714159811E+01  0.10004803653E+02  0.51100000000E-03 0. -1.
        -11    1    3    3    0    0 -0.80409215067E+01 -0.33770452201E+02  0.12550777025E+02  0.36913708358E+02  0.51100000000E-03 0.  1.
         12    1    3    3    0    0  0.16946287387E+02  0.34960830577E+02 -0.18634489466E+02  0.43089215918E+02  0.00000000000E+00 0. -1.
</event>
<event>
 7    1  0.2593256E-015  0.9000780E+02  0.7816164E-02  0.1186339E+00
        -11   -1    0    0    0    0  0.00000000000E+00  0.00000000000E+00  0.45593999997E+02  0.45594000000E+02  0.51100000000E-03 0. -1.
         11   -1    0    0    0    0 -0.00000000000E+00 -0.00000000000E+00 -0.45593999997E+02  0.45594000000E+02  0.51100000000E-03 0.  1.
    9900012    2    1    2    0    0 -0.25093172720E+00 -0.64697356058E+00  0.95463309090E+00  0.90007802619E+02  0.90000064814E+02 0.  0.
        -12    1    1    2    0    0  0.25093172720E+00  0.64697356058E+00 -0.95463309090E+00  0.11801973810E+01  0.00000000000E+00 0.  1.
         11    1    3    3    0    0 -0.51147132366E+01  0.28694905025E+02  0.70543059170E+01  0.29988682834E+02  0.51100000000E-03 0. -1.
        -11    1    3    3    0    0  0.12809604006E+02  0.37200297999E+01  0.14943746423E+02  0.20030979355E+02  0.51100000000E-03 0.  1.
        -12    1    3    3    0    0 -0.79458224969E+01 -0.33061908386E+02 -0.21043419250E+02  0.39988140429E+02  0.00000000000E+00 0.  1.
</event>
<event>
 7    1  0.2593256E-015  0.9000775E+02  0.7816164E-02  0.1186339E+00
        -11   -1    0    0    0    0  0.00000000000E+00  0.00000000000E+00  0.45593999997E+02  0.45594000000E+02  0.51100000000E-03 0.  1.
         11   -1    0    0    0    0 -0.00000000000E+00 -0.00000000000E+00 -0.45593999997E+02  0.45594000000E+02  0.51100000000E-03 0. -1.
    9900012    2    1    2    0    0 -0.55629968075E+00 -0.42086025777E+00  0.95204622430E+00  0.90007752270E+02  0.90000013800E+02 0.  0.
        -12    1    1    2    0    0  0.55629968075E+00  0.42086025777E+00 -0.95204622430E+00  0.11802477302E+01  0.00000000000E+00 0.  1.
         11    1    3    3    0    0 -0.74222045477E+01  0.42255465287E+01 -0.18297973874E+00  0.85427071622E+01  0.51100000000E-03 0. -1.
        -11    1    3    3    0    0 -0.78407486373E+01 -0.21416431564E+02  0.34484470287E+02  0.41343918191E+02  0.51100000000E-03 0.  1.
         12    1    3    3    0    0  0.14706653504E+02  0.16770024777E+02 -0.33349444324E+02  0.40121126917E+02  0.00000000000E+00 0. -1.
</event>
<event>
 7    1  0.2593256E-015  0.9000772E+02  0.7816164E-02  0.1186339E+00
        -11   -1    0    0    0    0  0.00000000000E+00  0.00000000000E+00  0.45593999997E+02  0.45594000000E+02  0.51100000000E-03 0.  1.
         11   -1    0    0    0    0 -0.00000000000E+00 -0.00000000000E+00 -0.45593999997E+02  0.45594000000E+02  0.51100000000E-03 0. -1.
    9900012    2    1    2    0    0 -0.66363161354E+00 -0.97068475297E+00  0.10209969297E+00  0.90007720306E+02  0.89999981414E+02 0.  0.
        -12    1    1    2    0    0  0.66363161354E+00  0.97068475297E+00 -0.10209969297E+00  0.11802796937E+01  0.00000000000E+00 0.  1.
         11    1    3    3    0    0 -0.17135714432E+02 -0.30905124149E+02  0.13941649017E+02  0.37988537552E+02  0.51100000000E-03 0. -1.
        -11    1    3    3    0    0  0.54713277219E+01 -0.68295641503E+01  0.40936667128E+01  0.96610807335E+01  0.51100000000E-03 0.  1.
        -12    1    3    3    0    0  0.11000755097E+02  0.36764003546E+02 -0.17933216037E+02  0.42358102021E+02  0.00000000000E+00 0.  1.
</event>
<event>
 7    1  0.2593256E-015  0.9000766E+02  0.7816164E-02  0.1186339E+00
        -11   -1    0    0    0    0  0.00000000000E+00  0.00000000000E+00  0.45593999997E+02  0.45594000000E+02  0.51100000000E-03 0. -1.
         11   -1    0    0    0    0 -0.00000000000E+00 -0.00000000000E+00 -0.45593999997E+02  0.45594000000E+02  0.51100000000E-03 0.  1.
    9900012    2    1    2    0    0  0.98640023954E+00  0.64685278472E+00  0.42463061805E-01  0.90007658071E+02  0.89999918358E+02 0.  0.
        -12    1    1    2    0    0 -0.98640023954E+00 -0.64685278472E+00 -0.42463061805E-01  0.11803419290E+01  0.00000000000E+00 0.  1.
         11    1    3    3    0    0  0.34203208152E+02  0.67370222344E+01 -0.15222321782E+02  0.38039006259E+02  0.51100000000E-03 0. -1.
        -11    1    3    3    0    0  0.32993493653E+01  0.91234797889E+01  0.40193696593E+00  0.97100537217E+01  0.51100000000E-03 0.  1.
        -12    1    3    3    0    0 -0.36516157278E+02 -0.15213649239E+02  0.14862847878E+02  0.42258598090E+02  0.00000000000E+00 0.  1.
</event>
<event>
 7    1  0.2606355E-015  0.9000720E+02  0.7816164E-02  0.1186340E+00
        -11   -1    0    0    0    0  0.00000000000E+00  0.00000000000E+00  0.45593999997E+02  0.45594000000E+02  0.51100000000E-03 0. -1.
         11   -1    0    0    0    0 -0.00000000000E+00 -0.00000000000E+00 -0.45593999997E+02  0.45594000000E+02  0.51100000000E-03 0.  1.
    9900012    2    1    2    0    0  0.75135628254E+00 -0.77053582770E+00  0.48582822985E+00  0.90007199088E+02  0.89999453314E+02 0.  0.
        -12    1    1    2    0    0 -0.75135628254E+00  0.77053582770E+00 -0.48582822985E+00  0.11808009121E+01  0.00000000000E+00 0.  1.
         11    1    3    3    0    0 -0.22887877322E+02 -0.15391403544E+02  0.29207362293E+02  0.40172381604E+02  0.51100000000E-03 0. -1.
        -11    1    3    3    0    0  0.86955225485E+01 -0.28853461634E+01  0.38612927852E+01  0.99421786902E+01  0.51100000000E-03 0.  1.
        -12    1    3    3    0    0  0.14943711056E+02  0.17506213879E+02 -0.32582826849E+02  0.39892638794E+02  0.00000000000E+00 0.  1.
</event>
<event>
 7    1  0.2593256E-015  0.9000763E+02  0.7816164E-02  0.1186339E+00
        -11   -1    0    0    0    0  0.00000000000E+00  0.00000000000E+00  0.45593999997E+02  0.45594000000E+02  0.51100000000E-03 0.  1.
         11   -1    0    0    0    0 -0.00000000000E+00 -0.00000000000E+00 -0.45593999997E+02  0.45594000000E+02  0.51100000000E-03 0. -1.
    9900012    2    1    2    0    0 -0.47025868805E+00 -0.25439835156E+00 -0.10523332897E+01  0.90007632639E+02  0.89999892589E+02 0.  0.
        -12    1    1    2    0    0  0.47025868805E+00  0.25439835156E+00  0.10523332897E+01  0.11803673613E+01  0.00000000000E+00 0.  1.
         11    1    3    3    0    0  0.43136856171E+00 -0.34153836773E+01 -0.92552500435E+01  0.98747444588E+01  0.51100000000E-03 0. -1.
        -11    1    3    3    0    0  0.34404410102E+02  0.20492180101E+02  0.46022150275E+00  0.40047530309E+02  0.51100000000E-03 0.  1.
         12    1    3    3    0    0 -0.35306037352E+02 -0.17331194776E+02  0.77426952510E+01  0.40085357870E+02  0.00000000000E+00 0. -1.
</event>
<event>
 7    1  0.2593256E-015  0.9000779E+02  0.7816164E-02  0.1186339E+00
        -11   -1    0    0    0    0  0.00000000000E+00  0.00000000000E+00  0.45593999997E+02  0.45594000000E+02  0.51100000000E-03 0. -1.
         11   -1    0    0    0    0 -0.00000000000E+00 -0.00000000000E+00 -0.45593999997E+02  0.45594000000E+02  0.51100000000E-03 0.  1.
    9900012    2    1    2    0    0  0.99267866800E+00  0.61034443416E+00  0.18696073870E+00  0.90007794262E+02  0.90000056346E+02 0.  0.
        -12    1    1    2    0    0 -0.99267866800E+00 -0.61034443416E+00 -0.18696073870E+00  0.11802057380E+01  0.00000000000E+00 0.  1.
         11    1    3    3    0    0  0.50193493938E+01  0.66936404680E+01  0.47510493733E+01  0.96213908278E+01  0.51100000000E-03 0. -1.
        -11    1    3    3    0    0 -0.32181681554E+02  0.23127667709E+02 -0.75648343658E+00  0.39637380196E+02  0.51100000000E-03 0.  1.
         12    1    3    3    0    0  0.28155010828E+02 -0.29210963743E+02 -0.38076051980E+01  0.40749023239E+02  0.00000000000E+00 0. -1.
</event>
<event>
 7    1  0.2593256E-015  0.9000814E+02  0.7816164E-02  0.1186338E+00
        -11   -1    0    0    0    0  0.00000000000E+00  0.00000000000E+00  0.45593999997E+02  0.45594000000E+02  0.51100000000E-03 0. -1.
         11   -1    0    0    0    0 -0.00000000000E+00 -0.00000000000E+00 -0.45593999997E+02  0.45594000000E+02  0.51100000000E-03 0.  1.
    9900012    2    1    2    0    0  0.34494045444E-01 -0.11053745913E+01 -0.41113160164E+00  0.90008138983E+02  0.90000405616E+02 0.  0.
        -12    1    1    2    0    0 -0.34494045444E-01  0.11053745913E+01  0.41113160164E+00  0.11798610173E+01  0.00000000000E+00 0.  1.
         11    1    3    3    0    0  0.29653304317E+01  0.86459164641E+01 -0.62352995677E+01  0.11064538718E+02  0.51100000000E-03 0. -1.
        -11    1    3    3    0    0  0.22544526635E+02  0.11849488449E+02 -0.23382375782E+02  0.34574579609E+02  0.51100000000E-03 0.  1.
         12    1    3    3    0    0 -0.25475363021E+02 -0.21600779504E+02  0.29206543748E+02  0.44369020656E+02  0.00000000000E+00 0. -1.
</event>
<event>
 7    1  0.2593256E-015  0.9000764E+02  0.7816164E-02  0.1186339E+00
        -11   -1    0    0    0    0  0.00000000000E+00  0.00000000000E+00  0.45593999997E+02  0.45594000000E+02  0.51100000000E-03 0.  1.
         11   -1    0    0    0    0 -0.00000000000E+00 -0.00000000000E+00 -0.45593999997E+02  0.45594000000E+02  0.51100000000E-03 0. -1.
    9900012    2    1    2    0    0  0.68438668755E+00  0.51360230997E+00  0.81306881204E+00  0.90007638460E+02  0.89999898488E+02 0.  0.
        -12    1    1    2    0    0 -0.68438668755E+00 -0.51360230997E+00 -0.81306881204E+00  0.11803615395E+01  0.00000000000E+00 0.  1.
         11    1    3    3    0    0 -0.89185938577E+00  0.24491034110E+02 -0.32874794400E+02  0.41004368939E+02  0.51100000000E-03 0. -1.
        -11    1    3    3    0    0 -0.41095775886E+01 -0.87737137465E+01 -0.19138832507E+01  0.98757090996E+01  0.51100000000E-03 0.  1.
        -12    1    3    3    0    0  0.56858236619E+01 -0.15203718054E+02  0.35601746463E+02  0.39127560422E+02  0.00000000000E+00 0.  1.
</event>
<event>
 7    1  0.2593256E-015  0.9000777E+02  0.7816164E-02  0.1186339E+00
        -11   -1    0    0    0    0  0.00000000000E+00  0.00000000000E+00  0.45593999997E+02  0.45594000000E+02  0.51100000000E-03 0. -1.
         11   -1    0    0    0    0 -0.00000000000E+00 -0.00000000000E+00 -0.45593999997E+02  0.45594000000E+02  0.51100000000E-03 0.  1.
    9900012    2    1    2    0    0 -0.18580191294E+00 -0.11582771953E+01  0.12970603849E+00  0.90007766096E+02  0.90000027808E+02 0.  0.
        -12    1    1    2    0    0  0.18580191294E+00  0.11582771953E+01 -0.12970603849E+00  0.11802339041E+01  0.00000000000E+00 0.  1.
         11    1    3    3    0    0 -0.31324304059E+02 -0.26469239684E+02 -0.23170970959E+01  0.41075559807E+02  0.51100000000E-03 0. -1.
        -11    1    3    3    0    0  0.45044419328E+01  0.90937044429E+00 -0.97726937829E+01  0.10799189588E+02  0.51100000000E-03 0.  1.
        -12    1    3    3    0    0  0.26634060213E+02  0.24401592045E+02  0.12219496917E+02  0.38133016700E+02  0.00000000000E+00 0.  1.
</event>
<event>
 7    1  0.2593256E-015  0.9000770E+02  0.7816164E-02  0.1186339E+00
        -11   -1    0    0    0    0  0.00000000000E+00  0.00000000000E+00  0.45593999997E+02  0.45594000000E+02  0.51100000000E-03 0.  1.
         11   -1    0    0    0    0 -0.00000000000E+00 -0.00000000000E+00 -0.45593999997E+02  0.45594000000E+02  0.51100000000E-03 0. -1.
    9900012    2    1    2    0    0 -0.11672192660E+01 -0.11417520665E+00  0.13290017769E+00  0.90007703745E+02  0.89999964634E+02 0.  0.
        -12    1    1    2    0    0  0.11672192660E+01  0.11417520665E+00 -0.13290017769E+00  0.11802962552E+01  0.00000000000E+00 0.  1.
         11    1    3    3    0    0  0.21464071780E+02  0.17555858064E+02 -0.34475867889E+02  0.44243643574E+02  0.51100000000E-03 0. -1.
        -11    1    3    3    0    0 -0.55516219005E+01 -0.50924364292E+00  0.84178939891E+01  0.10096572403E+02  0.51100000000E-03 0.  1.
        -12    1    3    3    0    0 -0.17079669145E+02 -0.17160789628E+02  0.26190874077E+02  0.35667487768E+02  0.00000000000E+00 0.  1.
</event>
<event>
 7    1  0.2593256E-015  0.9000771E+02  0.7816164E-02  0.1186339E+00
        -11   -1    0    0    0    0  0.00000000000E+00  0.00000000000E+00  0.45593999997E+02  0.45594000000E+02  0.51100000000E-03 0.  1.
         11   -1    0    0    0    0 -0.00000000000E+00 -0.00000000000E+00 -0.45593999997E+02  0.45594000000E+02  0.51100000000E-03 0. -1.
    9900012    2    1    2    0    0 -0.84821673852E+00 -0.11984797441E+00 -0.81194650758E+00  0.90007706687E+02  0.89999967616E+02 0.  0.
        -12    1    1    2    0    0  0.84821673852E+00  0.11984797441E+00  0.81194650758E+00  0.11802933126E+01  0.00000000000E+00 0.  1.
         11    1    3    3    0    0 -0.50523532902E+01 -0.38215051846E+01  0.70725634241E+01  0.94948053847E+01  0.51100000000E-03 0. -1.
        -11    1    3    3    0    0  0.48101280838E+01 -0.74501467295E+01  0.35047496898E+02  0.36152027018E+02  0.51100000000E-03 0.  1.
         12    1    3    3    0    0 -0.60599153220E+00  0.11151803940E+02 -0.42932006830E+02  0.44360874284E+02  0.00000000000E+00 0. -1.
</event>
<event>
 7    1  0.2593256E-015  0.9000774E+02  0.7816164E-02  0.1186339E+00
        -11   -1    0    0    0    0  0.00000000000E+00  0.00000000000E+00  0.45593999997E+02  0.45594000000E+02  0.51100000000E-03 0.  1.
         11   -1    0    0    0    0 -0.00000000000E+00 -0.00000000000E+00 -0.45593999997E+02  0.45594000000E+02  0.51100000000E-03 0. -1.
    9900012    2    1    2    0    0  0.60994176950E+00  0.10076632904E+01  0.74755991636E-01  0.90007744635E+02  0.90000006064E+02 0.  0.
        -12    1    1    2    0    0 -0.60994176950E+00 -0.10076632904E+01 -0.74755991636E-01  0.11802553653E+01  0.00000000000E+00 0.  1.
         11    1    3    3    0    0 -0.32629793558E+01 -0.18211860775E+01 -0.69017780396E+01  0.78484580253E+01  0.51100000000E-03 0. -1.
        -11    1    3    3    0    0 -0.13529742036E+02 -0.36122223136E+02  0.83865413294E+01  0.39474080098E+02  0.51100000000E-03 0.  1.
         12    1    3    3    0    0  0.17402663161E+02  0.38951072504E+02 -0.14100072981E+01  0.42685206511E+02  0.00000000000E+00 0. -1.
</event>
<event>
 7    1  0.3913136E-015  0.9000758E+02  0.7816164E-02  0.1186339E+00
        -11   -1    0    0    0    0  0.00000000000E+00  0.00000000000E+00  0.45593999997E+02  0.45594000000E+02  0.51100000000E-03 0. -1.
         11   -1    0    0    0    0 -0.00000000000E+00 -0.00000000000E+00 -0.45593999997E+02  0.45594000000E+02  0.51100000000E-03 0.  1.
    9900012    2    1    2    0    0  0.81004995632E+00 -0.85852507054E+00 -0.11761557108E-01  0.90007582886E+02  0.89999842180E+02 0.  0.
        -12    1    1    2    0    0 -0.81004995632E+00  0.85852507054E+00  0.11761557108E-01  0.11804171139E+01  0.00000000000E+00 0.  1.
         11    1    3    3    0    0  0.10185161640E+02 -0.26124112048E+02  0.23651501208E+02  0.36682424369E+02  0.51100000000E-03 0. -1.
        -11    1    3    3    0    0 -0.28665631286E+01 -0.80528792186E+01  0.40902752203E+01  0.94760962172E+01  0.51100000000E-03 0.  1.
        -12    1    3    3    0    0 -0.65085485555E+01  0.33318466196E+02 -0.27753537985E+02  0.43849062300E+02  0.00000000000E+00 0.  1.
</event>
<event>
 7    1  0.2593256E-015  0.9000766E+02  0.7816164E-02  0.1186339E+00
        -11   -1    0    0    0    0  0.00000000000E+00  0.00000000000E+00  0.45593999997E+02  0.45594000000E+02  0.51100000000E-03 0. -1.
         11   -1    0    0    0    0 -0.00000000000E+00 -0.00000000000E+00 -0.45593999997E+02  0.45594000000E+02  0.51100000000E-03 0.  1.
    9900012    2    1    2    0    0 -0.14291040639E+00 -0.37783238246E+00  0.11090607873E+01  0.90007662538E+02  0.89999922884E+02 0.  0.
        -12    1    1    2    0    0  0.14291040639E+00  0.37783238246E+00 -0.11090607873E+01  0.11803374617E+01  0.00000000000E+00 0.  1.
         11    1    3    3    0    0  0.74843387020E+01 -0.34585772374E+00  0.54961981762E+01  0.92921008402E+01  0.51100000000E-03 0. -1.
        -11    1    3    3    0    0 -0.24381306736E+00 -0.31055956395E+02 -0.27378109081E+02  0.41401602983E+02  0.51100000000E-03 0.  1.
         12    1    3    3    0    0 -0.73834360410E+01  0.31023981736E+02  0.22990971692E+02  0.39313958716E+02  0.00000000000E+00 0. -1.
</event>
<event>
 7    1  0.2593256E-015  0.9000778E+02  0.7816164E-02  0.1186339E+00
        -11   -1    0    0    0    0  0.00000000000E+00  0.00000000000E+00  0.45593999997E+02  0.45594000000E+02  0.51100000000E-03 0.  1.
         11   -1    0    0    0    0 -0.00000000000E+00 -0.00000000000E+00 -0.45593999997E+02  0.45594000000E+02  0.51100000000E-03 0. -1.
    9900012    2    1    2    0    0 -0.10485429256E+01  0.35854464195E+00  0.40611618813E+00  0.90007776765E+02  0.90000038618E+02 0.  0.
        -12    1    1    2    0    0  0.10485429256E+01 -0.35854464195E+00 -0.40611618813E+00  0.11802232354E+01  0.00000000000E+00 0.  1.
         11    1    3    3    0    0 -0.49155450059E+01 -0.74943990262E+01  0.31830862438E+01  0.95110797371E+01  0.51100000000E-03 0. -1.
        -11    1    3    3    0    0 -0.21497166923E+01  0.12269804776E+01  0.38338521691E+02  0.38418342086E+02  0.51100000000E-03 0.  1.
         12    1    3    3    0    0  0.60167187726E+01  0.66259631905E+01 -0.41115491747E+02  0.42078354941E+02  0.00000000000E+00 0. -1.
</event>
<event>
 7    1  0.2593256E-015  0.9000771E+02  0.7816164E-02  0.1186339E+00
        -11   -1    0    0    0    0  0.00000000000E+00  0.00000000000E+00  0.45593999997E+02  0.45594000000E+02  0.51100000000E-03 0. -1.
         11   -1    0    0    0    0 -0.00000000000E+00 -0.00000000000E+00 -0.45593999997E+02  0.45594000000E+02  0.51100000000E-03 0.  1.
    9900012    2    1    2    0    0  0.25369380594E+00  0.12613104845E+00  0.11457800133E+01  0.90007711295E+02  0.89999972284E+02 0.  0.
        -12    1    1    2    0    0 -0.25369380594E+00 -0.12613104845E+00 -0.11457800133E+01  0.11802887051E+01  0.00000000000E+00 0.  1.
         11    1    3    3    0    0 -0.33793591369E+01 -0.89685129814E+01 -0.12928144981E+02  0.16093204348E+02  0.51100000000E-03 0. -1.
        -11    1    3    3    0    0 -0.24653560741E+02 -0.18491114254E+02 -0.28141814987E+01  0.30945742540E+02  0.51100000000E-03 0.  1.
         12    1    3    3    0    0  0.28286613684E+02  0.27585758284E+02  0.16888106493E+02  0.42968764407E+02  0.00000000000E+00 0. -1.
</event>
<event>
 7    1  0.2593256E-015  0.9000786E+02  0.7816164E-02  0.1186339E+00
        -11   -1    0    0    0    0  0.00000000000E+00  0.00000000000E+00  0.45593999997E+02  0.45594000000E+02  0.51100000000E-03 0. -1.
         11   -1    0    0    0    0 -0.00000000000E+00 -0.00000000000E+00 -0.45593999997E+02  0.45594000000E+02  0.51100000000E-03 0.  1.
    9900012    2    1    2    0    0 -0.10355556605E+00 -0.98170292484E+00  0.64674228365E+00  0.90007855954E+02  0.90000118852E+02 0.  0.
        -12    1    1    2    0    0  0.10355556605E+00  0.98170292484E+00 -0.64674228365E+00  0.11801440460E+01  0.00000000000E+00 0.  1.
         11    1    3    3    0    0  0.10761542318E+01  0.66587308713E+00  0.85224763357E+01  0.86159211958E+01  0.51100000000E-03 0. -1.
        -11    1    3    3    0    0 -0.14835132130E+01 -0.41043980160E+02 -0.87157926929E+01  0.41985404147E+02  0.51100000000E-03 0.  1.
         12    1    3    3    0    0  0.30380341516E+00  0.39396404148E+02  0.84005864086E+00  0.39406530612E+02  0.00000000000E+00 0. -1.
</event>
<event>
 7    1  0.2593256E-015  0.9000776E+02  0.7816164E-02  0.1186339E+00
        -11   -1    0    0    0    0  0.00000000000E+00  0.00000000000E+00  0.45593999997E+02  0.45594000000E+02  0.51100000000E-03 0. -1.
         11   -1    0    0    0    0 -0.00000000000E+00 -0.00000000000E+00 -0.45593999997E+02  0.45594000000E+02  0.51100000000E-03 0.  1.
    9900012    2    1    2    0    0 -0.83270343344E+00  0.29805665605E-01  0.83586824193E+00  0.90007763115E+02  0.90000024789E+02 0.  0.
        -12    1    1    2    0    0  0.83270343344E+00 -0.29805665605E-01 -0.83586824193E+00  0.11802368845E+01  0.00000000000E+00 0.  1.
         11    1    3    3    0    0 -0.52568490450E+00  0.12013565124E+02  0.41553929244E+02  0.43258884954E+02  0.51100000000E-03 0. -1.
        -11    1    3    3    0    0  0.20078835018E+01 -0.50275915179E+01 -0.38364392859E-01  0.54138474965E+01  0.51100000000E-03 0.  1.
        -12    1    3    3    0    0 -0.23149020308E+01 -0.69561679410E+01 -0.40679696609E+02  0.41335030665E+02  0.00000000000E+00 0.  1.
</event>
<event>
 7    1  0.2593256E-015  0.9000767E+02  0.7816164E-02  0.1186339E+00
        -11   -1    0    0    0    0  0.00000000000E+00  0.00000000000E+00  0.45593999997E+02  0.45594000000E+02  0.51100000000E-03 0.  1.
         11   -1    0    0    0    0 -0.00000000000E+00 -0.00000000000E+00 -0.45593999997E+02  0.45594000000E+02  0.51100000000E-03 0. -1.
    9900012    2    1    2    0    0 -0.39706127904E+00  0.11112499758E+01  0.25265532293E-01  0.90007672708E+02  0.89999933188E+02 0.  0.
        -12    1    1    2    0    0  0.39706127904E+00 -0.11112499758E+01 -0.25265532293E-01  0.11803272915E+01  0.00000000000E+00 0.  1.
         11    1    3    3    0    0  0.42299366819E+01  0.69547969894E+01  0.45409809533E+01  0.93210554003E+01  0.51100000000E-03 0. -1.
        -11    1    3    3    0    0 -0.33110306675E+02 -0.19002373695E+02  0.17862358991E+02  0.42147911967E+02  0.51100000000E-03 0.  1.
         12    1    3    3    0    0  0.28483308714E+02  0.13158826682E+02 -0.22378074412E+02  0.38538705341E+02  0.00000000000E+00 0. -1.
</event>
<event>
 7    1  0.2593256E-015  0.9000764E+02  0.7816164E-02  0.1186339E+00
        -11   -1    0    0    0    0  0.00000000000E+00  0.00000000000E+00  0.45593999997E+02  0.45594000000E+02  0.51100000000E-03 0. -1.
         11   -1    0    0    0    0 -0.00000000000E+00 -0.00000000000E+00 -0.45593999997E+02  0.45594000000E+02  0.51100000000E-03 0.  1.
    9900012    2    1    2    0    0 -0.20694727096E+00  0.84726189656E+00  0.79533952851E+00  0.90007642063E+02  0.89999902138E+02 0.  0.
        -12    1    1    2    0    0  0.20694727096E+00 -0.84726189656E+00 -0.79533952851E+00  0.11803579372E+01  0.00000000000E+00 0.  1.
         11    1    3    3    0    0  0.89912009189E+01 -0.48271740191E+01  0.25747907220E+01  0.10524868194E+02  0.51100000000E-03 0. -1.
        -11    1    3    3    0    0  0.26473813341E+02 -0.21594134694E+02 -0.47081967197E+01  0.34486759236E+02  0.51100000000E-03 0.  1.
         12    1    3    3    0    0 -0.35671961530E+02  0.27268570610E+02  0.29287455263E+01  0.44996014633E+02  0.00000000000E+00 0. -1.
</event>
<event>
 7    1  0.2593256E-015  0.9000777E+02  0.7816164E-02  0.1186339E+00
        -11   -1    0    0    0    0  0.00000000000E+00  0.00000000000E+00  0.45593999997E+02  0.45594000000E+02  0.51100000000E-03 0. -1.
         11   -1    0    0    0    0 -0.00000000000E+00 -0.00000000000E+00 -0.45593999997E+02  0.45594000000E+02  0.51100000000E-03 0.  1.
    9900012    2    1    2    0    0 -0.64771498948E+00 -0.59467740448E+00 -0.78725886096E+00  0.90007765940E+02  0.90000027650E+02 0.  0.
        -12    1    1    2    0    0  0.64771498948E+00  0.59467740448E+00  0.78725886096E+00  0.11802340603E+01  0.00000000000E+00 0.  1.
         11    1    3    3    0    0 -0.44459019571E+01 -0.59902424333E+01  0.38237301609E+02  0.38958186344E+02  0.51100000000E-03 0. -1.
        -11    1    3    3    0    0 -0.94981301384E+01 -0.23825795466E+00 -0.66592621790E-01  0.95013513680E+01  0.51100000000E-03 0.  1.
        -12    1    3    3    0    0  0.13296317106E+02  0.56338229835E+01 -0.38957967848E+02  0.41548228228E+02  0.00000000000E+00 0.  1.
</event>
<event>
 7    1  0.2593256E-015  0.9000775E+02  0.7816164E-02  0.1186339E+00
        -11   -1    0    0    0    0  0.00000000000E+00  0.00000000000E+00  0.45593999997E+02  0.45594000000E+02  0.51100000000E-03 0. -1.
         11   -1    0    0    0    0 -0.00000000000E+00 -0.00000000000E+00 -0.45593999997E+02  0.45594000000E+02  0.51100000000E-03 0.  1.
    9900012    2    1    2    0    0 -0.40693500571E+00 -0.88524821078E+00  0.66613844909E+00  0.90007745397E+02  0.90000006837E+02 0.  0.
        -12    1    1    2    0    0  0.40693500571E+00  0.88524821078E+00 -0.66613844909E+00  0.11802546026E+01  0.00000000000E+00 0.  1.
         11    1    3    3    0    0  0.15269542730E+02  0.22690491006E+02 -0.12713090726E+01  0.27379436523E+02  0.51100000000E-03 0.  1.
        -11    1    3    3    0    0  0.17793038733E+02 -0.49823887602E+01  0.13212459696E+02  0.22715314582E+02  0.51100000000E-03 0. -1.
         12    1    3    3    0    0 -0.33469516468E+02 -0.18593350457E+02 -0.11275012174E+02  0.39912994292E+02  0.00000000000E+00 0. -1.
</event>
<event>
 7    1  0.2593256E-015  0.9000762E+02  0.7816164E-02  0.1186339E+00
        -11   -1    0    0    0    0  0.00000000000E+00  0.00000000000E+00  0.45593999997E+02  0.45594000000E+02  0.51100000000E-03 0.  1.
         11   -1    0    0    0    0 -0.00000000000E+00 -0.00000000000E+00 -0.45593999997E+02  0.45594000000E+02  0.51100000000E-03 0. -1.
    9900012    2    1    2    0    0 -0.25579065662E+00 -0.97204506737E+00  0.61886839989E+00  0.90007619312E+02  0.89999879086E+02 0.  0.
        -12    1    1    2    0    0  0.25579065662E+00  0.97204506737E+00 -0.61886839989E+00  0.11803806883E+01  0.00000000000E+00 0.  1.
         11    1    3    3    0    0  0.10144351892E+02  0.26584906312E+02 -0.21991297964E+02  0.35962234432E+02  0.51100000000E-03 0. -1.
        -11    1    3    3    0    0  0.23659688991E+01 -0.65536723657E+01 -0.10626977169E+02  0.12707520385E+02  0.51100000000E-03 0.  1.
        -12    1    3    3    0    0 -0.12766111447E+02 -0.21003279014E+02  0.33237143533E+02  0.41337864495E+02  0.00000000000E+00 0.  1.
</event>
<event>
 7    1  0.2593256E-015  0.9000715E+02  0.7816164E-02  0.1186340E+00
        -11   -1    0    0    0    0  0.00000000000E+00  0.00000000000E+00  0.45593999997E+02  0.45594000000E+02  0.51100000000E-03 0.  1.
         11   -1    0    0    0    0 -0.00000000000E+00 -0.00000000000E+00 -0.45593999997E+02  0.45594000000E+02  0.51100000000E-03 0. -1.
    9900012    2    1    2    0    0  0.47871326762E+00 -0.12105772833E+00 -0.10726539336E+01  0.90007149532E+02  0.89999403104E+02 0.  0.
        -12    1    1    2    0    0 -0.47871326762E+00  0.12105772833E+00  0.10726539336E+01  0.11808504678E+01  0.00000000000E+00 0.  1.
         11    1    3    3    0    0  0.76826836284E+01  0.65900691117E+01 -0.51649254517E+01  0.11363498309E+02  0.51100000000E-03 0. -1.
        -11    1    3    3    0    0  0.12685864519E+02 -0.10732158346E+02  0.36672126116E+02  0.40261088106E+02  0.51100000000E-03 0.  1.
         12    1    3    3    0    0 -0.19889834879E+02  0.40210315063E+01 -0.32579854597E+02  0.38382563118E+02  0.00000000000E+00 0. -1.
</event>
<event>
 7    1  0.2593256E-015  0.9000778E+02  0.7816164E-02  0.1186339E+00
        -11   -1    0    0    0    0  0.00000000000E+00  0.00000000000E+00  0.45593999997E+02  0.45594000000E+02  0.51100000000E-03 0. -1.
         11   -1    0    0    0    0 -0.00000000000E+00 -0.00000000000E+00 -0.45593999997E+02  0.45594000000E+02  0.51100000000E-03 0.  1.
    9900012    2    1    2    0    0 -0.52364777842E-02 -0.71364868983E+00 -0.93999513910E+00  0.90007782760E+02  0.90000044692E+02 0.  0.
        -12    1    1    2    0    0  0.52364777842E-02  0.71364868983E+00  0.93999513910E+00  0.11802172405E+01  0.00000000000E+00 0.  1.
         11    1    3    3    0    0  0.17669627291E+02 -0.49977544935E+01  0.33682064350E+02  0.38362413085E+02  0.51100000000E-03 0. -1.
        -11    1    3    3    0    0  0.95275311998E+01 -0.10920112427E+01 -0.41608956237E+01  0.10453678394E+02  0.51100000000E-03 0.  1.
        -12    1    3    3    0    0 -0.27202394969E+02  0.53761170463E+01 -0.30461163865E+02  0.41191691280E+02  0.00000000000E+00 0.  1.
</event>
<event>
 7    1  0.2593256E-015  0.9000778E+02  0.7816164E-02  0.1186339E+00
        -11   -1    0    0    0    0  0.00000000000E+00  0.00000000000E+00  0.45593999997E+02  0.45594000000E+02  0.51100000000E-03 0.  1.
         11   -1    0    0    0    0 -0.00000000000E+00 -0.00000000000E+00 -0.45593999997E+02  0.45594000000E+02  0.51100000000E-03 0. -1.
    9900012    2    1    2    0    0 -0.10261307676E+01 -0.56646303218E+00 -0.13815649681E+00  0.90007783098E+02  0.90000045035E+02 0.  0.
        -12    1    1    2    0    0  0.10261307676E+01  0.56646303218E+00  0.13815649681E+00  0.11802169024E+01  0.00000000000E+00 0.  1.
         11    1    3    3    0    0  0.19064629442E+01 -0.12179563521E+01  0.10564192635E+02  0.10803711627E+02  0.51100000000E-03 0. -1.
        -11    1    3    3    0    0  0.24168543204E+02 -0.17416076786E+02  0.18826083506E+02  0.35240028826E+02  0.51100000000E-03 0.  1.
         12    1    3    3    0    0 -0.27101136916E+02  0.18067570106E+02 -0.29528432637E+02  0.43964042645E+02  0.00000000000E+00 0. -1.
</event>
<event>
 7    1  0.2593256E-015  0.9000780E+02  0.7816164E-02  0.1186339E+00
        -11   -1    0    0    0    0  0.00000000000E+00  0.00000000000E+00  0.45593999997E+02  0.45594000000E+02  0.51100000000E-03 0.  1.
         11   -1    0    0    0    0 -0.00000000000E+00 -0.00000000000E+00 -0.45593999997E+02  0.45594000000E+02  0.51100000000E-03 0. -1.
    9900012    2    1    2    0    0 -0.96144127866E+00  0.58676641616E+00 -0.35244776723E+00  0.90007795108E+02  0.90000057203E+02 0.  0.
        -12    1    1    2    0    0  0.96144127866E+00 -0.58676641616E+00  0.35244776723E+00  0.11802048924E+01  0.00000000000E+00 0.  1.
         11    1    3    3    0    0  0.70998335782E+01 -0.61540314450E+01  0.12613862859E+01  0.94800229687E+01  0.51100000000E-03 0. -1.
        -11    1    3    3    0    0  0.67417376120E+01 -0.90466411434E+01  0.35673391087E+02  0.37415018027E+02  0.51100000000E-03 0.  1.
         12    1    3    3    0    0 -0.14803012469E+02  0.15787439005E+02 -0.37287225140E+02  0.43112754112E+02  0.00000000000E+00 0. -1.
</event>
<event>
 7    1  0.3870308E-015  0.9000775E+02  0.7816164E-02  0.1186339E+00
        -11   -1    0    0    0    0  0.00000000000E+00  0.00000000000E+00  0.45593999997E+02  0.45594000000E+02  0.51100000000E-03 0.  1.
         11   -1    0    0    0    0 -0.00000000000E+00 -0.00000000000E+00 -0.45593999997E+02  0.45594000000E+02  0.51100000000E-03 0. -1.
    9900012    2    1    2    0    0  0.11106708206E+00  0.11730709333E+01  0.67476407898E-01  0.90007752409E+02  0.90000013940E+02 0.  0.
        -12    1    1    2    0    0 -0.11106708206E+00 -0.11730709333E+01 -0.67476407898E-01  0.11802475914E+01  0.00000000000E+00 0.  1.
         11    1    3    3    0    0  0.15450145319E+02 -0.16178603612E+02 -0.28286855262E+02  0.36063837650E+02  0.51100000000E-03 0. -1.
        -11    1    3    3    0    0  0.80337618768E+01 -0.23996095728E+01 -0.41040852313E+01  0.93350400022E+01  0.51100000000E-03 0.  1.
        -12    1    3    3    0    0 -0.23372840114E+02  0.19751284118E+02  0.32458416901E+02  0.44608874756E+02  0.00000000000E+00 0.  1.
</event>
<event>
 7    1  0.2593256E-015  0.9000775E+02  0.7816164E-02  0.1186339E+00
        -11   -1    0    0    0    0  0.00000000000E+00  0.00000000000E+00  0.45593999997E+02  0.45594000000E+02  0.51100000000E-03 0.  1.
         11   -1    0    0    0    0 -0.00000000000E+00 -0.00000000000E+00 -0.45593999997E+02  0.45594000000E+02  0.51100000000E-03 0. -1.
    9900012    2    1    2    0    0  0.36139374636E+00  0.18145220053E+00 -0.11088149158E+01  0.90007745426E+02  0.90000006866E+02 0.  0.
        -12    1    1    2    0    0 -0.36139374636E+00 -0.18145220053E+00  0.11088149158E+01  0.11802545736E+01  0.00000000000E+00 0.  1.
         11    1    3    3    0    0  0.37676624967E+01  0.48841612863E+00  0.10900745639E+02  0.11543833278E+02  0.51100000000E-03 0. -1.
        -11    1    3    3    0    0 -0.21066162785E+02 -0.26613580891E+02  0.14733450636E+02  0.37001898198E+02  0.51100000000E-03 0.  1.
         12    1    3    3    0    0  0.17659894035E+02  0.26306616963E+02 -0.26743011190E+02  0.41462013951E+02  0.00000000000E+00 0. -1.
</event>
<event>
 7    1  0.2593256E-015  0.9000760E+02  0.7816164E-02  0.1186339E+00
        -11   -1    0    0    0    0  0.00000000000E+00  0.00000000000E+00  0.45593999997E+02  0.45594000000E+02  0.51100000000E-03 0.  1.
         11   -1    0    0    0    0 -0.00000000000E+00 -0.00000000000E+00 -0.45593999997E+02  0.45594000000E+02  0.51100000000E-03 0. -1.
    9900012    2    1    2    0    0  0.16368337745E+00  0.97535254013E+00 -0.64438267571E+00  0.90007604364E+02  0.89999863941E+02 0.  0.
        -12    1    1    2    0    0 -0.16368337745E+00 -0.97535254013E+00  0.64438267571E+00  0.11803956364E+01  0.00000000000E+00 0.  1.
         11    1    3    3    0    0  0.16128211245E+01 -0.59337266866E+01 -0.82860936698E+01  0.10318413295E+02  0.51100000000E-03 0. -1.
        -11    1    3    3    0    0  0.10107568071E+01  0.25850254702E+02 -0.28697049340E+02  0.38636484553E+02  0.51100000000E-03 0.  1.
         12    1    3    3    0    0 -0.24598945541E+01 -0.18941175476E+02  0.36338760334E+02  0.41052706515E+02  0.00000000000E+00 0. -1.
</event>
<event>
 7    1  0.2593256E-015  0.9000758E+02  0.7816164E-02  0.1186339E+00
        -11   -1    0    0    0    0  0.00000000000E+00  0.00000000000E+00  0.45593999997E+02  0.45594000000E+02  0.51100000000E-03 0. -1.
         11   -1    0    0    0    0 -0.00000000000E+00 -0.00000000000E+00 -0.45593999997E+02  0.45594000000E+02  0.51100000000E-03 0.  1.
    9900012    2    1    2    0    0  0.11614392648E+01  0.21037026893E+00 -0.13783540435E-01  0.90007581938E+02  0.89999841219E+02 0.  0.
        -12    1    1    2    0    0 -0.11614392648E+01 -0.21037026893E+00  0.13783540435E-01  0.11804180623E+01  0.00000000000E+00 0.  1.
         11    1    3    3    0    0  0.19903410167E+01  0.18951326218E+01 -0.78167187738E+01  0.82857756225E+01  0.51100000000E-03 0. -1.
        -11    1    3    3    0    0 -0.26646253129E+02 -0.15875200660E+02 -0.23366252733E+02  0.38833317767E+02  0.51100000000E-03 0.  1.
         12    1    3    3    0    0  0.25817351377E+02  0.14190438307E+02  0.31169187966E+02  0.42888488548E+02  0.00000000000E+00 0. -1.
</event>
<event>
 7    1  0.2593256E-015  0.9000772E+02  0.7816164E-02  0.1186339E+00
        -11   -1    0    0    0    0  0.00000000000E+00  0.00000000000E+00  0.45593999997E+02  0.45594000000E+02  0.51100000000E-03 0.  1.
         11   -1    0    0    0    0 -0.00000000000E+00 -0.00000000000E+00 -0.45593999997E+02  0.45594000000E+02  0.51100000000E-03 0. -1.
    9900012    2    1    2    0    0  0.99938306245E+00 -0.48668790362E+00  0.39678696338E+00  0.90007715494E+02  0.89999976538E+02 0.  0.
        -12    1    1    2    0    0 -0.99938306245E+00  0.48668790362E+00 -0.39678696338E+00  0.11802845061E+01  0.00000000000E+00 0.  1.
         11    1    3    3    0    0 -0.95717125411E+01  0.14449946391E+00  0.21231706375E+01  0.98054278276E+01  0.51100000000E-03 0. -1.
        -11    1    3    3    0    0  0.18200760004E+02  0.24237963572E+02  0.27605096490E+02  0.40997413276E+02  0.51100000000E-03 0.  1.
         12    1    3    3    0    0 -0.76296644007E+01 -0.24869150940E+02 -0.29331480164E+02  0.39204874390E+02  0.00000000000E+00 0. -1.
</event>
<event>
 7    1  0.2593256E-015  0.9000770E+02  0.7816164E-02  0.1186339E+00
        -11   -1    0    0    0    0  0.00000000000E+00  0.00000000000E+00  0.45593999997E+02  0.45594000000E+02  0.51100000000E-03 0. -1.
         11   -1    0    0    0    0 -0.00000000000E+00 -0.00000000000E+00 -0.45593999997E+02  0.45594000000E+02  0.51100000000E-03 0.  1.
    9900012    2    1    2    0    0  0.21684791132E+00  0.99898388871E+00  0.59000690330E+00  0.90007703439E+02  0.89999964324E+02 0.  0.
        -12    1    1    2    0    0 -0.21684791132E+00 -0.99898388871E+00 -0.59000690330E+00  0.11802965612E+01  0.00000000000E+00 0.  1.
         11    1    3    3    0    0 -0.42147233488E+02 -0.57389480251E+01  0.76657980100E+01  0.43221398341E+02  0.51100000000E-03 0. -1.
        -11    1    3    3    0    0  0.60769476287E+01 -0.32825953159E+01 -0.59626410147E+01  0.91245719144E+01  0.51100000000E-03 0.  1.
        -12    1    3    3    0    0  0.36287133771E+02  0.10020527230E+02 -0.11131500919E+01  0.37661733184E+02  0.00000000000E+00 0.  1.
</event>
<event>
 7    1  0.2593256E-015  0.9000806E+02  0.7816164E-02  0.1186338E+00
        -11   -1    0    0    0    0  0.00000000000E+00  0.00000000000E+00  0.45593999997E+02  0.45594000000E+02  0.51100000000E-03 0. -1.
         11   -1    0    0    0    0 -0.00000000000E+00 -0.00000000000E+00 -0.45593999997E+02  0.45594000000E+02  0.51100000000E-03 0.  1.
    9900012    2    1    2    0    0  0.69943430014E+00 -0.70681649644E+00  0.63519452187E+00  0.90008055094E+02  0.90000320621E+02 0.  0.
        -12    1    1    2    0    0 -0.69943430014E+00  0.70681649644E+00 -0.63519452187E+00  0.11799449057E+01  0.00000000000E+00 0.  1.
         11    1    3    3    0    0 -0.74129623333E+01 -0.29736866745E+02 -0.26159845425E+02  0.40293557392E+02  0.51100000000E-03 0. -1.
        -11    1    3    3    0    0  0.95388176699E+01  0.59462459926E+00 -0.13830409775E+01  0.96568847751E+01  0.51100000000E-03 0.  1.
        -12    1    3    3    0    0 -0.14264210364E+01  0.28435425650E+02  0.28178080924E+02  0.40057612927E+02  0.00000000000E+00 0.  1.
</event>
<event>
 7    1  0.2593256E-015  0.9000772E+02  0.7816164E-02  0.1186339E+00
        -11   -1    0    0    0    0  0.00000000000E+00  0.00000000000E+00  0.45593999997E+02  0.45594000000E+02  0.51100000000E-03 0.  1.
         11   -1    0    0    0    0 -0.00000000000E+00 -0.00000000000E+00 -0.45593999997E+02  0.45594000000E+02  0.51100000000E-03 0. -1.
    9900012    2    1    2    0    0  0.20087258960E+00  0.78735166380E+00 -0.85603117357E+00  0.90007719605E+02  0.89999980704E+02 0.  0.
        -12    1    1    2    0    0 -0.20087258960E+00 -0.78735166380E+00  0.85603117357E+00  0.11802803946E+01  0.00000000000E+00 0.  1.
         11    1    3    3    0    0 -0.27418062657E+01  0.15850009364E+02 -0.11229175547E+02  0.19617203730E+02  0.51100000000E-03 0. -1.
        -11    1    3    3    0    0 -0.18711066567E+02  0.19747102493E+02  0.11119138202E+02  0.29388557357E+02  0.51100000000E-03 0.  1.
        -12    1    3    3    0    0  0.21653745422E+02 -0.34809760194E+02 -0.74599382844E+00  0.41001958518E+02  0.00000000000E+00 0.  1.
</event>
<event>
 7    1  0.2593256E-015  0.9000775E+02  0.7816164E-02  0.1186339E+00
        -11   -1    0    0    0    0  0.00000000000E+00  0.00000000000E+00  0.45593999997E+02  0.45594000000E+02  0.51100000000E-03 0.  1.
         11   -1    0    0    0    0 -0.00000000000E+00 -0.00000000000E+00 -0.45593999997E+02  0.45594000000E+02  0.51100000000E-03 0. -1.
    9900012    2    1    2    0    0 -0.25210256927E-02  0.73647830967E+00 -0.92227585950E+00  0.90007746037E+02  0.90000007485E+02 0.  0.
        -12    1    1    2    0    0  0.25210256927E-02 -0.73647830967E+00  0.92227585950E+00  0.11802539630E+01  0.00000000000E+00 0.  1.
         11    1    3    3    0    0 -0.73590158384E+01  0.81757782605E+01 -0.24025060751E+01  0.11259240648E+02  0.51100000000E-03 0. -1.
        -11    1    3    3    0    0  0.84855464876E+01  0.32162635376E+02 -0.14164380371E+02  0.36153413187E+02  0.51100000000E-03 0.  1.
         12    1    3    3    0    0 -0.11290516749E+01 -0.39601935326E+02  0.15644610586E+02  0.42595092202E+02  0.00000000000E+00 0. -1.
</event>
<event>
 7    1  0.2593256E-015  0.9000779E+02  0.7816164E-02  0.1186339E+00
        -11   -1    0    0    0    0  0.00000000000E+00  0.00000000000E+00  0.45593999997E+02  0.45594000000E+02  0.51100000000E-03 0.  1.
         11   -1    0    0    0    0 -0.00000000000E+00 -0.00000000000E+00 -0.45593999997E+02  0.45594000000E+02  0.51100000000E-03 0. -1.
    9900012    2    1    2    0    0  0.68104031026E+00  0.95861312091E+00  0.10075130607E+00  0.90007785678E+02  0.90000047649E+02 0.  0.
        -12    1    1    2    0    0 -0.68104031026E+00 -0.95861312091E+00 -0.10075130607E+00  0.11802143218E+01  0.00000000000E+00 0.  1.
         11    1    3    3    0    0  0.33941934189E+02 -0.18926175779E+02  0.26192904545E+01  0.38950169562E+02  0.51100000000E-03 0. -1.
        -11    1    3    3    0    0 -0.17768515544E+02  0.73684874932E+01  0.15109381500E+02  0.24460338554E+02  0.51100000000E-03 0.  1.
        -12    1    3    3    0    0 -0.15492378335E+02  0.12516301407E+02 -0.17627920649E+02  0.26597277563E+02  0.00000000000E+00 0.  1.
</event>
<event>
 7    1  0.4015135E-015  0.9000776E+02  0.7816164E-02  0.1186339E+00
        -11   -1    0    0    0    0  0.00000000000E+00  0.00000000000E+00  0.45593999997E+02  0.45594000000E+02  0.51100000000E-03 0. -1.
         11   -1    0    0    0    0 -0.00000000000E+00 -0.00000000000E+00 -0.45593999997E+02  0.45594000000E+02  0.51100000000E-03 0.  1.
    9900012    2    1    2    0    0  0.25038460967E+00  0.35933577938E+00  0.10959755284E+01  0.90007755528E+02  0.90000017101E+02 0.  0.
        -12    1    1    2    0    0 -0.25038460967E+00 -0.35933577938E+00 -0.10959755284E+01  0.11802444721E+01  0.00000000000E+00 0.  1.
         11    1    3    3    0    0 -0.45415573449E+01 -0.21496981053E+02  0.35337171664E+02  0.41610835596E+02  0.51100000000E-03 0. -1.
        -11    1    3    3    0    0 -0.65142968173E+01 -0.27722236609E+01 -0.63866435130E+01  0.95346999257E+01  0.51100000000E-03 0.  1.
        -12    1    3    3    0    0  0.11306238772E+02  0.24628540493E+02 -0.27854552623E+02  0.38862220006E+02  0.00000000000E+00 0.  1.
</event>
<event>
 7    1  0.2593256E-015  0.9000774E+02  0.7816164E-02  0.1186339E+00
        -11   -1    0    0    0    0  0.00000000000E+00  0.00000000000E+00  0.45593999997E+02  0.45594000000E+02  0.51100000000E-03 0.  1.
         11   -1    0    0    0    0 -0.00000000000E+00 -0.00000000000E+00 -0.45593999997E+02  0.45594000000E+02  0.51100000000E-03 0. -1.
    9900012    2    1    2    0    0 -0.10293433303E+01 -0.86470613492E-01 -0.57095539000E+00  0.90007739471E+02  0.90000000832E+02 0.  0.
        -12    1    1    2    0    0  0.10293433303E+01  0.86470613492E-01  0.57095539000E+00  0.11802605289E+01  0.00000000000E+00 0.  1.
         11    1    3    3    0    0  0.47390828190E+01  0.13743713565E+02  0.12775246521E+02  0.19353436193E+02  0.51100000000E-03 0. -1.
        -11    1    3    3    0    0  0.27682309165E+01  0.42563635722E+01  0.26013695140E+02  0.26504566934E+02  0.51100000000E-03 0.  1.
         12    1    3    3    0    0 -0.85366570658E+01 -0.18086547751E+02 -0.39359897051E+02  0.44149736344E+02  0.00000000000E+00 0. -1.
</event>
<event>
 7    1  0.2593256E-015  0.9000779E+02  0.7816164E-02  0.1186339E+00
        -11   -1    0    0    0    0  0.00000000000E+00  0.00000000000E+00  0.45593999997E+02  0.45594000000E+02  0.51100000000E-03 0. -1.
         11   -1    0    0    0    0 -0.00000000000E+00 -0.00000000000E+00 -0.45593999997E+02  0.45594000000E+02  0.51100000000E-03 0.  1.
    9900012    2    1    2    0    0  0.71173746510E+00  0.16163022958E+00 -0.92747538711E+00  0.90007785975E+02  0.90000047950E+02 0.  0.
        -12    1    1    2    0    0 -0.71173746510E+00 -0.16163022958E+00  0.92747538711E+00  0.11802140247E+01  0.00000000000E+00 0.  1.
         11    1    3    3    0    0  0.55243359499E+01 -0.70225812392E+01  0.23423164937E+01  0.92369573868E+01  0.51100000000E-03 0. -1.
        -11    1    3    3    0    0  0.29226716745E+02  0.15269888125E+02 -0.23374218685E+02  0.40419358659E+02  0.51100000000E-03 0.  1.
         12    1    3    3    0    0 -0.34039315230E+02 -0.80856766563E+01  0.20104426804E+02  0.40351469929E+02  0.00000000000E+00 0. -1.
</event>
<event>
 7    1  0.2593256E-015  0.9000774E+02  0.7816164E-02  0.1186339E+00
        -11   -1    0    0    0    0  0.00000000000E+00  0.00000000000E+00  0.45593999997E+02  0.45594000000E+02  0.51100000000E-03 0. -1.
         11   -1    0    0    0    0 -0.00000000000E+00 -0.00000000000E+00 -0.45593999997E+02  0.45594000000E+02  0.51100000000E-03 0.  1.
    9900012    2    1    2    0    0 -0.11074909746E+01  0.31803963594E+00 -0.25561133563E+00  0.90007736206E+02  0.89999997524E+02 0.  0.
        -12    1    1    2    0    0  0.11074909746E+01 -0.31803963594E+00  0.25561133563E+00  0.11802637941E+01  0.00000000000E+00 0.  1.
         11    1    3    3    0    0 -0.13886010065E+01 -0.91561423219E+01 -0.44932661345E+01  0.10293327732E+02  0.51100000000E-03 0. -1.
        -11    1    3    3    0    0  0.20992152234E+02  0.26481863617E+02 -0.23487902477E+02  0.41153871253E+02  0.51100000000E-03 0.  1.
         12    1    3    3    0    0 -0.20711042202E+02 -0.17007681659E+02  0.27725557276E+02  0.38560537221E+02  0.00000000000E+00 0. -1.
</event>
<event>
 7    1  0.2593256E-015  0.9000779E+02  0.7816164E-02  0.1186339E+00
        -11   -1    0    0    0    0  0.00000000000E+00  0.00000000000E+00  0.45593999997E+02  0.45594000000E+02  0.51100000000E-03 0.  1.
         11   -1    0    0    0    0 -0.00000000000E+00 -0.00000000000E+00 -0.45593999997E+02  0.45594000000E+02  0.51100000000E-03 0. -1.
    9900012    2    1    2    0    0  0.10243102637E+01  0.55930023026E+00 -0.17569683287E+00  0.90007789154E+02  0.90000051171E+02 0.  0.
        -12    1    1    2    0    0 -0.10243102637E+01 -0.55930023026E+00  0.17569683287E+00  0.11802108460E+01  0.00000000000E+00 0.  1.
         11    1    3    3    0    0  0.38823816992E+01 -0.35675310599E+01  0.86708406138E+01  0.10148085668E+02  0.51100000000E-03 0. -1.
        -11    1    3    3    0    0  0.34924947949E+02 -0.31298007789E+01  0.10759528987E+02  0.36678537408E+02  0.51100000000E-03 0.  1.
         12    1    3    3    0    0 -0.37783019384E+02  0.72566320691E+01 -0.19606066434E+02  0.43181166077E+02  0.00000000000E+00 0. -1.
</event>
<event>
 7    1  0.2593256E-015  0.9000776E+02  0.7816164E-02  0.1186339E+00
        -11   -1    0    0    0    0  0.00000000000E+00  0.00000000000E+00  0.45593999997E+02  0.45594000000E+02  0.51100000000E-03 0.  1.
         11   -1    0    0    0    0 -0.00000000000E+00 -0.00000000000E+00 -0.45593999997E+02  0.45594000000E+02  0.51100000000E-03 0. -1.
    9900012    2    1    2    0    0  0.10491052987E+01  0.49354157481E+00 -0.22081858343E+00  0.90007760168E+02  0.90000021802E+02 0.  0.
        -12    1    1    2    0    0 -0.10491052987E+01 -0.49354157481E+00  0.22081858343E+00  0.11802398318E+01  0.00000000000E+00 0.  1.
         11    1    3    3    0    0  0.28623055212E+01 -0.38050412910E+01 -0.54972109113E+01  0.72725827728E+01  0.51100000000E-03 0. -1.
        -11    1    3    3    0    0  0.56977357922E+00  0.24467679821E+02  0.37420053158E+02  0.44713000082E+02  0.51100000000E-03 0.  1.
         12    1    3    3    0    0 -0.23829738018E+01 -0.20169096955E+02 -0.32143660830E+02  0.38022177313E+02  0.00000000000E+00 0. -1.
</event>
<event>
 7    1  0.2593256E-015  0.9000774E+02  0.7816164E-02  0.1186339E+00
        -11   -1    0    0    0    0  0.00000000000E+00  0.00000000000E+00  0.45593999997E+02  0.45594000000E+02  0.51100000000E-03 0.  1.
         11   -1    0    0    0    0 -0.00000000000E+00 -0.00000000000E+00 -0.45593999997E+02  0.45594000000E+02  0.51100000000E-03 0. -1.
    9900012    2    1    2    0    0 -0.74501856093E+00 -0.57276541369E+00  0.71407008236E+00  0.90007741995E+02  0.90000003390E+02 0.  0.
        -12    1    1    2    0    0  0.74501856093E+00  0.57276541369E+00 -0.71407008236E+00  0.11802580048E+01  0.00000000000E+00 0.  1.
         11    1    3    3    0    0  0.47218992215E+01 -0.19404637483E+01  0.67523894800E+01  0.84650159933E+01  0.51100000000E-03 0. -1.
        -11    1    3    3    0    0 -0.29134199921E+02 -0.30141869207E+01  0.27556713603E+02  0.40215163716E+02  0.51100000000E-03 0.  1.
         12    1    3    3    0    0  0.23667282138E+02  0.43818852554E+01 -0.33595033001E+02  0.41327562286E+02  0.00000000000E+00 0. -1.
</event>
<event>
 7    1  0.2593256E-015  0.9000775E+02  0.7816164E-02  0.1186339E+00
        -11   -1    0    0    0    0  0.00000000000E+00  0.00000000000E+00  0.45593999997E+02  0.45594000000E+02  0.51100000000E-03 0. -1.
         11   -1    0    0    0    0 -0.00000000000E+00 -0.00000000000E+00 -0.45593999997E+02  0.45594000000E+02  0.51100000000E-03 0.  1.
    9900012    2    1    2    0    0 -0.12704687840E+00 -0.51422718606E+00  0.10547074997E+01  0.90007754933E+02  0.90000016498E+02 0.  0.
        -12    1    1    2    0    0  0.12704687840E+00  0.51422718606E+00 -0.10547074997E+01  0.11802450670E+01  0.00000000000E+00 0.  1.
         11    1    3    3    0    0  0.21463120289E+02 -0.37047594381E+02 -0.28963218759E+01  0.42913616284E+02  0.51100000000E-03 0. -1.
        -11    1    3    3    0    0  0.31151327608E+01  0.93690974689E+01 -0.14541801991E+01  0.99799138178E+01  0.51100000000E-03 0.  1.
        -12    1    3    3    0    0 -0.24705299928E+02  0.27164269726E+02  0.54052095746E+01  0.37114224831E+02  0.00000000000E+00 0.  1.
</event>
<event>
 7    1  0.3032514E-015  0.9000777E+02  0.7816164E-02  0.1186339E+00
        -11   -1    0    0    0    0  0.00000000000E+00  0.00000000000E+00  0.45593999997E+02  0.45594000000E+02  0.51100000000E-03 0. -1.
         11   -1    0    0    0    0 -0.00000000000E+00 -0.00000000000E+00 -0.45593999997E+02  0.45594000000E+02  0.51100000000E-03 0.  1.
    9900012    2    1    2    0    0  0.10841278562E+01  0.29263421580E+00  0.36329375153E+00  0.90007766827E+02  0.90000028549E+02 0.  0.
        -12    1    1    2    0    0 -0.10841278562E+01 -0.29263421580E+00 -0.36329375153E+00  0.11802331730E+01  0.00000000000E+00 0.  1.
         11    1    3    3    0    0  0.35676478133E+02  0.12144080727E+02  0.99963624608E+01  0.38989960905E+02  0.51100000000E-03 0. -1.
        -11    1    3    3    0    0  0.29478834793E+01 -0.53443560096E+01  0.71365150254E+01  0.93905274151E+01  0.51100000000E-03 0.  1.
        -12    1    3    3    0    0 -0.37540233756E+02 -0.65070905015E+01 -0.16769583735E+02  0.41627278507E+02  0.00000000000E+00 0.  1.
</event>
<event>
 7    1  0.2593256E-015  0.9000774E+02  0.7816164E-02  0.1186339E+00
        -11   -1    0    0    0    0  0.00000000000E+00  0.00000000000E+00  0.45593999997E+02  0.45594000000E+02  0.51100000000E-03 0. -1.
         11   -1    0    0    0    0 -0.00000000000E+00 -0.00000000000E+00 -0.45593999997E+02  0.45594000000E+02  0.51100000000E-03 0.  1.
    9900012    2    1    2    0    0 -0.51263279544E+00 -0.43076064048E+00  0.97193365979E+00  0.90007744879E+02  0.90000006311E+02 0.  0.
        -12    1    1    2    0    0  0.51263279544E+00  0.43076064048E+00 -0.97193365979E+00  0.11802551213E+01  0.00000000000E+00 0.  1.
         11    1    3    3    0    0 -0.40301412709E+02 -0.81517552990E+01  0.47202693577E+01  0.41387630082E+02  0.51100000000E-03 0. -1.
        -11    1    3    3    0    0  0.31749550000E+01 -0.36875810058E+01 -0.86833212259E+01  0.99538264351E+01  0.51100000000E-03 0.  1.
        -12    1    3    3    0    0  0.36613824913E+02  0.11408575664E+02  0.49349855280E+01  0.38666288361E+02  0.00000000000E+00 0.  1.
</event>
<event>
 7    1  0.2593256E-015  0.9000771E+02  0.7816164E-02  0.1186339E+00
        -11   -1    0    0    0    0  0.00000000000E+00  0.00000000000E+00  0.45593999997E+02  0.45594000000E+02  0.51100000000E-03 0.  1.
         11   -1    0    0    0    0 -0.00000000000E+00 -0.00000000000E+00 -0.45593999997E+02  0.45594000000E+02  0.51100000000E-03 0. -1.
    9900012    2    1    2    0    0  0.91822901982E+00  0.52461851975E+00  0.52413060337E+00  0.90007711047E+02  0.89999972032E+02 0.  0.
        -12    1    1    2    0    0 -0.91822901982E+00 -0.52461851975E+00 -0.52413060337E+00  0.11802889534E+01  0.00000000000E+00 0.  1.
         11    1    3    3    0    0  0.33203539938E+02  0.11486213768E+02  0.26277336069E+02  0.43873757102E+02  0.51100000000E-03 0. -1.
        -11    1    3    3    0    0 -0.43457279447E+01  0.38021683898E+01 -0.80676823545E+01  0.99211559139E+01  0.51100000000E-03 0.  1.
        -12    1    3    3    0    0 -0.27939582974E+02 -0.14763763638E+02 -0.17685523111E+02  0.36212798030E+02  0.00000000000E+00 0.  1.
</event>
<event>
 7    1  0.2593256E-015  0.9000747E+02  0.7816164E-02  0.1186340E+00
        -11   -1    0    0    0    0  0.00000000000E+00  0.00000000000E+00  0.45593999997E+02  0.45594000000E+02  0.51100000000E-03 0. -1.
         11   -1    0    0    0    0 -0.00000000000E+00 -0.00000000000E+00 -0.45593999997E+02  0.45594000000E+02  0.51100000000E-03 0.  1.
    9900012    2    1    2    0    0  0.66074458232E+00  0.57953056951E+00  0.78817556461E+00  0.90007466305E+02  0.89999724060E+02 0.  0.
        -12    1    1    2    0    0 -0.66074458232E+00 -0.57953056951E+00 -0.78817556461E+00  0.11805336949E+01  0.00000000000E+00 0.  1.
         11    1    3    3    0    0  0.26728409296E+01 -0.33958359192E+02  0.98679245453E+00  0.34077675936E+02  0.51100000000E-03 0. -1.
        -11    1    3    3    0    0  0.27901558882E+01 -0.50868903816E+01  0.12716585400E+02  0.13977588066E+02  0.51100000000E-03 0.  1.
        -12    1    3    3    0    0 -0.48022522355E+01  0.39624780143E+02 -0.12915202290E+02  0.41952202303E+02  0.00000000000E+00 0.  1.
</event>
<event>
 7    1  0.2642977E-015  0.9000781E+02  0.7816164E-02  0.1186339E+00
        -11   -1    0    0    0    0  0.00000000000E+00  0.00000000000E+00  0.45593999997E+02  0.45594000000E+02  0.51100000000E-03 0.  1.
         11   -1    0    0    0    0 -0.00000000000E+00 -0.00000000000E+00 -0.45593999997E+02  0.45594000000E+02  0.51100000000E-03 0. -1.
    9900012    2    1    2    0    0 -0.70835347077E-01  0.10806087961E+01  0.46916057147E+00  0.90007811600E+02  0.90000073914E+02 0.  0.
        -12    1    1    2    0    0  0.70835347077E-01 -0.10806087961E+01 -0.46916057147E+00  0.11801883996E+01  0.00000000000E+00 0.  1.
         11    1    3    3    0    0  0.29042591057E+02 -0.14114186126E+02 -0.18474542242E+02  0.37202030275E+02  0.51100000000E-03 0. -1.
        -11    1    3    3    0    0 -0.24336812922E+01 -0.53547170031E+01 -0.78232046820E+01  0.97876621607E+01  0.51100000000E-03 0.  1.
        -12    1    3    3    0    0 -0.26679745112E+02  0.20549511925E+02  0.26766907495E+02  0.43018119164E+02  0.00000000000E+00 0.  1.
</event>
<event>
 7    1  0.2593256E-015  0.9000776E+02  0.7816164E-02  0.1186339E+00
        -11   -1    0    0    0    0  0.00000000000E+00  0.00000000000E+00  0.45593999997E+02  0.45594000000E+02  0.51100000000E-03 0.  1.
         11   -1    0    0    0    0 -0.00000000000E+00 -0.00000000000E+00 -0.45593999997E+02  0.45594000000E+02  0.51100000000E-03 0. -1.
    9900012    2    1    2    0    0  0.63244352414E+00  0.15969840137E+00  0.98361032334E+00  0.90007755255E+02  0.90000016824E+02 0.  0.
        -12    1    1    2    0    0 -0.63244352414E+00 -0.15969840137E+00 -0.98361032334E+00  0.11802447453E+01  0.00000000000E+00 0.  1.
         11    1    3    3    0    0 -0.75249327950E+01 -0.65107177535E+01 -0.20484435305E+01  0.10159241133E+02  0.51100000000E-03 0. -1.
        -11    1    3    3    0    0 -0.30004481970E+01  0.32663598966E+02  0.27224517283E+02  0.42627312000E+02  0.51100000000E-03 0.  1.
         12    1    3    3    0    0  0.11157824516E+02 -0.25993182811E+02 -0.24192463429E+02  0.37221202122E+02  0.00000000000E+00 0. -1.
</event>
<event>
 7    1  0.2593256E-015  0.9000748E+02  0.7816164E-02  0.1186340E+00
        -11   -1    0    0    0    0  0.00000000000E+00  0.00000000000E+00  0.45593999997E+02  0.45594000000E+02  0.51100000000E-03 0.  1.
         11   -1    0    0    0    0 -0.00000000000E+00 -0.00000000000E+00 -0.45593999997E+02  0.45594000000E+02  0.51100000000E-03 0. -1.
    9900012    2    1    2    0    0  0.90973360045E+00 -0.53552101301E+00 -0.52842902721E+00  0.90007476719E+02  0.89999734612E+02 0.  0.
        -12    1    1    2    0    0 -0.90973360045E+00  0.53552101301E+00  0.52842902721E+00  0.11805232806E+01  0.00000000000E+00 0.  1.
         11    1    3    3    0    0 -0.65237487180E+01  0.11418922947E+02 -0.17536183598E+02  0.21919599313E+02  0.51100000000E-03 0. -1.
        -11    1    3    3    0    0 -0.23353893998E+02  0.11917928395E+02  0.11910127947E+02  0.28797439645E+02  0.51100000000E-03 0.  1.
         12    1    3    3    0    0  0.30787376316E+02 -0.23872372355E+02  0.50976266233E+01  0.39290437762E+02  0.00000000000E+00 0. -1.
</event>
<event>
 7    1  0.2593256E-015  0.9000775E+02  0.7816164E-02  0.1186339E+00
        -11   -1    0    0    0    0  0.00000000000E+00  0.00000000000E+00  0.45593999997E+02  0.45594000000E+02  0.51100000000E-03 0.  1.
         11   -1    0    0    0    0 -0.00000000000E+00 -0.00000000000E+00 -0.45593999997E+02  0.45594000000E+02  0.51100000000E-03 0. -1.
    9900012    2    1    2    0    0 -0.36101080733E+00  0.65909955923E+00 -0.91008318637E+00  0.90007748994E+02  0.90000010480E+02 0.  0.
        -12    1    1    2    0    0  0.36101080733E+00 -0.65909955923E+00  0.91008318637E+00  0.11802510064E+01  0.00000000000E+00 0.  1.
         11    1    3    3    0    0 -0.44453567298E+00  0.32611654510E+02 -0.21852595761E+02  0.39258802371E+02  0.51100000000E-03 0. -1.
        -11    1    3    3    0    0  0.81985801424E+00 -0.15247749768E+01 -0.83372623286E+01  0.85151071215E+01  0.51100000000E-03 0.  1.
        -12    1    3    3    0    0 -0.73633314859E+00 -0.30427779974E+02  0.29279774903E+02  0.42233839501E+02  0.00000000000E+00 0.  1.
</event>
<event>
 7    1  0.4430292E-015  0.9000774E+02  0.7816164E-02  0.1186339E+00
        -11   -1    0    0    0    0  0.00000000000E+00  0.00000000000E+00  0.45593999997E+02  0.45594000000E+02  0.51100000000E-03 0. -1.
         11   -1    0    0    0    0 -0.00000000000E+00 -0.00000000000E+00 -0.45593999997E+02  0.45594000000E+02  0.51100000000E-03 0.  1.
    9900012    2    1    2    0    0  0.16713039461E+00 -0.80405696364E-01  0.11655928785E+01  0.90007743925E+02  0.90000005345E+02 0.  0.
        -12    1    1    2    0    0 -0.16713039461E+00  0.80405696364E-01 -0.11655928785E+01  0.11802560752E+01  0.00000000000E+00 0.  1.
         11    1    3    3    0    0  0.23747849779E+01 -0.51048029619E+01  0.36400580404E+02  0.36833420571E+02  0.51100000000E-03 0. -1.
        -11    1    3    3    0    0  0.39387193737E+01 -0.60075876431E+01  0.64278327442E+01  0.96395878357E+01  0.51100000000E-03 0.  1.
        -12    1    3    3    0    0 -0.61463739570E+01  0.11031984909E+02 -0.41662820269E+02  0.43534735518E+02  0.00000000000E+00 0.  1.
</event>
<event>
 7    1  0.2593256E-015  0.9000786E+02  0.7816164E-02  0.1186339E+00
        -11   -1    0    0    0    0  0.00000000000E+00  0.00000000000E+00  0.45593999997E+02  0.45594000000E+02  0.51100000000E-03 0.  1.
         11   -1    0    0    0    0 -0.00000000000E+00 -0.00000000000E+00 -0.45593999997E+02  0.45594000000E+02  0.51100000000E-03 0. -1.
    9900012    2    1    2    0    0 -0.78024217276E+00 -0.21389921416E+00 -0.85917923606E+00  0.90007864549E+02  0.90000127561E+02 0.  0.
        -12    1    1    2    0    0  0.78024217276E+00  0.21389921416E+00  0.85917923606E+00  0.11801354506E+01  0.00000000000E+00 0.  1.
         11    1    3    3    0    0 -0.50289447024E+01  0.82542391611E+01  0.35932858069E+00  0.96722213704E+01  0.51100000000E-03 0. -1.
        -11    1    3    3    0    0  0.29825341259E+02  0.24479137303E+02  0.54975581692E+00  0.38588617182E+02  0.51100000000E-03 0.  1.
         12    1    3    3    0    0 -0.25576638730E+02 -0.32947275678E+02 -0.17682636337E+01  0.41747025997E+02  0.00000000000E+00 0. -1.
</event>
<event>
 7    1  0.2593256E-015  0.9000782E+02  0.7816164E-02  0.1186339E+00
        -11   -1    0    0    0    0  0.00000000000E+00  0.00000000000E+00  0.45593999997E+02  0.45594000000E+02  0.51100000000E-03 0.  1.
         11   -1    0    0    0    0 -0.00000000000E+00 -0.00000000000E+00 -0.45593999997E+02  0.45594000000E+02  0.51100000000E-03 0. -1.
    9900012    2    1    2    0    0 -0.27375042305E+00  0.44972354856E+00 -0.10562339710E+01  0.90007821723E+02  0.90000084170E+02 0.  0.
        -12    1    1    2    0    0  0.27375042305E+00 -0.44972354856E+00  0.10562339710E+01  0.11801782771E+01  0.00000000000E+00 0.  1.
         11    1    3    3    0    0 -0.56886435638E+01 -0.17113034878E+01 -0.65255822252E+01  0.88245367506E+01  0.51100000000E-03 0. -1.
        -11    1    3    3    0    0 -0.33642325983E+02 -0.62741974761E+01  0.18817867696E+02  0.39054881851E+02  0.51100000000E-03 0.  1.
         12    1    3    3    0    0  0.39057219124E+02  0.84352245124E+01 -0.13348519442E+02  0.42128403121E+02  0.00000000000E+00 0. -1.
</event>
<event>
 7    1  0.2593256E-015  0.9000766E+02  0.7816164E-02  0.1186339E+00
        -11   -1    0    0    0    0  0.00000000000E+00  0.00000000000E+00  0.45593999997E+02  0.45594000000E+02  0.51100000000E-03 0. -1.
         11   -1    0    0    0    0 -0.00000000000E+00 -0.00000000000E+00 -0.45593999997E+02  0.45594000000E+02  0.51100000000E-03 0.  1.
    9900012    2    1    2    0    0  0.94003978152E+00  0.48378017245E+00  0.52485905008E+00  0.90007663155E+02  0.89999923508E+02 0.  0.
        -12    1    1    2    0    0 -0.94003978152E+00 -0.48378017245E+00 -0.52485905008E+00  0.11803368454E+01  0.00000000000E+00 0.  1.
         11    1    3    3    0    0 -0.68465239596E+01 -0.93304316162E+01  0.16044740409E+01  0.11683585994E+02  0.51100000000E-03 0. -1.
        -11    1    3    3    0    0 -0.39213090650E+01 -0.33066385507E+02 -0.51249927157E+01  0.33690177588E+02  0.51100000000E-03 0.  1.
         12    1    3    3    0    0  0.11707872806E+02  0.42880597296E+02  0.40453777249E+01  0.44633899573E+02  0.00000000000E+00 0. -1.
</event>
<event>
 7    1  0.2593256E-015  0.9000781E+02  0.7816164E-02  0.1186339E+00
        -11   -1    0    0    0    0  0.00000000000E+00  0.00000000000E+00  0.45593999997E+02  0.45594000000E+02  0.51100000000E-03 0. -1.
         11   -1    0    0    0    0 -0.00000000000E+00 -0.00000000000E+00 -0.45593999997E+02  0.45594000000E+02  0.51100000000E-03 0.  1.
    9900012    2    1    2    0    0  0.89199048246E+00  0.75181349915E+00  0.17885496852E+00  0.90007805246E+02  0.90000067475E+02 0.  0.
        -12    1    1    2    0    0 -0.89199048246E+00 -0.75181349915E+00 -0.17885496852E+00  0.11801947543E+01  0.00000000000E+00 0.  1.
         11    1    3    3    0    0 -0.25787204097E+01 -0.43136011951E+01  0.70773285696E+01  0.86801805376E+01  0.51100000000E-03 0. -1.
        -11    1    3    3    0    0  0.40705580189E+02 -0.50176499769E+01  0.40901374027E+01  0.41217111666E+02  0.51100000000E-03 0.  1.
         12    1    3    3    0    0 -0.37234869297E+02  0.10083064671E+02 -0.10988611004E+02  0.40110513042E+02  0.00000000000E+00 0. -1.
</event>
<event>
 7    1  0.2593256E-015  0.9000749E+02  0.7816164E-02  0.1186340E+00
        -11   -1    0    0    0    0  0.00000000000E+00  0.00000000000E+00  0.45593999997E+02  0.45594000000E+02  0.51100000000E-03 0. -1.
         11   -1    0    0    0    0 -0.00000000000E+00 -0.00000000000E+00 -0.45593999997E+02  0.45594000000E+02  0.51100000000E-03 0.  1.
    9900012    2    1    2    0    0  0.34596181817E+00  0.81181674339E+00  0.78413788205E+00  0.90007488152E+02  0.89999746196E+02 0.  0.
        -12    1    1    2    0    0 -0.34596181817E+00 -0.81181674339E+00 -0.78413788205E+00  0.11805118477E+01  0.00000000000E+00 0.  1.
         11    1    3    3    0    0  0.25836821395E+02 -0.31794209451E+02  0.34909249533E+01  0.41116902263E+02  0.51100000000E-03 0. -1.
        -11    1    3    3    0    0 -0.16665451295E+01 -0.11655441878E+01  0.62751540080E+01  0.65964705720E+01  0.51100000000E-03 0.  1.
        -12    1    3    3    0    0 -0.23824314447E+02  0.33771570382E+02 -0.89819410793E+01  0.42294115318E+02  0.00000000000E+00 0.  1.
</event>
<event>
 7    1  0.2593256E-015  0.9000777E+02  0.7816164E-02  0.1186339E+00
        -11   -1    0    0    0    0  0.00000000000E+00  0.00000000000E+00  0.45593999997E+02  0.45594000000E+02  0.51100000000E-03 0.  1.
         11   -1    0    0    0    0 -0.00000000000E+00 -0.00000000000E+00 -0.45593999997E+02  0.45594000000E+02  0.51100000000E-03 0. -1.
    9900012    2    1    2    0    0  0.10331399750E+01 -0.13958483998E+00 -0.55325156054E+00  0.90007767216E+02  0.90000028943E+02 0.  0.
        -12    1    1    2    0    0 -0.10331399750E+01  0.13958483998E+00  0.55325156054E+00  0.11802327842E+01  0.00000000000E+00 0.  1.
         11    1    3    3    0    0  0.25184132923E+02  0.26967025289E+02 -0.17311328651E+02  0.40757123352E+02  0.51100000000E-03 0. -1.
        -11    1    3    3    0    0  0.27709440831E+01 -0.61124522910E+01 -0.53454625648E+01  0.85798703029E+01  0.51100000000E-03 0.  1.
        -12    1    3    3    0    0 -0.26921937031E+02 -0.20994157838E+02  0.22103539655E+02  0.40670773561E+02  0.00000000000E+00 0.  1.
</event>
<event>
 7    1  0.2593256E-015  0.9000790E+02  0.7816164E-02  0.1186339E+00
        -11   -1    0    0    0    0  0.00000000000E+00  0.00000000000E+00  0.45593999997E+02  0.45594000000E+02  0.51100000000E-03 0.  1.
         11   -1    0    0    0    0 -0.00000000000E+00 -0.00000000000E+00 -0.45593999997E+02  0.45594000000E+02  0.51100000000E-03 0. -1.
    9900012    2    1    2    0    0 -0.54808824677E+00  0.41720366445E+00 -0.95822065324E+00  0.90007895579E+02  0.90000159001E+02 0.  0.
        -12    1    1    2    0    0  0.54808824677E+00 -0.41720366445E+00  0.95822065324E+00  0.11801044209E+01  0.00000000000E+00 0.  1.
         11    1    3    3    0    0  0.30908596802E+02 -0.16780179501E+02  0.72019700837E+01  0.35899640022E+02  0.51100000000E-03 0. -1.
        -11    1    3    3    0    0  0.95787628781E+01  0.37115480651E+01 -0.21822901100E+01  0.10501936855E+02  0.51100000000E-03 0.  1.
        -12    1    3    3    0    0 -0.41035447927E+02  0.13485835101E+02 -0.59779006270E+01  0.43606318703E+02  0.00000000000E+00 0.  1.
</event>
<event>
 7    1  0.2669402E-015  0.9000771E+02  0.7816164E-02  0.1186339E+00
        -11   -1    0    0    0    0  0.00000000000E+00  0.00000000000E+00  0.45593999997E+02  0.45594000000E+02  0.51100000000E-03 0.  1.
         11   -1    0    0    0    0 -0.00000000000E+00 -0.00000000000E+00 -0.45593999997E+02  0.45594000000E+02  0.51100000000E-03 0. -1.
    9900012    2    1    2    0    0  0.22451111489E+00  0.94361465523E+00 -0.67250939709E+00  0.90007710736E+02  0.89999971717E+02 0.  0.
        -12    1    1    2    0    0 -0.22451111489E+00 -0.94361465523E+00  0.67250939709E+00  0.11802892643E+01  0.00000000000E+00 0.  1.
         11    1    3    3    0    0 -0.17541946481E+02  0.17167087216E+02 -0.32408316184E+02  0.40653754168E+02  0.51100000000E-03 0. -1.
        -11    1    3    3    0    0 -0.68856885740E+01  0.19620016311E+01  0.62877609238E+01  0.95288034524E+01  0.51100000000E-03 0.  1.
        -12    1    3    3    0    0  0.24652146170E+02 -0.18185474192E+02  0.25448045863E+02  0.39825153115E+02  0.00000000000E+00 0.  1.
</event>
<event>
 7    1  0.2794473E-015  0.9000771E+02  0.7816164E-02  0.1186339E+00
        -11   -1    0    0    0    0  0.00000000000E+00  0.00000000000E+00  0.45593999997E+02  0.45594000000E+02  0.51100000000E-03 0. -1.
         11   -1    0    0    0    0 -0.00000000000E+00 -0.00000000000E+00 -0.45593999997E+02  0.45594000000E+02  0.51100000000E-03 0.  1.
    9900012    2    1    2    0    0 -0.11161900482E+01  0.26466129597E+00  0.27777205526E+00  0.90007710569E+02  0.89999971549E+02 0.  0.
        -12    1    1    2    0    0  0.11161900482E+01 -0.26466129597E+00 -0.27777205526E+00  0.11802894306E+01  0.00000000000E+00 0.  1.
         11    1    3    3    0    0 -0.35688194085E+02 -0.24136261929E+02  0.66058223502E+01  0.43587191079E+02  0.51100000000E-03 0. -1.
        -11    1    3    3    0    0  0.26571566652E+01  0.92188361741E+01  0.26551630524E+01  0.99547633344E+01  0.51100000000E-03 0.  1.
        -12    1    3    3    0    0  0.31914847372E+02  0.15182087051E+02 -0.89832133473E+01  0.36465756156E+02  0.00000000000E+00 0.  1.
</event>
<event>
 7    1  0.2593256E-015  0.9000789E+02  0.7816164E-02  0.1186339E+00
        -11   -1    0    0    0    0  0.00000000000E+00  0.00000000000E+00  0.45593999997E+02  0.45594000000E+02  0.51100000000E-03 0.  1.
         11   -1    0    0    0    0 -0.00000000000E+00 -0.00000000000E+00 -0.45593999997E+02  0.45594000000E+02  0.51100000000E-03 0. -1.
    9900012    2    1    2    0    0 -0.43593589159E+00 -0.10329553897E+01 -0.36827485965E+00  0.90007888433E+02  0.90000151760E+02 0.  0.
        -12    1    1    2    0    0  0.43593589159E+00  0.10329553897E+01  0.36827485965E+00  0.11801115672E+01  0.00000000000E+00 0.  1.
         11    1    3    3    0    0 -0.16452632007E+02 -0.94930892977E+01 -0.29897189876E+02  0.35421036223E+02  0.51100000000E-03 0. -1.
        -11    1    3    3    0    0  0.12084708625E+02  0.81623887683E+01 -0.81474741910E+01  0.16704673266E+02  0.51100000000E-03 0.  1.
        -12    1    3    3    0    0  0.39319874898E+01  0.29774513961E+00  0.37676389208E+02  0.37882178944E+02  0.00000000000E+00 0.  1.
</event>
<event>
 7    1  0.2593256E-015  0.9000777E+02  0.7816164E-02  0.1186339E+00
        -11   -1    0    0    0    0  0.00000000000E+00  0.00000000000E+00  0.45593999997E+02  0.45594000000E+02  0.51100000000E-03 0.  1.
         11   -1    0    0    0    0 -0.00000000000E+00 -0.00000000000E+00 -0.45593999997E+02  0.45594000000E+02  0.51100000000E-03 0. -1.
    9900012    2    1    2    0    0 -0.69157858056E+00 -0.25569094232E-01 -0.95603811484E+00  0.90007769688E+02  0.90000031448E+02 0.  0.
        -12    1    1    2    0    0  0.69157858056E+00  0.25569094232E-01  0.95603811484E+00  0.11802303117E+01  0.00000000000E+00 0.  1.
         11    1    3    3    0    0  0.33537745054E+02 -0.71581291139E+01  0.44765559637E+01  0.34584081733E+02  0.51100000000E-03 0. -1.
        -11    1    3    3    0    0  0.87002984555E+01 -0.43657223942E+01 -0.50787922286E+01  0.10979474304E+02  0.51100000000E-03 0.  1.
        -12    1    3    3    0    0 -0.42929622091E+02  0.11498282414E+02 -0.35380184994E+00  0.44444213651E+02  0.00000000000E+00 0.  1.
</event>
<event>
 7    1  0.2593256E-015  0.9000816E+02  0.7816164E-02  0.1186338E+00
        -11   -1    0    0    0    0  0.00000000000E+00  0.00000000000E+00  0.45593999997E+02  0.45594000000E+02  0.51100000000E-03 0. -1.
         11   -1    0    0    0    0 -0.00000000000E+00 -0.00000000000E+00 -0.45593999997E+02  0.45594000000E+02  0.51100000000E-03 0.  1.
    9900012    2    1    2    0    0 -0.71573677794E+00 -0.69056456944E+00  0.63472256251E+00  0.90008156243E+02  0.90000423104E+02 0.  0.
        -12    1    1    2    0    0  0.71573677794E+00  0.69056456944E+00 -0.63472256251E+00  0.11798437571E+01  0.00000000000E+00 0.  1.
         11    1    3    3    0    0 -0.66817153590E+01  0.22388002962E+00 -0.54265964539E+01  0.86106557091E+01  0.51100000000E-03 0. -1.
        -11    1    3    3    0    0 -0.96630002898E-02  0.30424845415E+02 -0.23079513029E+02  0.38188155674E+02  0.51100000000E-03 0.  1.
         12    1    3    3    0    0  0.59756415813E+01 -0.31339290014E+02  0.29140832045E+02  0.43209344859E+02  0.00000000000E+00 0. -1.
</event>
<event>
 7    1  0.2593256E-015  0.9000769E+02  0.7816164E-02  0.1186339E+00
        -11   -1    0    0    0    0  0.00000000000E+00  0.00000000000E+00  0.45593999997E+02  0.45594000000E+02  0.51100000000E-03 0.  1.
         11   -1    0    0    0    0 -0.00000000000E+00 -0.00000000000E+00 -0.45593999997E+02  0.45594000000E+02  0.51100000000E-03 0. -1.
    9900012    2    1    2    0    0 -0.42947480529E+00 -0.10541114902E+01 -0.31229428675E+00  0.90007691835E+02  0.89999952568E+02 0.  0.
        -12    1    1    2    0    0  0.42947480529E+00  0.10541114902E+01  0.31229428675E+00  0.11803081647E+01  0.00000000000E+00 0.  1.
         11    1    3    3    0    0  0.80695740727E+01  0.37001882842E+00 -0.38112717033E+02  0.38959390904E+02  0.51100000000E-03 0. -1.
        -11    1    3    3    0    0 -0.36081374133E+01  0.14717206602E+02  0.88637109657E+01  0.17555061894E+02  0.51100000000E-03 0.  1.
        -12    1    3    3    0    0 -0.48909114646E+01 -0.16141336921E+02  0.28936711781E+02  0.33493239038E+02  0.00000000000E+00 0.  1.
</event>
<event>
 7    1  0.2593256E-015  0.9000773E+02  0.7816164E-02  0.1186339E+00
        -11   -1    0    0    0    0  0.00000000000E+00  0.00000000000E+00  0.45593999997E+02  0.45594000000E+02  0.51100000000E-03 0.  1.
         11   -1    0    0    0    0 -0.00000000000E+00 -0.00000000000E+00 -0.45593999997E+02  0.45594000000E+02  0.51100000000E-03 0. -1.
    9900012    2    1    2    0    0 -0.11608406857E+01  0.12741960330E+00  0.17105447016E+00  0.90007726098E+02  0.89999987282E+02 0.  0.
        -12    1    1    2    0    0  0.11608406857E+01 -0.12741960330E+00 -0.17105447016E+00  0.11802739024E+01  0.00000000000E+00 0.  1.
         11    1    3    3    0    0 -0.54525850024E+01 -0.10790847099E+01 -0.85869380968E+01  0.10228910654E+02  0.51100000000E-03 0. -1.
        -11    1    3    3    0    0 -0.82697954211E+01  0.30783328825E+02  0.27912927255E+02  0.42369025927E+02  0.51100000000E-03 0.  1.
         12    1    3    3    0    0  0.12561539738E+02 -0.29576824512E+02 -0.19154934688E+02  0.37409789517E+02  0.00000000000E+00 0. -1.
</event>
<event>
 7    1  0.2593256E-015  0.9000838E+02  0.7816164E-02  0.1186338E+00
        -11   -1    0    0    0    0  0.00000000000E+00  0.00000000000E+00  0.45593999997E+02  0.45594000000E+02  0.51100000000E-03 0.  1.
         11   -1    0    0    0    0 -0.00000000000E+00 -0.00000000000E+00 -0.45593999997E+02  0.45594000000E+02  0.51100000000E-03 0. -1.
    9900012    2    1    2    0    0  0.96829711558E+00  0.67369622437E+00  0.61510951187E-02  0.90008379831E+02  0.90000649643E+02 0.  0.
        -12    1    1    2    0    0 -0.96829711558E+00 -0.67369622437E+00 -0.61510951187E-02  0.11796201688E+01  0.00000000000E+00 0.  1.
         11    1    3    3    0    0  0.21235502215E+01 -0.54383468972E+01  0.81575882620E+01  0.10031516786E+02  0.51100000000E-03 0. -1.
        -11    1    3    3    0    0  0.16907587276E+02  0.26433132039E+01  0.31734381912E+02  0.36054467237E+02  0.51100000000E-03 0.  1.
         12    1    3    3    0    0 -0.18062840382E+02  0.34687299177E+01 -0.39885819079E+02  0.43922395808E+02  0.00000000000E+00 0. -1.
</event>
<event>
 7    1  0.2593256E-015  0.9000708E+02  0.7816164E-02  0.1186340E+00
        -11   -1    0    0    0    0  0.00000000000E+00  0.00000000000E+00  0.45593999997E+02  0.45594000000E+02  0.51100000000E-03 0.  1.
         11   -1    0    0    0    0 -0.00000000000E+00 -0.00000000000E+00 -0.45593999997E+02  0.45594000000E+02  0.51100000000E-03 0. -1.
    9900012    2    1    2    0    0  0.39925336948E-01  0.17287154908E+00 -0.11675134092E+01  0.90007082490E+02  0.89999335176E+02 0.  0.
        -12    1    1    2    0    0 -0.39925336948E-01 -0.17287154908E+00  0.11675134092E+01  0.11809175101E+01  0.00000000000E+00 0.  1.
         11    1    3    3    0    0 -0.88031202759E+01  0.15406261570E+02 -0.33624540607E+02  0.38019173497E+02  0.51100000000E-03 0. -1.
        -11    1    3    3    0    0  0.47721291349E+01  0.57457878615E+01 -0.49121739842E+01  0.89396167782E+01  0.51100000000E-03 0.  1.
        -12    1    3    3    0    0  0.40709164779E+01 -0.20979177882E+02  0.37369201182E+02  0.43048292214E+02  0.00000000000E+00 0.  1.
</event>
<event>
 7    1  0.2593256E-015  0.9000781E+02  0.7816164E-02  0.1186339E+00
        -11   -1    0    0    0    0  0.00000000000E+00  0.00000000000E+00  0.45593999997E+02  0.45594000000E+02  0.51100000000E-03 0. -1.
         11   -1    0    0    0    0 -0.00000000000E+00 -0.00000000000E+00 -0.45593999997E+02  0.45594000000E+02  0.51100000000E-03 0.  1.
    9900012    2    1    2    0    0 -0.84108389031E+00  0.14299000846E+00  0.81546531885E+00  0.90007808516E+02  0.90000070788E+02 0.  0.
        -12    1    1    2    0    0  0.84108389031E+00 -0.14299000846E+00 -0.81546531885E+00  0.11801914842E+01  0.00000000000E+00 0.  1.
         11    1    3    3    0    0 -0.24608566916E+02  0.14039182673E+02 -0.28996885510E+02  0.40540098488E+02  0.51100000000E-03 0. -1.
        -11    1    3    3    0    0  0.56860969935E+00  0.76609156844E+01  0.43182550524E+01  0.88125066283E+01  0.51100000000E-03 0.  1.
        -12    1    3    3    0    0  0.23198873327E+02 -0.21557108349E+02  0.25494095777E+02  0.40655203400E+02  0.00000000000E+00 0.  1.
</event>
<event>
 7    1  0.2593256E-015  0.9000767E+02  0.7816164E-02  0.1186339E+00
        -11   -1    0    0    0    0  0.00000000000E+00  0.00000000000E+00  0.45593999997E+02  0.45594000000E+02  0.51100000000E-03 0. -1.
         11   -1    0    0    0    0 -0.00000000000E+00 -0.00000000000E+00 -0.45593999997E+02  0.45594000000E+02  0.51100000000E-03 0.  1.
    9900012    2    1    2    0    0 -0.24776437237E+00 -0.50242779903E+00  0.10389209444E+01  0.90007670552E+02  0.89999931003E+02 0.  0.
        -12    1    1    2    0    0  0.24776437237E+00  0.50242779903E+00 -0.10389209444E+01  0.11803294482E+01  0.00000000000E+00 0.  1.
         11    1    3    3    0    0  0.29378424620E+01 -0.95302443313E+01  0.25827314725E+02  0.27685856706E+02  0.51100000000E-03 0. -1.
        -11    1    3    3    0    0  0.66615868732E+00  0.31958600084E+01  0.18341268569E+02  0.18629530901E+02  0.51100000000E-03 0.  1.
        -12    1    3    3    0    0 -0.38517655217E+01  0.58319565239E+01 -0.43129662350E+02  0.43692282945E+02  0.00000000000E+00 0.  1.
</event>
<event>
 7    1  0.2593256E-015  0.9000791E+02  0.7816164E-02  0.1186339E+00
        -11   -1    0    0    0    0  0.00000000000E+00  0.00000000000E+00  0.45593999997E+02  0.45594000000E+02  0.51100000000E-03 0.  1.
         11   -1    0    0    0    0 -0.00000000000E+00 -0.00000000000E+00 -0.45593999997E+02  0.45594000000E+02  0.51100000000E-03 0. -1.
    9900012    2    1    2    0    0 -0.90154582975E+00  0.75975003726E+00 -0.51057183863E-01  0.90007910241E+02  0.90000173856E+02 0.  0.
        -12    1    1    2    0    0  0.90154582975E+00 -0.75975003726E+00  0.51057183863E-01  0.11800897586E+01  0.00000000000E+00 0.  1.
         11    1    3    3    0    0  0.23923719183E+01 -0.30896178259E+02  0.24006874822E+02  0.39199838180E+02  0.51100000000E-03 0. -1.
        -11    1    3    3    0    0 -0.46976129919E+01  0.27818700406E+01  0.66699266981E+01  0.86194136206E+01  0.51100000000E-03 0.  1.
        -12    1    3    3    0    0  0.14036952438E+01  0.28874058256E+02 -0.30727858704E+02  0.42188658440E+02  0.00000000000E+00 0.  1.
</event>
<event>
 7    1  0.2593256E-015  0.9000779E+02  0.7816164E-02  0.1186339E+00
        -11   -1    0    0    0    0  0.00000000000E+00  0.00000000000E+00  0.45593999997E+02  0.45594000000E+02  0.51100000000E-03 0.  1.
         11   -1    0    0    0    0 -0.00000000000E+00 -0.00000000000E+00 -0.45593999997E+02  0.45594000000E+02  0.51100000000E-03 0. -1.
    9900012    2    1    2    0    0  0.87608724338E+00 -0.17758530091E+00  0.77060921313E+00  0.90007786478E+02  0.90000048460E+02 0.  0.
        -12    1    1    2    0    0 -0.87608724338E+00  0.17758530091E+00 -0.77060921313E+00  0.11802135216E+01  0.00000000000E+00 0.  1.
         11    1    3    3    0    0  0.39298004211E+01 -0.50019811716E+01 -0.11718143332E+02  0.13333342807E+02  0.51100000000E-03 0. -1.
        -11    1    3    3    0    0  0.28494181327E+02 -0.15982287513E+02  0.19772233679E+02  0.38187604122E+02  0.51100000000E-03 0.  1.
         12    1    3    3    0    0 -0.31547894505E+02  0.20806683383E+02 -0.72834811337E+01  0.38486839550E+02  0.00000000000E+00 0. -1.
</event>
<event>
 7    1  0.2593256E-015  0.9000770E+02  0.7816164E-02  0.1186339E+00
        -11   -1    0    0    0    0  0.00000000000E+00  0.00000000000E+00  0.45593999997E+02  0.45594000000E+02  0.51100000000E-03 0. -1.
         11   -1    0    0    0    0 -0.00000000000E+00 -0.00000000000E+00 -0.45593999997E+02  0.45594000000E+02  0.51100000000E-03 0.  1.
    9900012    2    1    2    0    0 -0.19471209277E+00  0.41823656095E+00  0.10864012002E+01  0.90007702500E+02  0.89999963373E+02 0.  0.
        -12    1    1    2    0    0  0.19471209277E+00 -0.41823656095E+00 -0.10864012002E+01  0.11802974997E+01  0.00000000000E+00 0.  1.
         11    1    3    3    0    0 -0.64915131470E+01  0.15511962095E+00  0.41800942352E+01  0.77224991493E+01  0.51100000000E-03 0. -1.
        -11    1    3    3    0    0 -0.14377628692E+00 -0.28579283767E+02  0.27561718457E+02  0.39704463940E+02  0.51100000000E-03 0.  1.
         12    1    3    3    0    0  0.64405773412E+01  0.28842400707E+02 -0.30655411492E+02  0.42580739411E+02  0.00000000000E+00 0. -1.
</event>
<event>
 7    1  0.2593256E-015  0.9000775E+02  0.7816164E-02  0.1186339E+00
        -11   -1    0    0    0    0  0.00000000000E+00  0.00000000000E+00  0.45593999997E+02  0.45594000000E+02  0.51100000000E-03 0.  1.
         11   -1    0    0    0    0 -0.00000000000E+00 -0.00000000000E+00 -0.45593999997E+02  0.45594000000E+02  0.51100000000E-03 0. -1.
    9900012    2    1    2    0    0 -0.66450590855E+00 -0.17893457348E+00 -0.95886156186E+00  0.90007745291E+02  0.90000006729E+02 0.  0.
        -12    1    1    2    0    0  0.66450590855E+00  0.17893457348E+00  0.95886156186E+00  0.11802547093E+01  0.00000000000E+00 0.  1.
         11    1    3    3    0    0  0.10706773992E+02  0.36131430987E+02  0.12448162328E+02  0.39687177528E+02  0.51100000000E-03 0. -1.
        -11    1    3    3    0    0  0.77681588406E+01 -0.96804071911E+00 -0.49086010830E+01  0.92399004031E+01  0.51100000000E-03 0.  1.
        -12    1    3    3    0    0 -0.19139438741E+02 -0.35342324842E+02 -0.84984228067E+01  0.41080667360E+02  0.00000000000E+00 0.  1.
</event>
<event>
 7    1  0.2593256E-015  0.9000773E+02  0.7816164E-02  0.1186339E+00
        -11   -1    0    0    0    0  0.00000000000E+00  0.00000000000E+00  0.45593999997E+02  0.45594000000E+02  0.51100000000E-03 0.  1.
         11   -1    0    0    0    0 -0.00000000000E+00 -0.00000000000E+00 -0.45593999997E+02  0.45594000000E+02  0.51100000000E-03 0. -1.
    9900012    2    1    2    0    0 -0.81772399112E+00 -0.81049382157E+00 -0.25972815438E+00  0.90007732456E+02  0.89999993725E+02 0.  0.
        -12    1    1    2    0    0  0.81772399112E+00  0.81049382157E+00  0.25972815438E+00  0.11802675437E+01  0.00000000000E+00 0.  1.
         11    1    3    3    0    0  0.18573664374E+02  0.30241706923E+02 -0.53785742855E+01  0.35895276952E+02  0.51100000000E-03 0. -1.
        -11    1    3    3    0    0  0.26194531175E+01  0.82959277977E+01 -0.28099457947E+00  0.87041892715E+01  0.51100000000E-03 0.  1.
        -12    1    3    3    0    0 -0.22010841482E+02 -0.39348128542E+02  0.53998407105E+01  0.45408266232E+02  0.00000000000E+00 0.  1.
</event>
<event>
 7    1  0.2593256E-015  0.9000747E+02  0.7816164E-02  0.1186340E+00
        -11   -1    0    0    0    0  0.00000000000E+00  0.00000000000E+00  0.45593999997E+02  0.45594000000E+02  0.51100000000E-03 0.  1.
         11   -1    0    0    0    0 -0.00000000000E+00 -0.00000000000E+00 -0.45593999997E+02  0.45594000000E+02  0.51100000000E-03 0. -1.
    9900012    2    1    2    0    0 -0.10763890310E+01 -0.37061025001E+00  0.31255317046E+00  0.90007468430E+02  0.89999726213E+02 0.  0.
        -12    1    1    2    0    0  0.10763890310E+01  0.37061025001E+00 -0.31255317046E+00  0.11805315701E+01  0.00000000000E+00 0.  1.
         11    1    3    3    0    0  0.56871163430E+01  0.46943091137E+01 -0.51982242663E+01  0.90222705644E+01  0.51100000000E-03 0. -1.
        -11    1    3    3    0    0  0.34344215641E+02 -0.10346868379E+02 -0.91590930819E+01  0.37019884111E+02  0.51100000000E-03 0.  1.
         12    1    3    3    0    0 -0.41107721015E+02  0.52819490158E+01  0.14669870519E+02  0.43965313754E+02  0.00000000000E+00 0. -1.
</event>
<event>
 7    1  0.3842430E-015  0.9000785E+02  0.7816164E-02  0.1186339E+00
        -11   -1    0    0    0    0  0.00000000000E+00  0.00000000000E+00  0.45593999997E+02  0.45594000000E+02  0.51100000000E-03 0. -1.
         11   -1    0    0    0    0 -0.00000000000E+00 -0.00000000000E+00 -0.45593999997E+02  0.45594000000E+02  0.51100000000E-03 0.  1.
    9900012    2    1    2    0    0  0.70543499489E+00  0.94005076572E+00  0.10691380511E+00  0.90007845546E+02  0.90000108307E+02 0.  0.
        -12    1    1    2    0    0 -0.70543499489E+00 -0.94005076572E+00 -0.10691380511E+00  0.11801544542E+01  0.00000000000E+00 0.  1.
         11    1    3    3    0    0  0.12413553229E+02  0.96236803404E+01  0.35177951847E+02  0.38525314060E+02  0.51100000000E-03 0. -1.
        -11    1    3    3    0    0  0.78441499981E+01  0.57520464232E+01 -0.12098264119E+01  0.98020613880E+01  0.51100000000E-03 0.  1.
        -12    1    3    3    0    0 -0.19552268232E+02 -0.14435675998E+02 -0.33861211630E+02  0.41680470098E+02  0.00000000000E+00 0.  1.
</event>
<event>
 7    1  0.2593256E-015  0.9000772E+02  0.7816164E-02  0.1186339E+00
        -11   -1    0    0    0    0  0.00000000000E+00  0.00000000000E+00  0.45593999997E+02  0.45594000000E+02  0.51100000000E-03 0. -1.
         11   -1    0    0    0    0 -0.00000000000E+00 -0.00000000000E+00 -0.45593999997E+02  0.45594000000E+02  0.51100000000E-03 0.  1.
    9900012    2    1    2    0    0  0.74650692683E+00  0.86110990493E+00  0.30703428713E+00  0.90007723374E+02  0.89999984523E+02 0.  0.
        -12    1    1    2    0    0 -0.74650692683E+00 -0.86110990493E+00 -0.30703428713E+00  0.11802766259E+01  0.00000000000E+00 0.  1.
         11    1    3    3    0    0 -0.40394626795E+01  0.85642302765E+01  0.23596025128E+01  0.97586383911E+01  0.51100000000E-03 0. -1.
        -11    1    3    3    0    0 -0.61533408333E+01 -0.31698016881E+02 -0.28377626816E+02  0.42987411897E+02  0.51100000000E-03 0.  1.
         12    1    3    3    0    0  0.10939310440E+02  0.23994896510E+02  0.26325058590E+02  0.37261673086E+02  0.00000000000E+00 0. -1.
</event>
<event>
 7    1  0.2593256E-015  0.9000768E+02  0.7816164E-02  0.1186339E+00
        -11   -1    0    0    0    0  0.00000000000E+00  0.00000000000E+00  0.45593999997E+02  0.45594000000E+02  0.51100000000E-03 0. -1.
         11   -1    0    0    0    0 -0.00000000000E+00 -0.00000000000E+00 -0.45593999997E+02  0.45594000000E+02  0.51100000000E-03 0.  1.
    9900012    2    1    2    0    0 -0.16570577532E+00 -0.10174359693E+01  0.57491189748E+00  0.90007678838E+02  0.89999939399E+02 0.  0.
        -12    1    1    2    0    0  0.16570577532E+00  0.10174359693E+01 -0.57491189748E+00  0.11803211620E+01  0.00000000000E+00 0.  1.
         11    1    3    3    0    0 -0.79388204383E+01  0.12690711503E+01 -0.54702411216E+01  0.97241426216E+01  0.51100000000E-03 0. -1.
        -11    1    3    3    0    0  0.80675206775E+01 -0.37994264231E+02 -0.11484897195E+02  0.40503726597E+02  0.51100000000E-03 0.  1.
         12    1    3    3    0    0 -0.29440601450E+00  0.35707757112E+02  0.17530050214E+02  0.39779809620E+02  0.00000000000E+00 0. -1.
</event>
<event>
 7    1  0.2593256E-015  0.9000787E+02  0.7816164E-02  0.1186339E+00
        -11   -1    0    0    0    0  0.00000000000E+00  0.00000000000E+00  0.45593999997E+02  0.45594000000E+02  0.51100000000E-03 0. -1.
         11   -1    0    0    0    0 -0.00000000000E+00 -0.00000000000E+00 -0.45593999997E+02  0.45594000000E+02  0.51100000000E-03 0.  1.
    9900012    2    1    2    0    0 -0.22583519270E+00 -0.96781860153E+00  0.63643075836E+00  0.90007865054E+02  0.90000128073E+02 0.  0.
        -12    1    1    2    0    0  0.22583519270E+00  0.96781860153E+00 -0.63643075836E+00  0.11801349456E+01  0.00000000000E+00 0.  1.
         11    1    3    3    0    0 -0.11913393820E+01  0.80073969256E+01  0.34138224099E+01  0.87858908913E+01  0.51100000000E-03 0. -1.
        -11    1    3    3    0    0  0.16346836719E+02  0.16962786083E+02  0.29034077431E+02  0.37388940009E+02  0.51100000000E-03 0.  1.
         12    1    3    3    0    0 -0.15381332530E+02 -0.25938001610E+02 -0.31811469083E+02  0.43833034154E+02  0.00000000000E+00 0. -1.
</event>
<event>
 7    1  0.2593256E-015  0.9000775E+02  0.7816164E-02  0.1186339E+00
        -11   -1    0    0    0    0  0.00000000000E+00  0.00000000000E+00  0.45593999997E+02  0.45594000000E+02  0.51100000000E-03 0. -1.
         11   -1    0    0    0    0 -0.00000000000E+00 -0.00000000000E+00 -0.45593999997E+02  0.45594000000E+02  0.51100000000E-03 0.  1.
    9900012    2    1    2    0    0 -0.11321944656E+01  0.98967570149E-01  0.31833952694E+00  0.90007746238E+02  0.90000007688E+02 0.  0.
        -12    1    1    2    0    0  0.11321944656E+01 -0.98967570149E-01 -0.31833952694E+00  0.11802537619E+01  0.00000000000E+00 0.  1.
         11    1    3    3    0    0  0.19598936264E+01  0.13414193618E+01  0.84015927317E+01  0.87308275451E+01  0.51100000000E-03 0. -1.
        -11    1    3    3    0    0 -0.11808733882E+02  0.37675049761E+02 -0.11837957069E+02  0.41218840331E+02  0.51100000000E-03 0.  1.
         12    1    3    3    0    0  0.87166457897E+01 -0.38917501553E+02  0.37547038643E+01  0.40058078362E+02  0.00000000000E+00 0. -1.
</event>
<event>
 7    1  0.2593256E-015  0.9000774E+02  0.7816164E-02  0.1186339E+00
        -11   -1    0    0    0    0  0.00000000000E+00  0.00000000000E+00  0.45593999997E+02  0.45594000000E+02  0.51100000000E-03 0.  1.
         11   -1    0    0    0    0 -0.00000000000E+00 -0.00000000000E+00 -0.45593999997E+02  0.45594000000E+02  0.51100000000E-03 0. -1.
    9900012    2    1    2    0    0 -0.97717456291E+00 -0.36654638460E-01  0.66091062347E+00  0.90007738783E+02  0.90000000135E+02 0.  0.
        -12    1    1    2    0    0  0.97717456291E+00  0.36654638460E-01 -0.66091062347E+00  0.11802612173E+01  0.00000000000E+00 0.  1.
         11    1    3    3    0    0 -0.25465424411E+01  0.15478061571E+01  0.54806334733E+01  0.62384233452E+01  0.51100000000E-03 0. -1.
        -11    1    3    3    0    0  0.81559779347E+01 -0.32293730718E+02  0.24070636944E+02  0.41095018955E+02  0.51100000000E-03 0.  1.
         12    1    3    3    0    0 -0.65866100565E+01  0.30709269923E+02 -0.28890359794E+02  0.42674296482E+02  0.00000000000E+00 0. -1.
</event>
<event>
 7    1  0.2593256E-015  0.9000783E+02  0.7816164E-02  0.1186339E+00
        -11   -1    0    0    0    0  0.00000000000E+00  0.00000000000E+00  0.45593999997E+02  0.45594000000E+02  0.51100000000E-03 0. -1.
         11   -1    0    0    0    0 -0.00000000000E+00 -0.00000000000E+00 -0.45593999997E+02  0.45594000000E+02  0.51100000000E-03 0.  1.
    9900012    2    1    2    0    0  0.43205782672E+00 -0.28005775992E+00  0.10619258918E+01  0.90007833523E+02  0.90000096125E+02 0.  0.
        -12    1    1    2    0    0 -0.43205782672E+00  0.28005775992E+00 -0.10619258918E+01  0.11801664773E+01  0.00000000000E+00 0.  1.
         11    1    3    3    0    0  0.12045367889E+02 -0.89237344084E+01 -0.18900210629E+02  0.24123471671E+02  0.51100000000E-03 0. -1.
        -11    1    3    3    0    0 -0.25208082665E+02  0.13708890017E+02 -0.11753180372E+02  0.31008359296E+02  0.51100000000E-03 0.  1.
         12    1    3    3    0    0  0.13594772602E+02 -0.50652133682E+01  0.31715316893E+02  0.34876002555E+02  0.00000000000E+00 0. -1.
</event>
<event>
 7    1  0.2593256E-015  0.9000775E+02  0.7816164E-02  0.1186339E+00
        -11   -1    0    0    0    0  0.00000000000E+00  0.00000000000E+00  0.45593999997E+02  0.45594000000E+02  0.51100000000E-03 0.  1.
         11   -1    0    0    0    0 -0.00000000000E+00 -0.00000000000E+00 -0.45593999997E+02  0.45594000000E+02  0.51100000000E-03 0. -1.
    9900012    2    1    2    0    0 -0.57129212400E+00 -0.94228640552E+00 -0.42274761816E+00  0.90007748370E+02  0.90000009849E+02 0.  0.
        -12    1    1    2    0    0  0.57129212400E+00  0.94228640552E+00  0.42274761816E+00  0.11802516298E+01  0.00000000000E+00 0.  1.
         11    1    3    3    0    0  0.41496223534E+01 -0.30628156166E+01  0.13192382051E+01  0.53235885341E+01  0.51100000000E-03 0. -1.
        -11    1    3    3    0    0  0.21701743858E+02  0.35026292572E+02  0.64178511224E+01  0.41701267020E+02  0.51100000000E-03 0.  1.
         12    1    3    3    0    0 -0.26422658335E+02 -0.32905763361E+02 -0.81598369456E+01  0.42982892816E+02  0.00000000000E+00 0. -1.
</event>
<event>
 7    1  0.2593256E-015  0.9000770E+02  0.7816164E-02  0.1186339E+00
        -11   -1    0    0    0    0  0.00000000000E+00  0.00000000000E+00  0.45593999997E+02  0.45594000000E+02  0.51100000000E-03 0.  1.
         11   -1    0    0    0    0 -0.00000000000E+00 -0.00000000000E+00 -0.45593999997E+02  0.45594000000E+02  0.51100000000E-03 0. -1.
    9900012    2    1    2    0    0  0.69517392736E+00 -0.28805224083E+00 -0.90931990006E+00  0.90007701918E+02  0.89999962783E+02 0.  0.
        -12    1    1    2    0    0 -0.69517392736E+00  0.28805224083E+00  0.90931990006E+00  0.11802980824E+01  0.00000000000E+00 0.  1.
         11    1    3    3    0    0 -0.26243690895E+02 -0.26295551010E+02 -0.13613228251E+02  0.39566492116E+02  0.51100000000E-03 0. -1.
        -11    1    3    3    0    0 -0.40052486661E+00 -0.38523749665E+01  0.89865508117E+01  0.97856685415E+01  0.51100000000E-03 0.  1.
        -12    1    3    3    0    0  0.27339389689E+02  0.29859873735E+02  0.37173575388E+01  0.40655541260E+02  0.00000000000E+00 0.  1.
</event>
<event>
 7    1  0.2593256E-015  0.9000800E+02  0.7816164E-02  0.1186339E+00
        -11   -1    0    0    0    0  0.00000000000E+00  0.00000000000E+00  0.45593999997E+02  0.45594000000E+02  0.51100000000E-03 0.  1.
         11   -1    0    0    0    0 -0.00000000000E+00 -0.00000000000E+00 -0.45593999997E+02  0.45594000000E+02  0.51100000000E-03 0. -1.
    9900012    2    1    2    0    0 -0.42757898170E+00 -0.95855846569E+00 -0.53921112480E+00  0.90007997138E+02  0.90000261900E+02 0.  0.
        -12    1    1    2    0    0  0.42757898170E+00  0.95855846569E+00  0.53921112480E+00  0.11800028622E+01  0.00000000000E+00 0.  1.
         11    1    3    3    0    0 -0.52763885622E+01  0.87638423945E+01 -0.74353141491E-01  0.10229894351E+02  0.51100000000E-03 0. -1.
        -11    1    3    3    0    0 -0.33139463258E+02 -0.21233087989E+01  0.16972946402E+02  0.37293610379E+02  0.51100000000E-03 0.  1.
         12    1    3    3    0    0  0.37988272838E+02 -0.75990920613E+01 -0.17437804386E+02  0.42484492408E+02  0.00000000000E+00 0. -1.
</event>
<event>
 7    1  0.2593256E-015  0.9000774E+02  0.7816164E-02  0.1186339E+00
        -11   -1    0    0    0    0  0.00000000000E+00  0.00000000000E+00  0.45593999997E+02  0.45594000000E+02  0.51100000000E-03 0. -1.
         11   -1    0    0    0    0 -0.00000000000E+00 -0.00000000000E+00 -0.45593999997E+02  0.45594000000E+02  0.51100000000E-03 0.  1.
    9900012    2    1    2    0    0  0.41734461852E+00 -0.23620795185E+00  0.10784469888E+01  0.90007737896E+02  0.89999999236E+02 0.  0.
        -12    1    1    2    0    0 -0.41734461852E+00  0.23620795185E+00 -0.10784469888E+01  0.11802621042E+01  0.00000000000E+00 0.  1.
         11    1    3    3    0    0  0.38222706928E+01  0.93357659999E+01  0.11988593293E+02  0.15668205049E+02  0.51100000000E-03 0. -1.
        -11    1    3    3    0    0  0.31771373970E+02  0.78414421982E-01  0.86798504776E+01  0.32935788397E+02  0.51100000000E-03 0.  1.
         12    1    3    3    0    0 -0.35176300044E+02 -0.96503883737E+01 -0.19589996782E+02  0.41403744450E+02  0.00000000000E+00 0. -1.
</event>
<event>
 7    1  0.2593256E-015  0.9000775E+02  0.7816164E-02  0.1186339E+00
        -11   -1    0    0    0    0  0.00000000000E+00  0.00000000000E+00  0.45593999997E+02  0.45594000000E+02  0.51100000000E-03 0.  1.
         11   -1    0    0    0    0 -0.00000000000E+00 -0.00000000000E+00 -0.45593999997E+02  0.45594000000E+02  0.51100000000E-03 0. -1.
    9900012    2    1    2    0    0 -0.67084079871E+00  0.10598360734E+00 -0.96525932123E+00  0.90007751950E+02  0.90000013476E+02 0.  0.
        -12    1    1    2    0    0  0.67084079871E+00 -0.10598360734E+00  0.96525932123E+00  0.11802480500E+01  0.00000000000E+00 0.  1.
         11    1    3    3    0    0  0.13987429885E+01  0.48681544442E+01 -0.70102747477E+01  0.86486624365E+01  0.51100000000E-03 0. -1.
        -11    1    3    3    0    0  0.10206740402E+02 -0.34592832241E+02 -0.18771554732E+02  0.40659720356E+02  0.51100000000E-03 0.  1.
         12    1    3    3    0    0 -0.12276324189E+02  0.29830661405E+02  0.24816570158E+02  0.40699369158E+02  0.00000000000E+00 0. -1.
</event>
<event>
 7    1  0.3009179E-015  0.9000776E+02  0.7816164E-02  0.1186339E+00
        -11   -1    0    0    0    0  0.00000000000E+00  0.00000000000E+00  0.45593999997E+02  0.45594000000E+02  0.51100000000E-03 0. -1.
         11   -1    0    0    0    0 -0.00000000000E+00 -0.00000000000E+00 -0.45593999997E+02  0.45594000000E+02  0.51100000000E-03 0.  1.
    9900012    2    1    2    0    0 -0.46900113683E+00  0.10818893964E+01 -0.50186221676E-01  0.90007760453E+02  0.90000022091E+02 0.  0.
        -12    1    1    2    0    0  0.46900113683E+00 -0.10818893964E+01  0.50186221676E-01  0.11802395474E+01  0.00000000000E+00 0.  1.
         11    1    3    3    0    0 -0.35444948626E+02  0.82258992981E+01 -0.11485792458E+02  0.38156693136E+02  0.51100000000E-03 0. -1.
        -11    1    3    3    0    0 -0.60762968674E+01 -0.71632680217E+01  0.70582280259E+00  0.94197653082E+01  0.51100000000E-03 0.  1.
        -12    1    3    3    0    0  0.41052244357E+02  0.19258120053E-01  0.10729783434E+02  0.42431302009E+02  0.00000000000E+00 0.  1.
</event>
<event>
 7    1  0.2593256E-015  0.9000769E+02  0.7816164E-02  0.1186339E+00
        -11   -1    0    0    0    0  0.00000000000E+00  0.00000000000E+00  0.45593999997E+02  0.45594000000E+02  0.51100000000E-03 0. -1.
         11   -1    0    0    0    0 -0.00000000000E+00 -0.00000000000E+00 -0.45593999997E+02  0.45594000000E+02  0.51100000000E-03 0.  1.
    9900012    2    1    2    0    0 -0.42456340155E+00 -0.10511685333E+01  0.32852426651E+00  0.90007687516E+02  0.89999948191E+02 0.  0.
        -12    1    1    2    0    0  0.42456340155E+00  0.10511685333E+01 -0.32852426651E+00  0.11803124844E+01  0.00000000000E+00 0.  1.
         11    1    3    3    0    0  0.67509800022E+00 -0.12781682978E+01 -0.91861470223E+01  0.92991810867E+01  0.51100000000E-03 0. -1.
        -11    1    3    3    0    0  0.12493923381E+01  0.27113906939E+02 -0.24995033704E+02  0.36898192921E+02  0.51100000000E-03 0.  1.
         12    1    3    3    0    0 -0.23490537399E+01 -0.26886907175E+02  0.34509704993E+02  0.43810313507E+02  0.00000000000E+00 0. -1.
</event>
<event>
 7    1  0.2593256E-015  0.9000775E+02  0.7816164E-02  0.1186339E+00
        -11   -1    0    0    0    0  0.00000000000E+00  0.00000000000E+00  0.45593999997E+02  0.45594000000E+02  0.51100000000E-03 0. -1.
         11   -1    0    0    0    0 -0.00000000000E+00 -0.00000000000E+00 -0.45593999997E+02  0.45594000000E+02  0.51100000000E-03 0.  1.
    9900012    2    1    2    0    0 -0.20648876322E-02  0.57118741309E+00  0.10328294172E+01  0.90007747514E+02  0.90000008982E+02 0.  0.
        -12    1    1    2    0    0  0.20648876322E-02 -0.57118741309E+00 -0.10328294172E+01  0.11802524856E+01  0.00000000000E+00 0.  1.
         11    1    3    3    0    0  0.85041032071E+01  0.12936134036E+01 -0.38245822498E+01  0.94138534427E+01  0.51100000000E-03 0. -1.
        -11    1    3    3    0    0  0.75005769747E+01  0.38843261893E+01 -0.35733573461E+02  0.36718318554E+02  0.51100000000E-03 0.  1.
         12    1    3    3    0    0 -0.16006745069E+02 -0.46067521798E+01  0.40590985128E+02  0.43875575518E+02  0.00000000000E+00 0. -1.
</event>
<event>
 7    1  0.2593256E-015  0.9000783E+02  0.7816164E-02  0.1186339E+00
        -11   -1    0    0    0    0  0.00000000000E+00  0.00000000000E+00  0.45593999997E+02  0.45594000000E+02  0.51100000000E-03 0.  1.
         11   -1    0    0    0    0 -0.00000000000E+00 -0.00000000000E+00 -0.45593999997E+02  0.45594000000E+02  0.51100000000E-03 0. -1.
    9900012    2    1    2    0    0 -0.10117758311E+01 -0.19397136830E+00 -0.57574655690E+00  0.90007830808E+02  0.90000093375E+02 0.  0.
        -12    1    1    2    0    0  0.10117758311E+01  0.19397136830E+00  0.57574655690E+00  0.11801691921E+01  0.00000000000E+00 0.  1.
         11    1    3    3    0    0  0.24279194648E+02 -0.28076076689E+02 -0.10856468134E+02  0.38673094983E+02  0.51100000000E-03 0. -1.
        -11    1    3    3    0    0  0.51743519353E+01 -0.15289084649E+01  0.70338635945E+01  0.88649149105E+01  0.51100000000E-03 0.  1.
        -12    1    3    3    0    0 -0.30465322415E+02  0.29411013785E+02  0.32468579825E+01  0.42469820914E+02  0.00000000000E+00 0.  1.
</event>
<event>
 7    1  0.3396971E-015  0.9000751E+02  0.7816164E-02  0.1186339E+00
        -11   -1    0    0    0    0  0.00000000000E+00  0.00000000000E+00  0.45593999997E+02  0.45594000000E+02  0.51100000000E-03 0.  1.
         11   -1    0    0    0    0 -0.00000000000E+00 -0.00000000000E+00 -0.45593999997E+02  0.45594000000E+02  0.51100000000E-03 0. -1.
    9900012    2    1    2    0    0 -0.12577758750E+00  0.69271147377E+00 -0.94756453849E+00  0.90007513769E+02  0.89999772150E+02 0.  0.
        -12    1    1    2    0    0  0.12577758750E+00 -0.69271147377E+00  0.94756453849E+00  0.11804862312E+01  0.00000000000E+00 0.  1.
         11    1    3    3    0    0 -0.13832879404E+02 -0.79549851710E+01 -0.36665289332E+02  0.39987170239E+02  0.51100000000E-03 0. -1.
        -11    1    3    3    0    0 -0.73519896977E+01 -0.44366358427E+01  0.32783775739E+01  0.91914770247E+01  0.51100000000E-03 0.  1.
        -12    1    3    3    0    0  0.21059091514E+02  0.13084332488E+02  0.32439347220E+02  0.40828866505E+02  0.00000000000E+00 0.  1.
</event>
<event>
 7    1  0.2593256E-015  0.9000769E+02  0.7816164E-02  0.1186339E+00
        -11   -1    0    0    0    0  0.00000000000E+00  0.00000000000E+00  0.45593999997E+02  0.45594000000E+02  0.51100000000E-03 0.  1.
         11   -1    0    0    0    0 -0.00000000000E+00 -0.00000000000E+00 -0.45593999997E+02  0.45594000000E+02  0.51100000000E-03 0. -1.
    9900012    2    1    2    0    0  0.36187024085E+00  0.17166151394E+00 -0.11102764879E+01  0.90007690030E+02  0.89999950738E+02 0.  0.
        -12    1    1    2    0    0 -0.36187024085E+00 -0.17166151394E+00  0.11102764879E+01  0.11803099703E+01  0.00000000000E+00 0.  1.
         11    1    3    3    0    0 -0.65774612541E+01  0.68815849755E+01 -0.21213706661E+01  0.97529186446E+01  0.51100000000E-03 0. -1.
        -11    1    3    3    0    0  0.31686007170E+02 -0.18801203408E+02  0.24341690961E+02  0.44158874749E+02  0.51100000000E-03 0.  1.
         12    1    3    3    0    0 -0.24746675675E+02  0.12091279947E+02 -0.23330596782E+02  0.36095896636E+02  0.00000000000E+00 0. -1.
</event>
<event>
 7    1  0.2593256E-015  0.9000801E+02  0.7816164E-02  0.1186339E+00
        -11   -1    0    0    0    0  0.00000000000E+00  0.00000000000E+00  0.45593999997E+02  0.45594000000E+02  0.51100000000E-03 0.  1.
         11   -1    0    0    0    0 -0.00000000000E+00 -0.00000000000E+00 -0.45593999997E+02  0.45594000000E+02  0.51100000000E-03 0. -1.
    9900012    2    1    2    0    0  0.11467592209E+01 -0.24635023458E+00  0.12896551833E+00  0.90008009638E+02  0.90000274565E+02 0.  0.
        -12    1    1    2    0    0 -0.11467592209E+01  0.24635023458E+00 -0.12896551833E+00  0.11799903617E+01  0.00000000000E+00 0.  1.
         11    1    3    3    0    0  0.97350673929E+01  0.10975643153E+01  0.39955800021E+01  0.10580210035E+02  0.51100000000E-03 0. -1.
        -11    1    3    3    0    0 -0.53029188556E+01 -0.21528215524E+02  0.31531988478E+02  0.38546741882E+02  0.51100000000E-03 0.  1.
         12    1    3    3    0    0 -0.32853893164E+01  0.20184300974E+02 -0.35398602962E+02  0.40881057722E+02  0.00000000000E+00 0. -1.
</event>
<event>
 7    1  0.2593256E-015  0.9000775E+02  0.7816164E-02  0.1186339E+00
        -11   -1    0    0    0    0  0.00000000000E+00  0.00000000000E+00  0.45593999997E+02  0.45594000000E+02  0.51100000000E-03 0. -1.
         11   -1    0    0    0    0 -0.00000000000E+00 -0.00000000000E+00 -0.45593999997E+02  0.45594000000E+02  0.51100000000E-03 0.  1.
    9900012    2    1    2    0    0  0.71103811886E+00 -0.82190701373E+00  0.46030176635E+00  0.90007752542E+02  0.90000014076E+02 0.  0.
        -12    1    1    2    0    0 -0.71103811886E+00  0.82190701373E+00 -0.46030176635E+00  0.11802474579E+01  0.00000000000E+00 0.  1.
         11    1    3    3    0    0 -0.19586219758E+01 -0.10144957201E+01 -0.89473319664E+01  0.92152130300E+01  0.51100000000E-03 0. -1.
        -11    1    3    3    0    0 -0.31374845937E+02 -0.22274248146E+02 -0.17082819858E+01  0.38515468524E+02  0.51100000000E-03 0.  1.
         12    1    3    3    0    0  0.34044506031E+02  0.22466836853E+02  0.11115915719E+02  0.42277070988E+02  0.00000000000E+00 0. -1.
</event>
<event>
 7    1  0.2593256E-015  0.9000770E+02  0.7816164E-02  0.1186339E+00
        -11   -1    0    0    0    0  0.00000000000E+00  0.00000000000E+00  0.45593999997E+02  0.45594000000E+02  0.51100000000E-03 0.  1.
         11   -1    0    0    0    0 -0.00000000000E+00 -0.00000000000E+00 -0.45593999997E+02  0.45594000000E+02  0.51100000000E-03 0. -1.
    9900012    2    1    2    0    0 -0.70199701835E+00  0.38373542966E+00 -0.86778416162E+00  0.90007702561E+02  0.89999963435E+02 0.  0.
        -12    1    1    2    0    0  0.70199701835E+00 -0.38373542966E+00  0.86778416162E+00  0.11802974392E+01  0.00000000000E+00 0.  1.
         11    1    3    3    0    0  0.86939669797E+00  0.65276560944E+00  0.67161512435E+01  0.68035756294E+01  0.51100000000E-03 0. -1.
        -11    1    3    3    0    0 -0.10016282407E+02  0.12705526435E+02  0.34639856019E+02  0.38231870744E+02  0.51100000000E-03 0.  1.
         12    1    3    3    0    0  0.84448886908E+01 -0.12974556615E+02 -0.42223791424E+02  0.44972256188E+02  0.00000000000E+00 0. -1.
</event>
<event>
 7    1  0.2593256E-015  0.9000859E+02  0.7816164E-02  0.1186337E+00
        -11   -1    0    0    0    0  0.00000000000E+00  0.00000000000E+00  0.45593999997E+02  0.45594000000E+02  0.51100000000E-03 0. -1.
         11   -1    0    0    0    0 -0.00000000000E+00 -0.00000000000E+00 -0.45593999997E+02  0.45594000000E+02  0.51100000000E-03 0.  1.
    9900012    2    1    2    0    0 -0.58516064933E+00  0.86992925881E+00  0.54020360793E+00  0.90008589198E+02  0.90000861772E+02 0.  0.
        -12    1    1    2    0    0  0.58516064933E+00 -0.86992925881E+00 -0.54020360793E+00  0.11794108016E+01  0.00000000000E+00 0.  1.
         11    1    3    3    0    0  0.15112823012E+01 -0.83782755886E+01 -0.52954398814E+01  0.10026024129E+02  0.51100000000E-03 0. -1.
        -11    1    3    3    0    0  0.32486658820E+02  0.25562564966E+02  0.58116521399E+01  0.41744497000E+02  0.51100000000E-03 0.  1.
         12    1    3    3    0    0 -0.34583101770E+02 -0.16314360118E+02  0.23991349413E-01  0.38238068070E+02  0.00000000000E+00 0. -1.
</event>
<event>
 7    1  0.2593256E-015  0.9000779E+02  0.7816164E-02  0.1186339E+00
        -11   -1    0    0    0    0  0.00000000000E+00  0.00000000000E+00  0.45593999997E+02  0.45594000000E+02  0.51100000000E-03 0. -1.
         11   -1    0    0    0    0 -0.00000000000E+00 -0.00000000000E+00 -0.45593999997E+02  0.45594000000E+02  0.51100000000E-03 0.  1.
    9900012    2    1    2    0    0  0.95721235033E+00 -0.53672512950E+00  0.43423813892E+00  0.90007791497E+02  0.90000053545E+02 0.  0.
        -12    1    1    2    0    0 -0.95721235033E+00  0.53672512950E+00 -0.43423813892E+00  0.11802085026E+01  0.00000000000E+00 0.  1.
         11    1    3    3    0    0  0.81478989547E+01 -0.68634195576E+01  0.38453798629E+00  0.10660330911E+02  0.51100000000E-03 0. -1.
        -11    1    3    3    0    0  0.97033426654E+01 -0.34126687880E+02 -0.10401600365E+01  0.35494613925E+02  0.51100000000E-03 0.  1.
         12    1    3    3    0    0 -0.16894029270E+02  0.40453382308E+02  0.10898601891E+01  0.43852846662E+02  0.00000000000E+00 0. -1.
</event>
<event>
 7    1  0.2593256E-015  0.9000778E+02  0.7816164E-02  0.1186339E+00
        -11   -1    0    0    0    0  0.00000000000E+00  0.00000000000E+00  0.45593999997E+02  0.45594000000E+02  0.51100000000E-03 0. -1.
         11   -1    0    0    0    0 -0.00000000000E+00 -0.00000000000E+00 -0.45593999997E+02  0.45594000000E+02  0.51100000000E-03 0.  1.
    9900012    2    1    2    0    0  0.25886522604E+00  0.11474314881E+01 -0.96523399568E-01  0.90007776720E+02  0.90000038572E+02 0.  0.
        -12    1    1    2    0    0 -0.25886522604E+00 -0.11474314881E+01  0.96523399568E-01  0.11802232805E+01  0.00000000000E+00 0.  1.
         11    1    3    3    0    0 -0.45489961013E+01 -0.67150657918E+01 -0.16549289698E+01  0.82779384073E+01  0.51100000000E-03 0. -1.
        -11    1    3    3    0    0 -0.51534556197E+01 -0.33569777841E+02 -0.13481156303E+02  0.36540794526E+02  0.51100000000E-03 0.  1.
         12    1    3    3    0    0  0.99613169471E+01  0.41432275120E+02  0.15039561873E+02  0.45189043786E+02  0.00000000000E+00 0. -1.
</event>
<event>
 7    1  0.2593256E-015  0.9000777E+02  0.7816164E-02  0.1186339E+00
        -11   -1    0    0    0    0  0.00000000000E+00  0.00000000000E+00  0.45593999997E+02  0.45594000000E+02  0.51100000000E-03 0.  1.
         11   -1    0    0    0    0 -0.00000000000E+00 -0.00000000000E+00 -0.45593999997E+02  0.45594000000E+02  0.51100000000E-03 0. -1.
    9900012    2    1    2    0    0  0.78238990515E+00  0.12312983618E+00 -0.87501468113E+00  0.90007768831E+02  0.90000030579E+02 0.  0.
        -12    1    1    2    0    0 -0.78238990515E+00 -0.12312983618E+00  0.87501468113E+00  0.11802311691E+01  0.00000000000E+00 0.  1.
         11    1    3    3    0    0 -0.24554990050E+01 -0.11065992123E+02  0.28401195671E+01  0.11685543909E+02  0.51100000000E-03 0. -1.
        -11    1    3    3    0    0 -0.17384239355E+02  0.34474720424E+02  0.15673287327E+02  0.41669773964E+02  0.51100000000E-03 0.  1.
         12    1    3    3    0    0  0.20622128266E+02 -0.23285598465E+02 -0.19388421575E+02  0.36652450958E+02  0.00000000000E+00 0. -1.
</event>
<event>
 7    1  0.2593256E-015  0.9000774E+02  0.7816164E-02  0.1186339E+00
        -11   -1    0    0    0    0  0.00000000000E+00  0.00000000000E+00  0.45593999997E+02  0.45594000000E+02  0.51100000000E-03 0.  1.
         11   -1    0    0    0    0 -0.00000000000E+00 -0.00000000000E+00 -0.45593999997E+02  0.45594000000E+02  0.51100000000E-03 0. -1.
    9900012    2    1    2    0    0  0.45008608158E+00 -0.92639432223E+00 -0.57640142291E+00  0.90007736249E+02  0.89999997568E+02 0.  0.
        -12    1    1    2    0    0 -0.45008608158E+00  0.92639432223E+00  0.57640142291E+00  0.11802637508E+01  0.00000000000E+00 0.  1.
         11    1    3    3    0    0 -0.15138058373E+02 -0.31288365777E+02 -0.19276859271E+02  0.39745690935E+02  0.51100000000E-03 0. -1.
        -11    1    3    3    0    0 -0.76196340808E+01 -0.74823271722E+00  0.47922013684E+01  0.90323789746E+01  0.51100000000E-03 0.  1.
        -12    1    3    3    0    0  0.23207778535E+02  0.31110204172E+02  0.13908256480E+02  0.41229666340E+02  0.00000000000E+00 0.  1.
</event>
<event>
 7    1  0.2593256E-015  0.9000773E+02  0.7816164E-02  0.1186339E+00
        -11   -1    0    0    0    0  0.00000000000E+00  0.00000000000E+00  0.45593999997E+02  0.45594000000E+02  0.51100000000E-03 0.  1.
         11   -1    0    0    0    0 -0.00000000000E+00 -0.00000000000E+00 -0.45593999997E+02  0.45594000000E+02  0.51100000000E-03 0. -1.
    9900012    2    1    2    0    0  0.61607171703E+00  0.99756242716E+00  0.13553337771E+00  0.90007726958E+02  0.89999988154E+02 0.  0.
        -12    1    1    2    0    0 -0.61607171703E+00 -0.99756242716E+00 -0.13553337771E+00  0.11802730417E+01  0.00000000000E+00 0.  1.
         11    1    3    3    0    0 -0.27210681671E+01 -0.30317192213E+02  0.84085405487E+01  0.31579105593E+02  0.51100000000E-03 0. -1.
        -11    1    3    3    0    0  0.12627802467E+02 -0.87509355226E+01  0.32762734390E+01  0.15709049480E+02  0.51100000000E-03 0.  1.
        -12    1    3    3    0    0 -0.92906625828E+01  0.40065690163E+02 -0.11549280610E+02  0.42719571885E+02  0.00000000000E+00 0.  1.
</event>
<event>
 7    1  0.2593256E-015  0.9000789E+02  0.7816164E-02  0.1186339E+00
        -11   -1    0    0    0    0  0.00000000000E+00  0.00000000000E+00  0.45593999997E+02  0.45594000000E+02  0.51100000000E-03 0.  1.
         11   -1    0    0    0    0 -0.00000000000E+00 -0.00000000000E+00 -0.45593999997E+02  0.45594000000E+02  0.51100000000E-03 0. -1.
    9900012    2    1    2    0    0 -0.10701488540E+00 -0.69637911644E+00  0.94671228055E+00  0.90007889750E+02  0.90000153095E+02 0.  0.
        -12    1    1    2    0    0  0.10701488540E+00  0.69637911644E+00 -0.94671228055E+00  0.11801102498E+01  0.00000000000E+00 0.  1.
         11    1    3    3    0    0 -0.64816457525E+00  0.21449543457E+02 -0.26524718114E+02  0.34118377792E+02  0.51100000000E-03 0. -1.
        -11    1    3    3    0    0  0.20299890828E+01  0.12652139404E+02  0.25584467291E+01  0.13066871741E+02  0.51100000000E-03 0.  1.
        -12    1    3    3    0    0 -0.14888393929E+01 -0.34798061977E+02  0.24912983665E+02  0.42822640218E+02  0.00000000000E+00 0.  1.
</event>
<event>
 7    1  0.2593256E-015  0.9000792E+02  0.7816164E-02  0.1186339E+00
        -11   -1    0    0    0    0  0.00000000000E+00  0.00000000000E+00  0.45593999997E+02  0.45594000000E+02  0.51100000000E-03 0.  1.
         11   -1    0    0    0    0 -0.00000000000E+00 -0.00000000000E+00 -0.45593999997E+02  0.45594000000E+02  0.51100000000E-03 0. -1.
    9900012    2    1    2    0    0 -0.83800924746E+00 -0.18699384444E+00 -0.80954652513E+00  0.90007918743E+02  0.90000182470E+02 0.  0.
        -12    1    1    2    0    0  0.83800924746E+00  0.18699384444E+00  0.80954652513E+00  0.11800812570E+01  0.00000000000E+00 0.  1.
         11    1    3    3    0    0  0.46206974373E+00 -0.96903603502E+01 -0.30854935341E+01  0.10180219191E+02  0.51100000000E-03 0. -1.
        -11    1    3    3    0    0  0.13541512114E+02 -0.24498885394E+02  0.23967825875E+02  0.36851385500E+02  0.51100000000E-03 0.  1.
         12    1    3    3    0    0 -0.14841591105E+02  0.34002251900E+02 -0.21691878866E+02  0.42976314052E+02  0.00000000000E+00 0. -1.
</event>
<event>
 7    1  0.2593256E-015  0.9000754E+02  0.7816164E-02  0.1186339E+00
        -11   -1    0    0    0    0  0.00000000000E+00  0.00000000000E+00  0.45593999997E+02  0.45594000000E+02  0.51100000000E-03 0. -1.
         11   -1    0    0    0    0 -0.00000000000E+00 -0.00000000000E+00 -0.45593999997E+02  0.45594000000E+02  0.51100000000E-03 0.  1.
    9900012    2    1    2    0    0 -0.49001030717E+00 -0.49678219917E+00  0.95214220888E+00  0.90007543546E+02  0.89999802320E+02 0.  0.
        -12    1    1    2    0    0  0.49001030717E+00  0.49678219917E+00 -0.95214220888E+00  0.11804564543E+01  0.00000000000E+00 0.  1.
         11    1    3    3    0    0 -0.37709116210E+02  0.21667131090E+01 -0.16892620443E+02  0.41376717085E+02  0.51100000000E-03 0. -1.
        -11    1    3    3    0    0  0.13868231198E+01  0.74003927974E+01  0.58246477776E+01  0.95192233882E+01  0.51100000000E-03 0.  1.
        -12    1    3    3    0    0  0.35832282783E+02 -0.10063888106E+02  0.12020114875E+02  0.39111603072E+02  0.00000000000E+00 0.  1.
</event>
<event>
 7    1  0.2593256E-015  0.9000789E+02  0.7816164E-02  0.1186339E+00
        -11   -1    0    0    0    0  0.00000000000E+00  0.00000000000E+00  0.45593999997E+02  0.45594000000E+02  0.51100000000E-03 0.  1.
         11   -1    0    0    0    0 -0.00000000000E+00 -0.00000000000E+00 -0.45593999997E+02  0.45594000000E+02  0.51100000000E-03 0. -1.
    9900012    2    1    2    0    0 -0.66212283905E+00  0.90627665659E+00 -0.36456778114E+00  0.90007892505E+02  0.90000155886E+02 0.  0.
        -12    1    1    2    0    0  0.66212283905E+00 -0.90627665659E+00  0.36456778114E+00  0.11801074948E+01  0.00000000000E+00 0.  1.
         11    1    3    3    0    0  0.19688362248E+01  0.23881253216E+00 -0.78981718700E+01  0.81433694903E+01  0.51100000000E-03 0. -1.
        -11    1    3    3    0    0 -0.36610888079E+02 -0.17572434992E+02  0.13595610874E+02  0.42825088824E+02  0.51100000000E-03 0.  1.
         12    1    3    3    0    0  0.33979929015E+02  0.18239899116E+02 -0.60620067851E+01  0.39039434191E+02  0.00000000000E+00 0. -1.
</event>
<event>
 7    1  0.2593256E-015  0.9000750E+02  0.7816164E-02  0.1186340E+00
        -11   -1    0    0    0    0  0.00000000000E+00  0.00000000000E+00  0.45593999997E+02  0.45594000000E+02  0.51100000000E-03 0. -1.
         11   -1    0    0    0    0 -0.00000000000E+00 -0.00000000000E+00 -0.45593999997E+02  0.45594000000E+02  0.51100000000E-03 0.  1.
    9900012    2    1    2    0    0  0.24365913629E+00 -0.43715263918E+00  0.10691655148E+01  0.90007497098E+02  0.89999755259E+02 0.  0.
        -12    1    1    2    0    0 -0.24365913629E+00  0.43715263918E+00 -0.10691655148E+01  0.11805029024E+01  0.00000000000E+00 0.  1.
         11    1    3    3    0    0 -0.24939708128E+02 -0.26191260622E+02  0.48941054416E+01  0.36495526339E+02  0.51100000000E-03 0. -1.
        -11    1    3    3    0    0  0.33730620692E+01 -0.10519265875E+02 -0.10128249836E+01  0.11093165327E+02  0.51100000000E-03 0.  1.
        -12    1    3    3    0    0  0.21810305195E+02  0.36273373858E+02 -0.28121149432E+01  0.42418805431E+02  0.00000000000E+00 0.  1.
</event>
<event>
 7    1  0.2593256E-015  0.9000751E+02  0.7816164E-02  0.1186339E+00
        -11   -1    0    0    0    0  0.00000000000E+00  0.00000000000E+00  0.45593999997E+02  0.45594000000E+02  0.51100000000E-03 0.  1.
         11   -1    0    0    0    0 -0.00000000000E+00 -0.00000000000E+00 -0.45593999997E+02  0.45594000000E+02  0.51100000000E-03 0. -1.
    9900012    2    1    2    0    0  0.53354764954E+00 -0.59927708783E-01 -0.10513255749E+01  0.90007512859E+02  0.89999771229E+02 0.  0.
        -12    1    1    2    0    0 -0.53354764954E+00  0.59927708783E-01  0.10513255749E+01  0.11804871406E+01  0.00000000000E+00 0.  1.
         11    1    3    3    0    0  0.81374314365E+01  0.51673391481E+01 -0.29624462574E+01  0.10084407387E+02  0.51100000000E-03 0. -1.
        -11    1    3    3    0    0  0.28227941028E+02  0.12596861895E+02  0.19134337023E+02  0.36354097951E+02  0.51100000000E-03 0.  1.
         12    1    3    3    0    0 -0.35831824815E+02 -0.17824128752E+02 -0.17223216340E+02  0.43569007522E+02  0.00000000000E+00 0. -1.
</event>
<event>
 7    1  0.2593256E-015  0.9000776E+02  0.7816164E-02  0.1186339E+00
        -11   -1    0    0    0    0  0.00000000000E+00  0.00000000000E+00  0.45593999997E+02  0.45594000000E+02  0.51100000000E-03 0.  1.
         11   -1    0    0    0    0 -0.00000000000E+00 -0.00000000000E+00 -0.45593999997E+02  0.45594000000E+02  0.51100000000E-03 0. -1.
    9900012    2    1    2    0    0 -0.98208672856E+00 -0.63310264166E+00  0.16628759048E+00  0.90007760677E+02  0.90000022318E+02 0.  0.
        -12    1    1    2    0    0  0.98208672856E+00  0.63310264166E+00 -0.16628759048E+00  0.11802393232E+01  0.00000000000E+00 0.  1.
         11    1    3    3    0    0  0.68327288340E+01 -0.19121814362E+01 -0.41826020200E+01  0.82363087049E+01  0.51100000000E-03 0. -1.
        -11    1    3    3    0    0 -0.33190257157E+02 -0.27630946140E+02  0.19835745525E+01  0.43231897055E+02  0.51100000000E-03 0.  1.
         12    1    3    3    0    0  0.25375441595E+02  0.28910024934E+02  0.23653150580E+01  0.38539554916E+02  0.00000000000E+00 0. -1.
</event>
<event>
 7    1  0.2593256E-015  0.9000775E+02  0.7816164E-02  0.1186339E+00
        -11   -1    0    0    0    0  0.00000000000E+00  0.00000000000E+00  0.45593999997E+02  0.45594000000E+02  0.51100000000E-03 0. -1.
         11   -1    0    0    0    0 -0.00000000000E+00 -0.00000000000E+00 -0.45593999997E+02  0.45594000000E+02  0.51100000000E-03 0.  1.
    9900012    2    1    2    0    0  0.14962616729E+00  0.11591959053E+01 -0.16392126787E+00  0.90007748620E+02  0.90000010102E+02 0.  0.
        -12    1    1    2    0    0 -0.14962616729E+00 -0.11591959053E+01  0.16392126787E+00  0.11802513796E+01  0.00000000000E+00 0.  1.
         11    1    3    3    0    0  0.29753708602E+01 -0.20979104330E+02  0.27374014706E+02  0.34616648186E+02  0.51100000000E-03 0. -1.
        -11    1    3    3    0    0  0.22789046683E+01 -0.85015759335E+01  0.52315842825E+01  0.10239124680E+02  0.51100000000E-03 0.  1.
        -12    1    3    3    0    0 -0.51046493612E+01  0.30639876169E+02 -0.32769520257E+02  0.45151975755E+02  0.00000000000E+00 0.  1.
</event>
<event>
 7    1  0.2593256E-015  0.9000812E+02  0.7816164E-02  0.1186338E+00
        -11   -1    0    0    0    0  0.00000000000E+00  0.00000000000E+00  0.45593999997E+02  0.45594000000E+02  0.51100000000E-03 0.  1.
         11   -1    0    0    0    0 -0.00000000000E+00 -0.00000000000E+00 -0.45593999997E+02  0.45594000000E+02  0.51100000000E-03 0. -1.
    9900012    2    1    2    0    0 -0.23774460538E+00  0.44876226320E+00 -0.10649887548E+01  0.90008122416E+02  0.90000388831E+02 0.  0.
        -12    1    1    2    0    0  0.23774460538E+00 -0.44876226320E+00  0.10649887548E+01  0.11798775844E+01  0.00000000000E+00 0.  1.
         11    1    3    3    0    0 -0.13413913134E+02 -0.28776023085E+02 -0.23406349410E+02  0.39444261472E+02  0.51100000000E-03 0. -1.
        -11    1    3    3    0    0  0.92573695508E+01 -0.36668098765E+01 -0.10510190125E+01  0.10012443603E+02  0.51100000000E-03 0.  1.
        -12    1    3    3    0    0  0.39187989779E+01  0.32891595224E+02  0.23392379668E+02  0.40551417341E+02  0.00000000000E+00 0.  1.
</event>
<event>
 7    1  0.2593256E-015  0.9000777E+02  0.7816164E-02  0.1186339E+00
        -11   -1    0    0    0    0  0.00000000000E+00  0.00000000000E+00  0.45593999997E+02  0.45594000000E+02  0.51100000000E-03 0. -1.
         11   -1    0    0    0    0 -0.00000000000E+00 -0.00000000000E+00 -0.45593999997E+02  0.45594000000E+02  0.51100000000E-03 0.  1.
    9900012    2    1    2    0    0  0.77957694998E+00  0.56709854565E+00 -0.68088286192E+00  0.90007770169E+02  0.90000031936E+02 0.  0.
        -12    1    1    2    0    0 -0.77957694998E+00 -0.56709854565E+00  0.68088286192E+00  0.11802298306E+01  0.00000000000E+00 0.  1.
         11    1    3    3    0    0 -0.25554291490E+02  0.11298816054E+02  0.23718818823E+02  0.36650612879E+02  0.51100000000E-03 0. -1.
        -11    1    3    3    0    0 -0.76661992951E+01 -0.22440311187E+01  0.33452605595E+01  0.86600840507E+01  0.51100000000E-03 0.  1.
        -12    1    3    3    0    0  0.34000067735E+02 -0.84876863893E+01 -0.27744962245E+02  0.44697073240E+02  0.00000000000E+00 0.  1.
</event>
<event>
 7    1  0.2593256E-015  0.9000764E+02  0.7816164E-02  0.1186339E+00
        -11   -1    0    0    0    0  0.00000000000E+00  0.00000000000E+00  0.45593999997E+02  0.45594000000E+02  0.51100000000E-03 0. -1.
         11   -1    0    0    0    0 -0.00000000000E+00 -0.00000000000E+00 -0.45593999997E+02  0.45594000000E+02  0.51100000000E-03 0.  1.
    9900012    2    1    2    0    0  0.27069295083E+00 -0.11461637733E+01 -0.79204606349E-01  0.90007644359E+02  0.89999904465E+02 0.  0.
        -12    1    1    2    0    0 -0.27069295083E+00  0.11461637733E+01  0.79204606349E-01  0.11803556407E+01  0.00000000000E+00 0.  1.
         11    1    3    3    0    0 -0.38817670565E+02  0.15066225957E+02 -0.29502511653E+01  0.41743343120E+02  0.51100000000E-03 0. -1.
        -11    1    3    3    0    0  0.36635842357E+01 -0.15325774402E+00 -0.72059571657E+01  0.80852431209E+01  0.51100000000E-03 0.  1.
        -12    1    3    3    0    0  0.35424779280E+02 -0.16059131986E+02  0.10077003725E+02  0.40179058118E+02  0.00000000000E+00 0.  1.
</event>
<event>
 7    1  0.2593256E-015  0.9000775E+02  0.7816164E-02  0.1186339E+00
        -11   -1    0    0    0    0  0.00000000000E+00  0.00000000000E+00  0.45593999997E+02  0.45594000000E+02  0.51100000000E-03 0. -1.
         11   -1    0    0    0    0 -0.00000000000E+00 -0.00000000000E+00 -0.45593999997E+02  0.45594000000E+02  0.51100000000E-03 0.  1.
    9900012    2    1    2    0    0  0.26824870586E+00 -0.93945097575E+00  0.66215852861E+00  0.90007754508E+02  0.90000016068E+02 0.  0.
        -12    1    1    2    0    0 -0.26824870586E+00  0.93945097575E+00 -0.66215852861E+00  0.11802454919E+01  0.00000000000E+00 0.  1.
         11    1    3    3    0    0  0.12787570305E+02  0.85994167980E+01  0.38028868669E+02  0.41032508772E+02  0.51100000000E-03 0. -1.
        -11    1    3    3    0    0 -0.22517102145E+01 -0.85934520531E+01  0.12812373870E+01  0.89754769557E+01  0.51100000000E-03 0.  1.
        -12    1    3    3    0    0 -0.10267611385E+02 -0.94541572059E+00 -0.38647947527E+02  0.39999768781E+02  0.00000000000E+00 0.  1.
</event>
<event>
 7    1  0.2593256E-015  0.9000773E+02  0.7816164E-02  0.1186339E+00
        -11   -1    0    0    0    0  0.00000000000E+00  0.00000000000E+00  0.45593999997E+02  0.45594000000E+02  0.51100000000E-03 0.  1.
         11   -1    0    0    0    0 -0.00000000000E+00 -0.00000000000E+00 -0.45593999997E+02  0.45594000000E+02  0.51100000000E-03 0. -1.
    9900012    2    1    2    0    0  0.83354808500E+00  0.76495510397E+00 -0.33628897509E+00  0.90007725034E+02  0.89999986204E+02 0.  0.
        -12    1    1    2    0    0 -0.83354808500E+00 -0.76495510397E+00  0.33628897509E+00  0.11802749662E+01  0.00000000000E+00 0.  1.
         11    1    3    3    0    0  0.13408418057E+02 -0.56553369819E+01 -0.33526460667E+02  0.36548489384E+02  0.51100000000E-03 0. -1.
        -11    1    3    3    0    0  0.13547743556E+01 -0.63937629575E+01 -0.66670961428E+01  0.93362620759E+01  0.51100000000E-03 0.  1.
        -12    1    3    3    0    0 -0.13929644327E+02  0.12814055043E+02  0.39857267835E+02  0.44122973574E+02  0.00000000000E+00 0.  1.
</event>
<event>
 7    1  0.2593256E-015  0.9000763E+02  0.7816164E-02  0.1186339E+00
        -11   -1    0    0    0    0  0.00000000000E+00  0.00000000000E+00  0.45593999997E+02  0.45594000000E+02  0.51100000000E-03 0.  1.
         11   -1    0    0    0    0 -0.00000000000E+00 -0.00000000000E+00 -0.45593999997E+02  0.45594000000E+02  0.51100000000E-03 0. -1.
    9900012    2    1    2    0    0  0.77473308367E+00 -0.87200494695E+00  0.18073991831E+00  0.90007631034E+02  0.89999890963E+02 0.  0.
        -12    1    1    2    0    0 -0.77473308367E+00  0.87200494695E+00 -0.18073991831E+00  0.11803689663E+01  0.00000000000E+00 0.  1.
         11    1    3    3    0    0  0.23877267944E+02  0.24802555970E+02  0.38134056875E+01  0.34638602315E+02  0.51100000000E-03 0. -1.
        -11    1    3    3    0    0  0.65857553238E+01  0.72535198178E+01 -0.50265318988E+01  0.11011437060E+02  0.51100000000E-03 0.  1.
        -12    1    3    3    0    0 -0.29688290185E+02 -0.32928080735E+02  0.13938661296E+01  0.44357591659E+02  0.00000000000E+00 0.  1.
</event>
<event>
 7    1  0.2593256E-015  0.9000767E+02  0.7816164E-02  0.1186339E+00
        -11   -1    0    0    0    0  0.00000000000E+00  0.00000000000E+00  0.45593999997E+02  0.45594000000E+02  0.51100000000E-03 0.  1.
         11   -1    0    0    0    0 -0.00000000000E+00 -0.00000000000E+00 -0.45593999997E+02  0.45594000000E+02  0.51100000000E-03 0. -1.
    9900012    2    1    2    0    0  0.70593403188E+00 -0.94583975764E+00  0.14953184175E-01  0.90007669833E+02  0.89999930275E+02 0.  0.
        -12    1    1    2    0    0 -0.70593403188E+00  0.94583975764E+00 -0.14953184175E-01  0.11803301666E+01  0.00000000000E+00 0.  1.
         11    1    3    3    0    0  0.83320581485E+01  0.48563445731E+01 -0.11493536404E+01  0.97122752049E+01  0.51100000000E-03 0. -1.
        -11    1    3    3    0    0  0.19917542912E+02 -0.31523825654E+02  0.14939762795E+02  0.40170344935E+02  0.51100000000E-03 0.  1.
         12    1    3    3    0    0 -0.27543667028E+02  0.25721641324E+02 -0.13775455971E+02  0.40125049694E+02  0.00000000000E+00 0. -1.
</event>
<event>
 7    1  0.2593256E-015  0.9000772E+02  0.7816164E-02  0.1186339E+00
        -11   -1    0    0    0    0  0.00000000000E+00  0.00000000000E+00  0.45593999997E+02  0.45594000000E+02  0.51100000000E-03 0. -1.
         11   -1    0    0    0    0 -0.00000000000E+00 -0.00000000000E+00 -0.45593999997E+02  0.45594000000E+02  0.51100000000E-03 0.  1.
    9900012    2    1    2    0    0 -0.91831830070E+00 -0.73769828232E+00 -0.74566965114E-01  0.90007717199E+02  0.89999978266E+02 0.  0.
        -12    1    1    2    0    0  0.91831830070E+00  0.73769828232E+00  0.74566965114E-01  0.11802828006E+01  0.00000000000E+00 0.  1.
         11    1    3    3    0    0  0.13360622447E+01  0.12707686481E+02  0.51230207705E+01  0.13766470139E+02  0.51100000000E-03 0. -1.
        -11    1    3    3    0    0 -0.26868017303E+02  0.17330448030E+02  0.10746460464E+02  0.33730122969E+02  0.51100000000E-03 0.  1.
         12    1    3    3    0    0  0.24613636758E+02 -0.30775832793E+02 -0.15944048199E+02  0.42511124092E+02  0.00000000000E+00 0. -1.
</event>
<event>
 7    1  0.2593256E-015  0.9000777E+02  0.7816164E-02  0.1186339E+00
        -11   -1    0    0    0    0  0.00000000000E+00  0.00000000000E+00  0.45593999997E+02  0.45594000000E+02  0.51100000000E-03 0.  1.
         11   -1    0    0    0    0 -0.00000000000E+00 -0.00000000000E+00 -0.45593999997E+02  0.45594000000E+02  0.51100000000E-03 0. -1.
    9900012    2    1    2    0    0 -0.10532557750E+01  0.12596484591E+00  0.51741484028E+00  0.90007774180E+02  0.90000035999E+02 0.  0.
        -12    1    1    2    0    0  0.10532557750E+01 -0.12596484591E+00 -0.51741484028E+00  0.11802258203E+01  0.00000000000E+00 0.  1.
         11    1    3    3    0    0 -0.86978624022E+01 -0.79939434745E+01 -0.23244199230E+01  0.12039886664E+02  0.51100000000E-03 0. -1.
        -11    1    3    3    0    0 -0.20052820478E+02  0.21226722199E+02  0.26361705021E+02  0.39339914035E+02  0.51100000000E-03 0.  1.
         12    1    3    3    0    0  0.27697427105E+02 -0.13106813879E+02 -0.23519870257E+02  0.38627973481E+02  0.00000000000E+00 0. -1.
</event>
<event>
 7    1  0.2593256E-015  0.9000778E+02  0.7816164E-02  0.1186339E+00
        -11   -1    0    0    0    0  0.00000000000E+00  0.00000000000E+00  0.45593999997E+02  0.45594000000E+02  0.51100000000E-03 0. -1.
         11   -1    0    0    0    0 -0.00000000000E+00 -0.00000000000E+00 -0.45593999997E+02  0.45594000000E+02  0.51100000000E-03 0.  1.
    9900012    2    1    2    0    0 -0.38694389159E+00 -0.50347088047E+00  0.99484301269E+00  0.90007779206E+02  0.90000041091E+02 0.  0.
        -12    1    1    2    0    0  0.38694389159E+00  0.50347088047E+00 -0.99484301269E+00  0.11802207940E+01  0.00000000000E+00 0.  1.
         11    1    3    3    0    0 -0.50424079354E+01  0.80982353369E+01  0.45231686584E+00  0.95504913050E+01  0.51100000000E-03 0. -1.
        -11    1    3    3    0    0  0.25796173477E+02 -0.33917937329E+02  0.13972688258E+02  0.44845345980E+02  0.51100000000E-03 0.  1.
         12    1    3    3    0    0 -0.21140709433E+02  0.25316231111E+02 -0.13430162111E+02  0.35611941921E+02  0.00000000000E+00 0. -1.
</event>
<event>
 7    1  0.2593256E-015  0.9000768E+02  0.7816164E-02  0.1186339E+00
        -11   -1    0    0    0    0  0.00000000000E+00  0.00000000000E+00  0.45593999997E+02  0.45594000000E+02  0.51100000000E-03 0.  1.
         11   -1    0    0    0    0 -0.00000000000E+00 -0.00000000000E+00 -0.45593999997E+02  0.45594000000E+02  0.51100000000E-03 0. -1.
    9900012    2    1    2    0    0 -0.40272581981E+00 -0.11038924014E+01 -0.11127700474E+00  0.90007682631E+02  0.89999943242E+02 0.  0.
        -12    1    1    2    0    0  0.40272581981E+00  0.11038924014E+01  0.11127700474E+00  0.11803173690E+01  0.00000000000E+00 0.  1.
         11    1    3    3    0    0 -0.56546021499E+01 -0.60399200907E+01 -0.38301893084E+01  0.91173192647E+01  0.51100000000E-03 0. -1.
        -11    1    3    3    0    0 -0.22202240328E+02 -0.27185168246E+02 -0.99444969619E+01  0.36481034363E+02  0.51100000000E-03 0.  1.
         12    1    3    3    0    0  0.27454116658E+02  0.32121195935E+02  0.13663409266E+02  0.44409329003E+02  0.00000000000E+00 0. -1.
</event>
<event>
 7    1  0.2593256E-015  0.9000763E+02  0.7816164E-02  0.1186339E+00
        -11   -1    0    0    0    0  0.00000000000E+00  0.00000000000E+00  0.45593999997E+02  0.45594000000E+02  0.51100000000E-03 0.  1.
         11   -1    0    0    0    0 -0.00000000000E+00 -0.00000000000E+00 -0.45593999997E+02  0.45594000000E+02  0.51100000000E-03 0. -1.
    9900012    2    1    2    0    0 -0.98279681681E+00  0.15371616046E+00  0.63542434343E+00  0.90007626187E+02  0.89999886053E+02 0.  0.
        -12    1    1    2    0    0  0.98279681681E+00 -0.15371616046E+00 -0.63542434343E+00  0.11803738125E+01  0.00000000000E+00 0.  1.
         11    1    3    3    0    0  0.40114069995E+01  0.33125123737E+02  0.47733364907E+01  0.33706823496E+02  0.51100000000E-03 0. -1.
        -11    1    3    3    0    0  0.84497826912E+01  0.48816846949E+01 -0.11898469822E+02  0.15388413087E+02  0.51100000000E-03 0.  1.
        -12    1    3    3    0    0 -0.13443986507E+02 -0.37853092271E+02  0.77605576744E+01  0.40912389604E+02  0.00000000000E+00 0.  1.
</event>
<event>
 7    1  0.2593256E-015  0.9000771E+02  0.7816164E-02  0.1186339E+00
        -11   -1    0    0    0    0  0.00000000000E+00  0.00000000000E+00  0.45593999997E+02  0.45594000000E+02  0.51100000000E-03 0. -1.
         11   -1    0    0    0    0 -0.00000000000E+00 -0.00000000000E+00 -0.45593999997E+02  0.45594000000E+02  0.51100000000E-03 0.  1.
    9900012    2    1    2    0    0  0.14846868509E+00 -0.11291788089E+01  0.30981440467E+00  0.90007714993E+02  0.89999976031E+02 0.  0.
        -12    1    1    2    0    0 -0.14846868509E+00  0.11291788089E+01 -0.30981440467E+00  0.11802850073E+01  0.00000000000E+00 0.  1.
         11    1    3    3    0    0 -0.85008297985E+01  0.18928175162E+01 -0.11576170558E+01  0.87856099914E+01  0.51100000000E-03 0. -1.
        -11    1    3    3    0    0  0.70665220442E+01  0.38354303083E+02 -0.49802295401E+01  0.39316548492E+02  0.51100000000E-03 0.  1.
         12    1    3    3    0    0  0.15827764394E+01 -0.41376299408E+02  0.64476610006E+01  0.41905556509E+02  0.00000000000E+00 0. -1.
</event>
<event>
 7    1  0.2593256E-015  0.9000773E+02  0.7816164E-02  0.1186339E+00
        -11   -1    0    0    0    0  0.00000000000E+00  0.00000000000E+00  0.45593999997E+02  0.45594000000E+02  0.51100000000E-03 0.  1.
         11   -1    0    0    0    0 -0.00000000000E+00 -0.00000000000E+00 -0.45593999997E+02  0.45594000000E+02  0.51100000000E-03 0. -1.
    9900012    2    1    2    0    0  0.13370644407E+00 -0.10254826517E+01 -0.56880821756E+00  0.90007731018E+02  0.89999992267E+02 0.  0.
        -12    1    1    2    0    0 -0.13370644407E+00  0.10254826517E+01  0.56880821756E+00  0.11802689823E+01  0.00000000000E+00 0.  1.
         11    1    3    3    0    0 -0.24650381410E+02 -0.13464405138E+02 -0.24241603282E+02  0.37102383203E+02  0.51100000000E-03 0. -1.
        -11    1    3    3    0    0  0.76993003455E+00  0.72749630727E+01 -0.92726203478E+01  0.11810985071E+02  0.51100000000E-03 0.  1.
        -12    1    3    3    0    0  0.24014157820E+02  0.51639594135E+01  0.32945415412E+02  0.41094362744E+02  0.00000000000E+00 0.  1.
</event>
<event>
 7    1  0.2593256E-015  0.9000773E+02  0.7816164E-02  0.1186339E+00
        -11   -1    0    0    0    0  0.00000000000E+00  0.00000000000E+00  0.45593999997E+02  0.45594000000E+02  0.51100000000E-03 0. -1.
         11   -1    0    0    0    0 -0.00000000000E+00 -0.00000000000E+00 -0.45593999997E+02  0.45594000000E+02  0.51100000000E-03 0.  1.
    9900012    2    1    2    0    0 -0.10068220450E+01 -0.58486412112E+00 -0.19305711945E+00  0.90007734046E+02  0.89999995336E+02 0.  0.
        -12    1    1    2    0    0  0.10068220450E+01  0.58486412112E+00  0.19305711945E+00  0.11802659538E+01  0.00000000000E+00 0.  1.
         11    1    3    3    0    0 -0.74592767373E+01  0.25389423952E+02  0.26622292253E+02  0.37536783335E+02  0.51100000000E-03 0. -1.
        -11    1    3    3    0    0 -0.11193443674E+02 -0.49416863848E+01  0.23030374332E+01  0.12450599475E+02  0.51100000000E-03 0.  1.
        -12    1    3    3    0    0  0.17645898366E+02 -0.21032601688E+02 -0.29118386806E+02  0.40020351237E+02  0.00000000000E+00 0.  1.
</event>
<event>
 7    1  0.2593256E-015  0.9000770E+02  0.7816164E-02  0.1186339E+00
        -11   -1    0    0    0    0  0.00000000000E+00  0.00000000000E+00  0.45593999997E+02  0.45594000000E+02  0.51100000000E-03 0.  1.
         11   -1    0    0    0    0 -0.00000000000E+00 -0.00000000000E+00 -0.45593999997E+02  0.45594000000E+02  0.51100000000E-03 0. -1.
    9900012    2    1    2    0    0  0.45670843381E-01 -0.11563042811E+01 -0.23236381891E+00  0.90007695649E+02  0.89999956432E+02 0.  0.
        -12    1    1    2    0    0 -0.45670843381E-01  0.11563042811E+01  0.23236381891E+00  0.11803043509E+01  0.00000000000E+00 0.  1.
         11    1    3    3    0    0  0.37165769318E+02 -0.18029856064E+02 -0.18911493604E+01  0.41351500152E+02  0.51100000000E-03 0. -1.
        -11    1    3    3    0    0 -0.49601231796E+01 -0.52770521710E+01 -0.53214554969E+01  0.89871013368E+01  0.51100000000E-03 0.  1.
        -12    1    3    3    0    0 -0.32159975295E+02  0.22150603954E+02  0.69802410384E+01  0.39669094160E+02  0.00000000000E+00 0.  1.
</event>
<event>
 7    1  0.2593256E-015  0.9000865E+02  0.7816164E-02  0.1186337E+00
        -11   -1    0    0    0    0  0.00000000000E+00  0.00000000000E+00  0.45593999997E+02  0.45594000000E+02  0.51100000000E-03 0.  1.
         11   -1    0    0    0    0 -0.00000000000E+00 -0.00000000000E+00 -0.45593999997E+02  0.45594000000E+02  0.51100000000E-03 0. -1.
    9900012    2    1    2    0    0 -0.11491195748E+01 -0.10810053689E+00 -0.24228581829E+00  0.90008651052E+02  0.90000924441E+02 0.  0.
        -12    1    1    2    0    0  0.11491195748E+01  0.10810053689E+00  0.24228581829E+00  0.11793489479E+01  0.00000000000E+00 0.  1.
         11    1    3    3    0    0  0.17844421213E+02  0.17153971596E+02  0.26236135415E+02  0.36069612027E+02  0.51100000000E-03 0. -1.
        -11    1    3    3    0    0  0.18453165256E+00  0.10618900590E+02  0.54282108379E+00  0.10634366773E+02  0.51100000000E-03 0.  1.
         12    1    3    3    0    0 -0.19178072441E+02 -0.27880972723E+02 -0.27021242318E+02  0.43304672253E+02  0.00000000000E+00 0. -1.
</event>
<event>
 7    1  0.2593256E-015  0.9000801E+02  0.7816164E-02  0.1186339E+00
        -11   -1    0    0    0    0  0.00000000000E+00  0.00000000000E+00  0.45593999997E+02  0.45594000000E+02  0.51100000000E-03 0.  1.
         11   -1    0    0    0    0 -0.00000000000E+00 -0.00000000000E+00 -0.45593999997E+02  0.45594000000E+02  0.51100000000E-03 0. -1.
    9900012    2    1    2    0    0 -0.74659646116E+00  0.71877143662E+00 -0.56422425514E+00  0.90008005227E+02  0.90000270096E+02 0.  0.
        -12    1    1    2    0    0  0.74659646116E+00 -0.71877143662E+00  0.56422425514E+00  0.11799947729E+01  0.00000000000E+00 0.  1.
         11    1    3    3    0    0 -0.20774955345E+01 -0.92948413431E+01 -0.12593808934E+02  0.15789682930E+02  0.51100000000E-03 0. -1.
        -11    1    3    3    0    0  0.18323531739E+02  0.32461604590E+02 -0.98573478101E+01  0.38557423332E+02  0.51100000000E-03 0.  1.
         12    1    3    3    0    0 -0.16992632665E+02 -0.22447991810E+02  0.21886932489E+02  0.35660898965E+02  0.00000000000E+00 0. -1.
</event>
<event>
 7    1  0.2593256E-015  0.9000782E+02  0.7816164E-02  0.1186339E+00
        -11   -1    0    0    0    0  0.00000000000E+00  0.00000000000E+00  0.45593999997E+02  0.45594000000E+02  0.51100000000E-03 0.  1.
         11   -1    0    0    0    0 -0.00000000000E+00 -0.00000000000E+00 -0.45593999997E+02  0.45594000000E+02  0.51100000000E-03 0. -1.
    9900012    2    1    2    0    0 -0.26375201834E-01 -0.72484812162E+00 -0.93098478543E+00  0.90007816488E+02  0.90000078866E+02 0.  0.
        -12    1    1    2    0    0  0.26375201834E-01  0.72484812162E+00  0.93098478543E+00  0.11801835117E+01  0.00000000000E+00 0.  1.
         11    1    3    3    0    0 -0.28006145750E+02 -0.12526043013E+02 -0.24973134622E+02  0.39558860025E+02  0.51100000000E-03 0. -1.
        -11    1    3    3    0    0  0.49393989137E+01  0.66779937969E+01 -0.74060976040E+01  0.11128501461E+02  0.51100000000E-03 0.  1.
        -12    1    3    3    0    0  0.23040371635E+02  0.51232010947E+01  0.31448247441E+02  0.39320455003E+02  0.00000000000E+00 0.  1.
</event>
<event>
 7    1  0.2593256E-015  0.9000742E+02  0.7816164E-02  0.1186340E+00
        -11   -1    0    0    0    0  0.00000000000E+00  0.00000000000E+00  0.45593999997E+02  0.45594000000E+02  0.51100000000E-03 0. -1.
         11   -1    0    0    0    0 -0.00000000000E+00 -0.00000000000E+00 -0.45593999997E+02  0.45594000000E+02  0.51100000000E-03 0.  1.
    9900012    2    1    2    0    0 -0.68571756639E+00 -0.73331473389E+00  0.62113370447E+00  0.90007421261E+02  0.89999678421E+02 0.  0.
        -12    1    1    2    0    0  0.68571756639E+00  0.73331473389E+00 -0.62113370447E+00  0.11805787388E+01  0.00000000000E+00 0.  1.
         11    1    3    3    0    0 -0.35994008402E+02  0.40322961381E+00 -0.93095809551E+01  0.37180633840E+02  0.51100000000E-03 0. -1.
        -11    1    3    3    0    0 -0.63041145531E+01 -0.45784106881E+01 -0.40664711066E+01  0.87886228870E+01  0.51100000000E-03 0.  1.
        -12    1    3    3    0    0  0.41612405389E+02  0.34418663405E+01  0.13997185766E+02  0.44038164534E+02  0.00000000000E+00 0.  1.
</event>
<event>
 7    1  0.2593256E-015  0.9000771E+02  0.7816164E-02  0.1186339E+00
        -11   -1    0    0    0    0  0.00000000000E+00  0.00000000000E+00  0.45593999997E+02  0.45594000000E+02  0.51100000000E-03 0. -1.
         11   -1    0    0    0    0 -0.00000000000E+00 -0.00000000000E+00 -0.45593999997E+02  0.45594000000E+02  0.51100000000E-03 0.  1.
    9900012    2    1    2    0    0 -0.11207089302E+01  0.27313372078E+00  0.24997758103E+00  0.90007712185E+02  0.89999973186E+02 0.  0.
        -12    1    1    2    0    0  0.11207089302E+01 -0.27313372078E+00 -0.24997758103E+00  0.11802878151E+01  0.00000000000E+00 0.  1.
         11    1    3    3    0    0 -0.34847154173E+00  0.43595442018E+01 -0.69273399521E+01  0.81923804316E+01  0.51100000000E-03 0. -1.
        -11    1    3    3    0    0  0.11000611650E+02 -0.98795798670E+01 -0.34812969206E+02  0.37822775946E+02  0.51100000000E-03 0.  1.
         12    1    3    3    0    0 -0.11772849038E+02  0.57931693859E+01  0.41990286739E+02  0.43992555807E+02  0.00000000000E+00 0. -1.
</event>
<event>
 7    1  0.2593256E-015  0.9000774E+02  0.7816164E-02  0.1186339E+00
        -11   -1    0    0    0    0  0.00000000000E+00  0.00000000000E+00  0.45593999997E+02  0.45594000000E+02  0.51100000000E-03 0.  1.
         11   -1    0    0    0    0 -0.00000000000E+00 -0.00000000000E+00 -0.45593999997E+02  0.45594000000E+02  0.51100000000E-03 0. -1.
    9900012    2    1    2    0    0  0.20469757013E+00 -0.11577867394E+01  0.10312943392E+00  0.90007742863E+02  0.90000004269E+02 0.  0.
        -12    1    1    2    0    0 -0.20469757013E+00  0.11577867394E+01 -0.10312943392E+00  0.11802571369E+01  0.00000000000E+00 0.  1.
         11    1    3    3    0    0 -0.46388191422E+01  0.42997909878E+01 -0.61624771876E+01  0.88307967320E+01  0.51100000000E-03 0. -1.
        -11    1    3    3    0    0 -0.11428142976E+01  0.10967454959E+02  0.40910867497E+02  0.42370864664E+02  0.51100000000E-03 0.  1.
         12    1    3    3    0    0  0.59863310099E+01 -0.16425032686E+02 -0.34645260875E+02  0.38806081467E+02  0.00000000000E+00 0. -1.
</event>
<event>
 7    1  0.2593256E-015  0.9000764E+02  0.7816164E-02  0.1186339E+00
        -11   -1    0    0    0    0  0.00000000000E+00  0.00000000000E+00  0.45593999997E+02  0.45594000000E+02  0.51100000000E-03 0.  1.
         11   -1    0    0    0    0 -0.00000000000E+00 -0.00000000000E+00 -0.45593999997E+02  0.45594000000E+02  0.51100000000E-03 0. -1.
    9900012    2    1    2    0    0  0.58492393269E+00 -0.60460460721E+00 -0.82798976210E+00  0.90007639977E+02  0.89999900024E+02 0.  0.
        -12    1    1    2    0    0 -0.58492393269E+00  0.60460460721E+00  0.82798976210E+00  0.11803600231E+01  0.00000000000E+00 0.  1.
         11    1    3    3    0    0  0.88300360594E+01 -0.12745219433E+01 -0.16752511515E+01  0.90774671399E+01  0.51100000000E-03 0. -1.
        -11    1    3    3    0    0  0.32971936676E+02 -0.29064649569E+01  0.16136312589E+02  0.36823589327E+02  0.51100000000E-03 0.  1.
         12    1    3    3    0    0 -0.41217048803E+02  0.35763822930E+01 -0.15289051200E+02  0.44106583510E+02  0.00000000000E+00 0. -1.
</event>
<event>
 7    1  0.2593256E-015  0.9000762E+02  0.7816164E-02  0.1186339E+00
        -11   -1    0    0    0    0  0.00000000000E+00  0.00000000000E+00  0.45593999997E+02  0.45594000000E+02  0.51100000000E-03 0.  1.
         11   -1    0    0    0    0 -0.00000000000E+00 -0.00000000000E+00 -0.45593999997E+02  0.45594000000E+02  0.51100000000E-03 0. -1.
    9900012    2    1    2    0    0  0.11288570580E+01  0.65775242304E-01  0.33859916080E+00  0.90007621234E+02  0.89999881034E+02 0.  0.
        -12    1    1    2    0    0 -0.11288570580E+01 -0.65775242304E-01 -0.33859916080E+00  0.11803787661E+01  0.00000000000E+00 0.  1.
         11    1    3    3    0    0  0.20783640974E+02  0.27213310809E+02 -0.16037624683E+02  0.37811763025E+02  0.51100000000E-03 0. -1.
        -11    1    3    3    0    0  0.49158055975E+00  0.48350433613E+01 -0.64221174294E+01  0.80537499521E+01  0.51100000000E-03 0.  1.
        -12    1    3    3    0    0 -0.20146364476E+02 -0.31982578928E+02  0.22798341273E+02  0.44142108256E+02  0.00000000000E+00 0.  1.
</event>
<event>
 7    1  0.2593256E-015  0.9000772E+02  0.7816164E-02  0.1186339E+00
        -11   -1    0    0    0    0  0.00000000000E+00  0.00000000000E+00  0.45593999997E+02  0.45594000000E+02  0.51100000000E-03 0. -1.
         11   -1    0    0    0    0 -0.00000000000E+00 -0.00000000000E+00 -0.45593999997E+02  0.45594000000E+02  0.51100000000E-03 0.  1.
    9900012    2    1    2    0    0 -0.97267613566E+00 -0.43712300744E+00  0.50584906486E+00  0.90007720938E+02  0.89999982054E+02 0.  0.
        -12    1    1    2    0    0  0.97267613566E+00  0.43712300744E+00 -0.50584906486E+00  0.11802790623E+01  0.00000000000E+00 0.  1.
         11    1    3    3    0    0 -0.14883206064E+02 -0.28490526576E+02  0.24534807792E+02  0.40437318419E+02  0.51100000000E-03 0. -1.
        -11    1    3    3    0    0  0.52725170310E+01 -0.59015708526E+01 -0.19265764120E+01  0.81449168997E+01  0.51100000000E-03 0.  1.
        -12    1    3    3    0    0  0.86380128972E+01  0.33954974421E+02 -0.22102382315E+02  0.41425485619E+02  0.00000000000E+00 0.  1.
</event>
<event>
 7    1  0.2593256E-015  0.9000746E+02  0.7816164E-02  0.1186340E+00
        -11   -1    0    0    0    0  0.00000000000E+00  0.00000000000E+00  0.45593999997E+02  0.45594000000E+02  0.51100000000E-03 0.  1.
         11   -1    0    0    0    0 -0.00000000000E+00 -0.00000000000E+00 -0.45593999997E+02  0.45594000000E+02  0.51100000000E-03 0. -1.
    9900012    2    1    2    0    0  0.33437720198E-01  0.10028458044E+01 -0.62197864024E+00  0.90007459777E+02  0.89999717446E+02 0.  0.
        -12    1    1    2    0    0 -0.33437720198E-01 -0.10028458044E+01  0.62197864024E+00  0.11805402227E+01  0.00000000000E+00 0.  1.
         11    1    3    3    0    0  0.89885609627E+01  0.56334796337E+01 -0.41942769699E+00  0.10616319551E+02  0.51100000000E-03 0. -1.
        -11    1    3    3    0    0  0.50703947857E+01  0.22393489342E+02  0.29145138910E+02  0.37102781439E+02  0.51100000000E-03 0.  1.
         12    1    3    3    0    0 -0.14025518028E+02 -0.27024123172E+02 -0.29347689853E+02  0.42288358787E+02  0.00000000000E+00 0. -1.
</event>
<event>
 7    1  0.2593256E-015  0.9000774E+02  0.7816164E-02  0.1186339E+00
        -11   -1    0    0    0    0  0.00000000000E+00  0.00000000000E+00  0.45593999997E+02  0.45594000000E+02  0.51100000000E-03 0.  1.
         11   -1    0    0    0    0 -0.00000000000E+00 -0.00000000000E+00 -0.45593999997E+02  0.45594000000E+02  0.51100000000E-03 0. -1.
    9900012    2    1    2    0    0 -0.35566369332E+00 -0.40970828371E+00 -0.10481675638E+01  0.90007740375E+02  0.90000001748E+02 0.  0.
        -12    1    1    2    0    0  0.35566369332E+00  0.40970828371E+00  0.10481675638E+01  0.11802596250E+01  0.00000000000E+00 0.  1.
         11    1    3    3    0    0 -0.25093999968E+02  0.32657166159E+02  0.55748440159E+01  0.41560536835E+02  0.51100000000E-03 0. -1.
        -11    1    3    3    0    0  0.11894181286E+01 -0.41802936623E+01  0.74372625477E+01  0.86140841099E+01  0.51100000000E-03 0.  1.
        -12    1    3    3    0    0  0.23548918146E+02 -0.28886580780E+02 -0.14060274127E+02  0.39833119430E+02  0.00000000000E+00 0.  1.
</event>
<event>
 7    1  0.2593256E-015  0.9000778E+02  0.7816164E-02  0.1186339E+00
        -11   -1    0    0    0    0  0.00000000000E+00  0.00000000000E+00  0.45593999997E+02  0.45594000000E+02  0.51100000000E-03 0. -1.
         11   -1    0    0    0    0 -0.00000000000E+00 -0.00000000000E+00 -0.45593999997E+02  0.45594000000E+02  0.51100000000E-03 0.  1.
    9900012    2    1    2    0    0 -0.96583452499E+00 -0.11427985774E-02  0.67829462615E+00  0.90007779158E+02  0.90000041043E+02 0.  0.
        -12    1    1    2    0    0  0.96583452499E+00  0.11427985774E-02 -0.67829462615E+00  0.11802208418E+01  0.00000000000E+00 0.  1.
         11    1    3    3    0    0  0.50281393286E+01 -0.17517182166E+02  0.36462613803E+02  0.40763415727E+02  0.51100000000E-03 0. -1.
        -11    1    3    3    0    0 -0.10063648308E+02 -0.19741434964E+01 -0.26570442880E+01  0.10594061753E+02  0.51100000000E-03 0.  1.
        -12    1    3    3    0    0  0.40696744545E+01  0.19490182864E+02 -0.33127274889E+02  0.38650301678E+02  0.00000000000E+00 0.  1.
</event>
<event>
 7    1  0.2593256E-015  0.9000781E+02  0.7816164E-02  0.1186339E+00
        -11   -1    0    0    0    0  0.00000000000E+00  0.00000000000E+00  0.45593999997E+02  0.45594000000E+02  0.51100000000E-03 0. -1.
         11   -1    0    0    0    0 -0.00000000000E+00 -0.00000000000E+00 -0.45593999997E+02  0.45594000000E+02  0.51100000000E-03 0.  1.
    9900012    2    1    2    0    0  0.86751560141E+00 -0.39550522054E+00  0.69559429093E+00  0.90007805475E+02  0.90000067708E+02 0.  0.
        -12    1    1    2    0    0 -0.86751560141E+00  0.39550522054E+00 -0.69559429093E+00  0.11801945245E+01  0.00000000000E+00 0.  1.
         11    1    3    3    0    0 -0.20795265385E+02  0.20838293107E+02  0.22323160980E+02  0.36945920457E+02  0.51100000000E-03 0. -1.
        -11    1    3    3    0    0 -0.41902232247E+01 -0.66781998006E+00  0.77616784913E+01  0.88457677712E+01  0.51100000000E-03 0.  1.
        -12    1    3    3    0    0  0.25853004211E+02 -0.20565978348E+02 -0.29389245180E+02  0.44216117247E+02  0.00000000000E+00 0.  1.
</event>
<event>
 7    1  0.2593256E-015  0.9000781E+02  0.7816164E-02  0.1186339E+00
        -11   -1    0    0    0    0  0.00000000000E+00  0.00000000000E+00  0.45593999997E+02  0.45594000000E+02  0.51100000000E-03 0. -1.
         11   -1    0    0    0    0 -0.00000000000E+00 -0.00000000000E+00 -0.45593999997E+02  0.45594000000E+02  0.51100000000E-03 0.  1.
    9900012    2    1    2    0    0  0.23114088158E+00 -0.58509395894E+00  0.99854492602E+00  0.90007808059E+02  0.90000070326E+02 0.  0.
        -12    1    1    2    0    0 -0.23114088158E+00  0.58509395894E+00 -0.99854492602E+00  0.11801919408E+01  0.00000000000E+00 0.  1.
         11    1    3    3    0    0  0.25435885240E+02  0.14523882667E+02  0.22589037736E+02  0.36989080169E+02  0.51100000000E-03 0. -1.
        -11    1    3    3    0    0  0.64939973838E+01  0.70516520142E+01 -0.26086818471E+01  0.99349393250E+01  0.51100000000E-03 0.  1.
        -12    1    3    3    0    0 -0.31698741742E+02 -0.22160628640E+02 -0.18981810963E+02  0.43083788565E+02  0.00000000000E+00 0.  1.
</event>
<event>
 7    1  0.2593256E-015  0.9000813E+02  0.7816164E-02  0.1186338E+00
        -11   -1    0    0    0    0  0.00000000000E+00  0.00000000000E+00  0.45593999997E+02  0.45594000000E+02  0.51100000000E-03 0.  1.
         11   -1    0    0    0    0 -0.00000000000E+00 -0.00000000000E+00 -0.45593999997E+02  0.45594000000E+02  0.51100000000E-03 0. -1.
    9900012    2    1    2    0    0  0.27965980088E-01  0.76852071022E+00 -0.89481432808E+00  0.90008127609E+02  0.90000394092E+02 0.  0.
        -12    1    1    2    0    0 -0.27965980088E-01 -0.76852071022E+00  0.89481432808E+00  0.11798723913E+01  0.00000000000E+00 0.  1.
         11    1    3    3    0    0 -0.10565220258E+02  0.40121668462E+02 -0.13823891038E+02  0.43731820485E+02  0.51100000000E-03 0. -1.
        -11    1    3    3    0    0  0.73899947847E+01 -0.54157394394E+01 -0.14563049489E+01  0.92770189694E+01  0.51100000000E-03 0.  1.
        -12    1    3    3    0    0  0.32031914530E+01 -0.33937408312E+02  0.14385381659E+02  0.36999288154E+02  0.00000000000E+00 0.  1.
</event>
<event>
 7    1  0.2593256E-015  0.9000791E+02  0.7816164E-02  0.1186339E+00
        -11   -1    0    0    0    0  0.00000000000E+00  0.00000000000E+00  0.45593999997E+02  0.45594000000E+02  0.51100000000E-03 0. -1.
         11   -1    0    0    0    0 -0.00000000000E+00 -0.00000000000E+00 -0.45593999997E+02  0.45594000000E+02  0.51100000000E-03 0.  1.
    9900012    2    1    2    0    0 -0.64023174451E+00 -0.97594264142E+00  0.17395318488E+00  0.90007906598E+02  0.90000170165E+02 0.  0.
        -12    1    1    2    0    0  0.64023174451E+00  0.97594264142E+00 -0.17395318488E+00  0.11800934016E+01  0.00000000000E+00 0.  1.
         11    1    3    3    0    0 -0.70259103030E+01 -0.45856772749E+01 -0.48891496189E+01  0.97105940041E+01  0.51100000000E-03 0. -1.
        -11    1    3    3    0    0  0.10304874640E+02 -0.35425122079E+02 -0.10078886978E+02  0.38245439972E+02  0.51100000000E-03 0.  1.
         12    1    3    3    0    0 -0.39191960812E+01  0.39034856713E+02  0.15141989782E+02  0.42051872622E+02  0.00000000000E+00 0. -1.
</event>
<event>
 7    1  0.2593256E-015  0.9000770E+02  0.7816164E-02  0.1186339E+00
        -11   -1    0    0    0    0  0.00000000000E+00  0.00000000000E+00  0.45593999997E+02  0.45594000000E+02  0.51100000000E-03 0. -1.
         11   -1    0    0    0    0 -0.00000000000E+00 -0.00000000000E+00 -0.45593999997E+02  0.45594000000E+02  0.51100000000E-03 0.  1.
    9900012    2    1    2    0    0 -0.62749337537E+00 -0.70129872893E+00  0.71241550046E+00  0.90007701865E+02  0.89999962729E+02 0.  0.
        -12    1    1    2    0    0  0.62749337537E+00  0.70129872893E+00 -0.71241550046E+00  0.11802981355E+01  0.00000000000E+00 0.  1.
         11    1    3    3    0    0 -0.53726573552E+01 -0.88647042352E+01 -0.18038711949E+01  0.10521519842E+02  0.51100000000E-03 0. -1.
        -11    1    3    3    0    0 -0.34746886280E+02  0.79088456500E+01  0.14108989985E+02  0.38327008027E+02  0.51100000000E-03 0.  1.
         12    1    3    3    0    0  0.39492050260E+02  0.25455985624E+00 -0.11592703289E+02  0.41159173996E+02  0.00000000000E+00 0. -1.
</event>
<event>
 7    1  0.2593256E-015  0.9000768E+02  0.7816164E-02  0.1186339E+00
        -11   -1    0    0    0    0  0.00000000000E+00  0.00000000000E+00  0.45593999997E+02  0.45594000000E+02  0.51100000000E-03 0. -1.
         11   -1    0    0    0    0 -0.00000000000E+00 -0.00000000000E+00 -0.45593999997E+02  0.45594000000E+02  0.51100000000E-03 0.  1.
    9900012    2    1    2    0    0  0.23874996109E+00 -0.11265666215E+01  0.25886867241E+00  0.90007675093E+02  0.89999935604E+02 0.  0.
        -12    1    1    2    0    0 -0.23874996109E+00  0.11265666215E+01 -0.25886867241E+00  0.11803249070E+01  0.00000000000E+00 0.  1.
         11    1    3    3    0    0 -0.35134364503E+01 -0.67161543399E+01 -0.60853214750E+01  0.97201904571E+01  0.51100000000E-03 0. -1.
        -11    1    3    3    0    0  0.21702946355E+02 -0.11056052402E+02 -0.28634900823E+02  0.37592708343E+02  0.51100000000E-03 0.  1.
         12    1    3    3    0    0 -0.17950759944E+02  0.16645640120E+02  0.34979090970E+02  0.42694776292E+02  0.00000000000E+00 0. -1.
</event>
<event>
 7    1  0.2593256E-015  0.9000772E+02  0.7816164E-02  0.1186339E+00
        -11   -1    0    0    0    0  0.00000000000E+00  0.00000000000E+00  0.45593999997E+02  0.45594000000E+02  0.51100000000E-03 0. -1.
         11   -1    0    0    0    0 -0.00000000000E+00 -0.00000000000E+00 -0.45593999997E+02  0.45594000000E+02  0.51100000000E-03 0.  1.
    9900012    2    1    2    0    0  0.11197525912E+01  0.25887827764E+00  0.26870726736E+00  0.90007717227E+02  0.89999978295E+02 0.  0.
        -12    1    1    2    0    0 -0.11197525912E+01 -0.25887827764E+00 -0.26870726736E+00  0.11802827727E+01  0.00000000000E+00 0.  1.
         11    1    3    3    0    0 -0.24246689137E+02 -0.82854285887E-01  0.34181326252E+02  0.41907897389E+02  0.51100000000E-03 0. -1.
        -11    1    3    3    0    0  0.51667804779E+00  0.74078520355E+01 -0.35420004695E+01  0.82273322269E+01  0.51100000000E-03 0.  1.
        -12    1    3    3    0    0  0.24849763680E+02 -0.70661194720E+01 -0.30370618515E+02  0.39872487612E+02  0.00000000000E+00 0.  1.
</event>
<event>
 7    1  0.2593256E-015  0.9000771E+02  0.7816164E-02  0.1186339E+00
        -11   -1    0    0    0    0  0.00000000000E+00  0.00000000000E+00  0.45593999997E+02  0.45594000000E+02  0.51100000000E-03 0. -1.
         11   -1    0    0    0    0 -0.00000000000E+00 -0.00000000000E+00 -0.45593999997E+02  0.45594000000E+02  0.51100000000E-03 0.  1.
    9900012    2    1    2    0    0  0.99791778755E+00  0.62737413945E+00  0.60445250181E-01  0.90007706880E+02  0.89999967811E+02 0.  0.
        -12    1    1    2    0    0 -0.99791778755E+00 -0.62737413945E+00 -0.60445250181E-01  0.11802931203E+01  0.00000000000E+00 0.  1.
         11    1    3    3    0    0 -0.59993056093E+01 -0.70428256084E+01 -0.23109409930E+01  0.95359062955E+01  0.51100000000E-03 0. -1.
        -11    1    3    3    0    0 -0.43161331749E+01 -0.26224119288E+02 -0.24198821447E+02  0.35943238553E+02  0.51100000000E-03 0.  1.
         12    1    3    3    0    0  0.11313356572E+02  0.33894319036E+02  0.26570207690E+02  0.44528562031E+02  0.00000000000E+00 0. -1.
</event>
<event>
 7    1  0.2593256E-015  0.9000779E+02  0.7816164E-02  0.1186339E+00
        -11   -1    0    0    0    0  0.00000000000E+00  0.00000000000E+00  0.45593999997E+02  0.45594000000E+02  0.51100000000E-03 0. -1.
         11   -1    0    0    0    0 -0.00000000000E+00 -0.00000000000E+00 -0.45593999997E+02  0.45594000000E+02  0.51100000000E-03 0.  1.
    9900012    2    1    2    0    0 -0.10850078843E+01  0.24082915830E+00 -0.39705762654E+00  0.90007790039E+02  0.90000052068E+02 0.  0.
        -12    1    1    2    0    0  0.10850078843E+01 -0.24082915830E+00  0.39705762654E+00  0.11802099607E+01  0.00000000000E+00 0.  1.
         11    1    3    3    0    0  0.23886431754E+01 -0.68671863636E+01  0.61901920946E+01  0.95489446119E+01  0.51100000000E-03 0. -1.
        -11    1    3    3    0    0 -0.10207853622E+02 -0.34966238521E+02  0.37345204727E+01  0.36616727808E+02  0.51100000000E-03 0.  1.
         12    1    3    3    0    0  0.67342025628E+01  0.42074254043E+02 -0.10321770194E+02  0.43842117620E+02  0.00000000000E+00 0. -1.
</event>
<event>
 7    1  0.2593256E-015  0.9000780E+02  0.7816164E-02  0.1186339E+00
        -11   -1    0    0    0    0  0.00000000000E+00  0.00000000000E+00  0.45593999997E+02  0.45594000000E+02  0.51100000000E-03 0.  1.
         11   -1    0    0    0    0 -0.00000000000E+00 -0.00000000000E+00 -0.45593999997E+02  0.45594000000E+02  0.51100000000E-03 0. -1.
    9900012    2    1    2    0    0 -0.73650800868E+00  0.26843662920E+00 -0.88225681501E+00  0.90007796900E+02  0.90000059019E+02 0.  0.
        -12    1    1    2    0    0  0.73650800868E+00 -0.26843662920E+00  0.88225681501E+00  0.11802031005E+01  0.00000000000E+00 0.  1.
         11    1    3    3    0    0 -0.45682008852E+00  0.12139489733E+02 -0.38082586587E+00  0.12154049703E+02  0.51100000000E-03 0. -1.
        -11    1    3    3    0    0  0.21587709255E+02 -0.33596704020E+02 -0.16399097746E+02  0.43170570057E+02  0.51100000000E-03 0.  1.
         12    1    3    3    0    0 -0.21867397175E+02  0.21725650915E+02  0.15897666797E+02  0.34683177140E+02  0.00000000000E+00 0. -1.
</event>
<event>
 7    1  0.2593256E-015  0.9000785E+02  0.7816164E-02  0.1186339E+00
        -11   -1    0    0    0    0  0.00000000000E+00  0.00000000000E+00  0.45593999997E+02  0.45594000000E+02  0.51100000000E-03 0. -1.
         11   -1    0    0    0    0 -0.00000000000E+00 -0.00000000000E+00 -0.45593999997E+02  0.45594000000E+02  0.51100000000E-03 0.  1.
    9900012    2    1    2    0    0  0.32051356113E+00 -0.79615469882E+00  0.81003298860E+00  0.90007853954E+02  0.90000116826E+02 0.  0.
        -12    1    1    2    0    0 -0.32051356113E+00  0.79615469882E+00 -0.81003298860E+00  0.11801460460E+01  0.00000000000E+00 0.  1.
         11    1    3    3    0    0  0.65332730823E+01 -0.12049647137E+02  0.39479369595E+02  0.41791126775E+02  0.51100000000E-03 0. -1.
        -11    1    3    3    0    0  0.64836647854E+01  0.68608240546E+01 -0.26970081450E+01  0.98174675427E+01  0.51100000000E-03 0.  1.
        -12    1    3    3    0    0 -0.12696424307E+02  0.43926683835E+01 -0.35972328461E+02  0.38399259636E+02  0.00000000000E+00 0.  1.
</event>
<event>
 7    1  0.2593256E-015  0.9000781E+02  0.7816164E-02  0.1186339E+00
        -11   -1    0    0    0    0  0.00000000000E+00  0.00000000000E+00  0.45593999997E+02  0.45594000000E+02  0.51100000000E-03 0.  1.
         11   -1    0    0    0    0 -0.00000000000E+00 -0.00000000000E+00 -0.45593999997E+02  0.45594000000E+02  0.51100000000E-03 0. -1.
    9900012    2    1    2    0    0 -0.70212926993E+00  0.90357761814E+00  0.28881693536E+00  0.90007807962E+02  0.90000070227E+02 0.  0.
        -12    1    1    2    0    0  0.70212926993E+00 -0.90357761814E+00 -0.28881693536E+00  0.11801920377E+01  0.00000000000E+00 0.  1.
         11    1    3    3    0    0  0.29577158753E+01 -0.63973936068E+01  0.53464024664E+01  0.88463974449E+01  0.51100000000E-03 0. -1.
        -11    1    3    3    0    0  0.15092834121E+02  0.38841091581E+02  0.75760889864E+01  0.42353525964E+02  0.51100000000E-03 0.  1.
         12    1    3    3    0    0 -0.18752679266E+02 -0.31540120356E+02 -0.12633674517E+02  0.38807884554E+02  0.00000000000E+00 0. -1.
</event>
<event>
 7    1  0.2593256E-015  0.9000771E+02  0.7816164E-02  0.1186339E+00
        -11   -1    0    0    0    0  0.00000000000E+00  0.00000000000E+00  0.45593999997E+02  0.45594000000E+02  0.51100000000E-03 0.  1.
         11   -1    0    0    0    0 -0.00000000000E+00 -0.00000000000E+00 -0.45593999997E+02  0.45594000000E+02  0.51100000000E-03 0. -1.
    9900012    2    1    2    0    0 -0.59198309274E+00 -0.85663681379E+00 -0.55571462948E+00  0.90007707933E+02  0.89999968878E+02 0.  0.
        -12    1    1    2    0    0  0.59198309274E+00  0.85663681379E+00  0.55571462948E+00  0.11802920665E+01  0.00000000000E+00 0.  1.
         11    1    3    3    0    0  0.83381505429E+01  0.47664172418E+01  0.37697454113E+01  0.10317677477E+02  0.51100000000E-03 0. -1.
        -11    1    3    3    0    0 -0.24954216095E+02  0.22329110894E+01  0.31152013138E+02  0.39976827234E+02  0.51100000000E-03 0.  1.
         12    1    3    3    0    0  0.16024082460E+02 -0.78559651451E+01 -0.35477473179E+02  0.39713203222E+02  0.00000000000E+00 0. -1.
</event>
<event>
 7    1  0.2593256E-015  0.9000778E+02  0.7816164E-02  0.1186339E+00
        -11   -1    0    0    0    0  0.00000000000E+00  0.00000000000E+00  0.45593999997E+02  0.45594000000E+02  0.51100000000E-03 0.  1.
         11   -1    0    0    0    0 -0.00000000000E+00 -0.00000000000E+00 -0.45593999997E+02  0.45594000000E+02  0.51100000000E-03 0. -1.
    9900012    2    1    2    0    0  0.61738806338E+00  0.23893754464E+00 -0.97706161829E+00  0.90007784521E+02  0.90000046477E+02 0.  0.
        -12    1    1    2    0    0 -0.61738806338E+00 -0.23893754464E+00  0.97706161829E+00  0.11802154790E+01  0.00000000000E+00 0.  1.
         11    1    3    3    0    0 -0.33962293607E+02 -0.56751506370E+01  0.44898989716E+01  0.34724687397E+02  0.51100000000E-03 0. -1.
        -11    1    3    3    0    0 -0.84551326155E+01 -0.57717249967E+01 -0.27848519080E+01  0.10609310882E+02  0.51100000000E-03 0.  1.
        -12    1    3    3    0    0  0.43034814285E+02  0.11685813178E+02 -0.26821086818E+01  0.44673786242E+02  0.00000000000E+00 0.  1.
</event>
<event>
 7    1  0.2593256E-015  0.9000759E+02  0.7816164E-02  0.1186339E+00
        -11   -1    0    0    0    0  0.00000000000E+00  0.00000000000E+00  0.45593999997E+02  0.45594000000E+02  0.51100000000E-03 0.  1.
         11   -1    0    0    0    0 -0.00000000000E+00 -0.00000000000E+00 -0.45593999997E+02  0.45594000000E+02  0.51100000000E-03 0. -1.
    9900012    2    1    2    0    0  0.18077912429E-01  0.10430031881E+01 -0.55242694877E+00  0.90007594140E+02  0.89999853582E+02 0.  0.
        -12    1    1    2    0    0 -0.18077912429E-01 -0.10430031881E+01  0.55242694877E+00  0.11804058603E+01  0.00000000000E+00 0.  1.
         11    1    3    3    0    0 -0.79398260193E+01  0.28997499900E+02  0.21026787741E+02  0.36688167583E+02  0.51100000000E-03 0. -1.
        -11    1    3    3    0    0  0.33021314854E+01  0.77734403004E+01  0.37868525325E+01  0.92558467368E+01  0.51100000000E-03 0.  1.
        -12    1    3    3    0    0  0.46557724464E+01 -0.35727937012E+02 -0.25366067222E+02  0.44063579820E+02  0.00000000000E+00 0.  1.
</event>
<event>
 7    1  0.2593256E-015  0.9000778E+02  0.7816164E-02  0.1186339E+00
        -11   -1    0    0    0    0  0.00000000000E+00  0.00000000000E+00  0.45593999997E+02  0.45594000000E+02  0.51100000000E-03 0.  1.
         11   -1    0    0    0    0 -0.00000000000E+00 -0.00000000000E+00 -0.45593999997E+02  0.45594000000E+02  0.51100000000E-03 0. -1.
    9900012    2    1    2    0    0  0.42402319920E-01  0.99119495583E+00 -0.63926660440E+00  0.90007776636E+02  0.90000038488E+02 0.  0.
        -12    1    1    2    0    0 -0.42402319920E-01 -0.99119495583E+00  0.63926660440E+00  0.11802233639E+01  0.00000000000E+00 0.  1.
         11    1    3    3    0    0  0.24108271270E+02 -0.12985819984E+02 -0.24881916328E+02  0.36999324652E+02  0.51100000000E-03 0. -1.
        -11    1    3    3    0    0 -0.84276158581E+01 -0.12360852706E+01 -0.95425523392E+01  0.12791126661E+02  0.51100000000E-03 0.  1.
        -12    1    3    3    0    0 -0.15638253092E+02  0.15213100210E+02  0.33785202063E+02  0.40217325324E+02  0.00000000000E+00 0.  1.
</event>
<event>
 7    1  0.2593256E-015  0.9000784E+02  0.7816164E-02  0.1186339E+00
        -11   -1    0    0    0    0  0.00000000000E+00  0.00000000000E+00  0.45593999997E+02  0.45594000000E+02  0.51100000000E-03 0.  1.
         11   -1    0    0    0    0 -0.00000000000E+00 -0.00000000000E+00 -0.45593999997E+02  0.45594000000E+02  0.51100000000E-03 0. -1.
    9900012    2    1    2    0    0  0.19843626288E-01  0.83063783829E+00 -0.83810915430E+00  0.90007839018E+02  0.90000101693E+02 0.  0.
        -12    1    1    2    0    0 -0.19843626288E-01 -0.83063783829E+00  0.83810915430E+00  0.11801609816E+01  0.00000000000E+00 0.  1.
         11    1    3    3    0    0  0.52850776280E+01 -0.51951282895E+01  0.28020243665E+01  0.79229252357E+01  0.51100000000E-03 0. -1.
        -11    1    3    3    0    0  0.29202983149E+02  0.28024210258E+02 -0.69280001906E+01  0.41062973252E+02  0.51100000000E-03 0.  1.
         12    1    3    3    0    0 -0.34468217151E+02 -0.21998444130E+02  0.32878666698E+01  0.41021940531E+02  0.00000000000E+00 0. -1.
</event>
<event>
 7    1  0.2593256E-015  0.9000779E+02  0.7816164E-02  0.1186339E+00
        -11   -1    0    0    0    0  0.00000000000E+00  0.00000000000E+00  0.45593999997E+02  0.45594000000E+02  0.51100000000E-03 0. -1.
         11   -1    0    0    0    0 -0.00000000000E+00 -0.00000000000E+00 -0.45593999997E+02  0.45594000000E+02  0.51100000000E-03 0.  1.
    9900012    2    1    2    0    0  0.27100738075E+00 -0.23217466665E+00  0.11249694742E+01  0.90007785446E+02  0.90000047414E+02 0.  0.
        -12    1    1    2    0    0 -0.27100738075E+00  0.23217466665E+00 -0.11249694742E+01  0.11802145542E+01  0.00000000000E+00 0.  1.
         11    1    3    3    0    0  0.65087098377E+01 -0.78789364109E+01 -0.27185283716E+01  0.10575033782E+02  0.51100000000E-03 0. -1.
        -11    1    3    3    0    0 -0.30690737649E+00 -0.19780485495E+02 -0.29708801037E+02  0.35692781594E+02  0.51100000000E-03 0.  1.
         12    1    3    3    0    0 -0.59307950804E+01  0.27427247240E+02  0.33552298883E+02  0.43739970070E+02  0.00000000000E+00 0. -1.
</event>
<event>
 7    1  0.2593256E-015  0.9000892E+02  0.7816164E-02  0.1186337E+00
        -11   -1    0    0    0    0  0.00000000000E+00  0.00000000000E+00  0.45593999997E+02  0.45594000000E+02  0.51100000000E-03 0. -1.
         11   -1    0    0    0    0 -0.00000000000E+00 -0.00000000000E+00 -0.45593999997E+02  0.45594000000E+02  0.51100000000E-03 0.  1.
    9900012    2    1    2    0    0  0.11234599868E+01 -0.30266409109E+00 -0.19096568105E+00  0.90008917397E+02  0.90001194298E+02 0.  0.
        -12    1    1    2    0    0 -0.11234599868E+01  0.30266409109E+00  0.19096568105E+00  0.11790826033E+01  0.00000000000E+00 0.  1.
         11    1    3    3    0    0 -0.70943514029E+00 -0.21188255313E+02  0.27331185439E+02  0.34589581657E+02  0.51100000000E-03 0. -1.
        -11    1    3    3    0    0  0.29784778825E+01 -0.12771707812E+02 -0.22301270685E+01  0.13302680855E+02  0.51100000000E-03 0.  1.
        -12    1    3    3    0    0 -0.11455827554E+01  0.33657299034E+02 -0.25292024051E+02  0.42116654885E+02  0.00000000000E+00 0.  1.
</event>
<event>
 7    1  0.2781236E-015  0.9000774E+02  0.7816164E-02  0.1186339E+00
        -11   -1    0    0    0    0  0.00000000000E+00  0.00000000000E+00  0.45593999997E+02  0.45594000000E+02  0.51100000000E-03 0.  1.
         11   -1    0    0    0    0 -0.00000000000E+00 -0.00000000000E+00 -0.45593999997E+02  0.45594000000E+02  0.51100000000E-03 0. -1.
    9900012    2    1    2    0    0  0.56705070203E+00  0.87396154740E+00 -0.55467790841E+00  0.90007736103E+02  0.89999997419E+02 0.  0.
        -12    1    1    2    0    0 -0.56705070203E+00 -0.87396154740E+00  0.55467790841E+00  0.11802638972E+01  0.00000000000E+00 0.  1.
         11    1    3    3    0    0  0.15837485913E+01  0.29368575307E+02 -0.26300841860E+02  0.39455744296E+02  0.51100000000E-03 0. -1.
        -11    1    3    3    0    0  0.36630038267E+01  0.68688789327E+01  0.55427315464E+01  0.95562005045E+01  0.51100000000E-03 0.  1.
        -12    1    3    3    0    0 -0.46797017159E+01 -0.35363492692E+02  0.20203432405E+02  0.40995791302E+02  0.00000000000E+00 0.  1.
</event>
<event>
 7    1  0.2593256E-015  0.9000774E+02  0.7816164E-02  0.1186339E+00
        -11   -1    0    0    0    0  0.00000000000E+00  0.00000000000E+00  0.45593999997E+02  0.45594000000E+02  0.51100000000E-03 0.  1.
         11   -1    0    0    0    0 -0.00000000000E+00 -0.00000000000E+00 -0.45593999997E+02  0.45594000000E+02  0.51100000000E-03 0. -1.
    9900012    2    1    2    0    0 -0.10006356528E+01  0.51992928178E-01 -0.62372287758E+00  0.90007743586E+02  0.90000005002E+02 0.  0.
        -12    1    1    2    0    0  0.10006356528E+01 -0.51992928178E-01  0.62372287758E+00  0.11802564137E+01  0.00000000000E+00 0.  1.
         11    1    3    3    0    0  0.14699081400E+02  0.24567137017E+02 -0.25154968805E+02  0.38110099332E+02  0.51100000000E-03 0. -1.
        -11    1    3    3    0    0  0.12034298190E+00  0.87227895315E+01  0.66759314058E+01  0.10984971554E+02  0.51100000000E-03 0.  1.
        -12    1    3    3    0    0 -0.15820060035E+02 -0.33237933620E+02  0.17855314522E+02  0.40912672701E+02  0.00000000000E+00 0.  1.
</event>
<event>
 7    1  0.2593256E-015  0.9000797E+02  0.7816164E-02  0.1186339E+00
        -11   -1    0    0    0    0  0.00000000000E+00  0.00000000000E+00  0.45593999997E+02  0.45594000000E+02  0.51100000000E-03 0. -1.
         11   -1    0    0    0    0 -0.00000000000E+00 -0.00000000000E+00 -0.45593999997E+02  0.45594000000E+02  0.51100000000E-03 0.  1.
    9900012    2    1    2    0    0  0.97143073917E+00  0.46137797172E+00  0.48572661936E+00  0.90007967093E+02  0.90000231458E+02 0.  0.
        -12    1    1    2    0    0 -0.97143073917E+00 -0.46137797172E+00 -0.48572661936E+00  0.11800329074E+01  0.00000000000E+00 0.  1.
         11    1    3    3    0    0  0.40019914628E+01 -0.88423452457E+01  0.37541247730E+02  0.38775614586E+02  0.51100000000E-03 0. -1.
        -11    1    3    3    0    0 -0.10065558471E+02 -0.26588963803E+01  0.12545149781E+01  0.10486133958E+02  0.51100000000E-03 0.  1.
        -12    1    3    3    0    0  0.70349977470E+01  0.11962619598E+02 -0.38310036089E+02  0.40746218549E+02  0.00000000000E+00 0.  1.
</event>
<event>
 7    1  0.2593256E-015  0.9000768E+02  0.7816164E-02  0.1186339E+00
        -11   -1    0    0    0    0  0.00000000000E+00  0.00000000000E+00  0.45593999997E+02  0.45594000000E+02  0.51100000000E-03 0. -1.
         11   -1    0    0    0    0 -0.00000000000E+00 -0.00000000000E+00 -0.45593999997E+02  0.45594000000E+02  0.51100000000E-03 0.  1.
    9900012    2    1    2    0    0  0.97314400022E+00 -0.34885580634E+00 -0.56960117288E+00  0.90007680079E+02  0.89999940656E+02 0.  0.
        -12    1    1    2    0    0 -0.97314400022E+00  0.34885580634E+00  0.56960117288E+00  0.11803199206E+01  0.00000000000E+00 0.  1.
         11    1    3    3    0    0  0.96725419874E+01  0.73042835143E+00  0.33891513670E+01  0.10275112716E+02  0.51100000000E-03 0. -1.
        -11    1    3    3    0    0  0.32018962799E+01  0.34025753553E+02  0.15885269982E+02  0.37687476000E+02  0.51100000000E-03 0.  1.
         12    1    3    3    0    0 -0.11901294267E+02 -0.35105037710E+02 -0.19844022522E+02  0.42045091363E+02  0.00000000000E+00 0. -1.
</event>
<event>
 7    1  0.3127578E-015  0.9000731E+02  0.7816164E-02  0.1186340E+00
        -11   -1    0    0    0    0  0.00000000000E+00  0.00000000000E+00  0.45593999997E+02  0.45594000000E+02  0.51100000000E-03 0. -1.
         11   -1    0    0    0    0 -0.00000000000E+00 -0.00000000000E+00 -0.45593999997E+02  0.45594000000E+02  0.51100000000E-03 0.  1.
    9900012    2    1    2    0    0 -0.42064640266E+00  0.32662180415E+00  0.10537533256E+01  0.90007313221E+02  0.89999568954E+02 0.  0.
        -12    1    1    2    0    0  0.42064640266E+00 -0.32662180415E+00 -0.10537533256E+01  0.11806867791E+01  0.00000000000E+00 0.  1.
         11    1    3    3    0    0 -0.17530481016E+02  0.18878822531E+02  0.33325596933E+02  0.42122714965E+02  0.51100000000E-03 0. -1.
        -11    1    3    3    0    0  0.86709984906E+01  0.35473538069E+01 -0.22000275579E+01  0.96234118363E+01  0.51100000000E-03 0.  1.
        -12    1    3    3    0    0  0.84388361232E+01 -0.22099554534E+02 -0.30071816049E+02  0.38261186419E+02  0.00000000000E+00 0.  1.
</event>
<event>
 7    1  0.2593256E-015  0.9000777E+02  0.7816164E-02  0.1186339E+00
        -11   -1    0    0    0    0  0.00000000000E+00  0.00000000000E+00  0.45593999997E+02  0.45594000000E+02  0.51100000000E-03 0.  1.
         11   -1    0    0    0    0 -0.00000000000E+00 -0.00000000000E+00 -0.45593999997E+02  0.45594000000E+02  0.51100000000E-03 0. -1.
    9900012    2    1    2    0    0 -0.18663204219E-01 -0.45886619110E+00 -0.10872191852E+01  0.90007766102E+02  0.90000027815E+02 0.  0.
        -12    1    1    2    0    0  0.18663204219E-01  0.45886619110E+00  0.10872191852E+01  0.11802338977E+01  0.00000000000E+00 0.  1.
         11    1    3    3    0    0  0.78686971233E+01 -0.37831397038E+01 -0.39433048488E+01  0.95800936232E+01  0.51100000000E-03 0. -1.
        -11    1    3    3    0    0  0.11272036201E+02 -0.34659704932E+02 -0.60976389628E+01  0.36953148002E+02  0.51100000000E-03 0.  1.
         12    1    3    3    0    0 -0.19159396528E+02  0.37983978445E+02  0.89537246264E+01  0.43474524477E+02  0.00000000000E+00 0. -1.
</event>
<event>
 7    1  0.2593256E-015  0.9000794E+02  0.7816164E-02  0.1186339E+00
        -11   -1    0    0    0    0  0.00000000000E+00  0.00000000000E+00  0.45593999997E+02  0.45594000000E+02  0.51100000000E-03 0.  1.
         11   -1    0    0    0    0 -0.00000000000E+00 -0.00000000000E+00 -0.45593999997E+02  0.45594000000E+02  0.51100000000E-03 0. -1.
    9900012    2    1    2    0    0 -0.31351203106E+00  0.45654948591E+00 -0.10420227894E+01  0.90007941222E+02  0.90000205246E+02 0.  0.
        -12    1    1    2    0    0  0.31351203106E+00 -0.45654948591E+00  0.10420227894E+01  0.11800587783E+01  0.00000000000E+00 0.  1.
         11    1    3    3    0    0  0.28950958854E+02 -0.23351802113E+02  0.40875288454E+01  0.37418879898E+02  0.51100000000E-03 0. -1.
        -11    1    3    3    0    0  0.47430509209E+01  0.92159374650E+01  0.82408501241E+01  0.13241663280E+02  0.51100000000E-03 0.  1.
        -12    1    3    3    0    0 -0.34007521806E+02  0.14592414134E+02 -0.13370401759E+02  0.39347398044E+02  0.00000000000E+00 0.  1.
</event>
<event>
 7    1  0.2593256E-015  0.9000776E+02  0.7816164E-02  0.1186339E+00
        -11   -1    0    0    0    0  0.00000000000E+00  0.00000000000E+00  0.45593999997E+02  0.45594000000E+02  0.51100000000E-03 0.  1.
         11   -1    0    0    0    0 -0.00000000000E+00 -0.00000000000E+00 -0.45593999997E+02  0.45594000000E+02  0.51100000000E-03 0. -1.
    9900012    2    1    2    0    0  0.84067421322E+00 -0.44393352819E+00 -0.69939276374E+00  0.90007762588E+02  0.90000024254E+02 0.  0.
        -12    1    1    2    0    0 -0.84067421322E+00  0.44393352819E+00  0.69939276374E+00  0.11802374118E+01  0.00000000000E+00 0.  1.
         11    1    3    3    0    0  0.44526796255E+01 -0.33828704740E+02  0.97915942107E+01  0.35497646931E+02  0.51100000000E-03 0. -1.
        -11    1    3    3    0    0  0.31007504681E+01 -0.81107714376E+01  0.46270367540E+01  0.98391430603E+01  0.51100000000E-03 0.  1.
        -12    1    3    3    0    0 -0.67127558804E+01  0.41495542649E+02 -0.15118023728E+02  0.44670972596E+02  0.00000000000E+00 0.  1.
</event>
<event>
 7    1  0.2593256E-015  0.9000776E+02  0.7816164E-02  0.1186339E+00
        -11   -1    0    0    0    0  0.00000000000E+00  0.00000000000E+00  0.45593999997E+02  0.45594000000E+02  0.51100000000E-03 0.  1.
         11   -1    0    0    0    0 -0.00000000000E+00 -0.00000000000E+00 -0.45593999997E+02  0.45594000000E+02  0.51100000000E-03 0. -1.
    9900012    2    1    2    0    0  0.91452369584E-01 -0.11036419438E+01  0.40814921051E+00  0.90007756443E+02  0.90000018028E+02 0.  0.
        -12    1    1    2    0    0 -0.91452369584E-01  0.11036419438E+01 -0.40814921051E+00  0.11802435571E+01  0.00000000000E+00 0.  1.
         11    1    3    3    0    0  0.93084068817E+01 -0.17541899726E+02 -0.30895190017E+02  0.36727067009E+02  0.51100000000E-03 0. -1.
        -11    1    3    3    0    0  0.12129770493E+00 -0.84085815193E+01 -0.38357446695E+01  0.92429375055E+01  0.51100000000E-03 0.  1.
        -12    1    3    3    0    0 -0.93382522171E+01  0.24846839302E+02  0.35139083897E+02  0.44037751928E+02  0.00000000000E+00 0.  1.
</event>
<event>
 7    1  0.2593256E-015  0.9000775E+02  0.7816164E-02  0.1186339E+00
        -11   -1    0    0    0    0  0.00000000000E+00  0.00000000000E+00  0.45593999997E+02  0.45594000000E+02  0.51100000000E-03 0.  1.
         11   -1    0    0    0    0 -0.00000000000E+00 -0.00000000000E+00 -0.45593999997E+02  0.45594000000E+02  0.51100000000E-03 0. -1.
    9900012    2    1    2    0    0 -0.62917319478E+00 -0.99830524017E+00  0.22949979019E-01  0.90007746229E+02  0.90000007680E+02 0.  0.
        -12    1    1    2    0    0  0.62917319478E+00  0.99830524017E+00 -0.22949979019E-01  0.11802537706E+01  0.00000000000E+00 0.  1.
         11    1    3    3    0    0  0.32020176285E+02 -0.18839745615E+02 -0.21574150119E+00  0.37152042324E+02  0.51100000000E-03 0. -1.
        -11    1    3    3    0    0 -0.20212618857E+01 -0.10560347750E+02  0.24480584446E+01  0.11027213366E+02  0.51100000000E-03 0.  1.
        -12    1    3    3    0    0 -0.30628087594E+02  0.28401788125E+02 -0.22093669644E+01  0.41828490539E+02  0.00000000000E+00 0.  1.
</event>
<event>
 7    1  0.2593256E-015  0.9000781E+02  0.7816164E-02  0.1186339E+00
        -11   -1    0    0    0    0  0.00000000000E+00  0.00000000000E+00  0.45593999997E+02  0.45594000000E+02  0.51100000000E-03 0. -1.
         11   -1    0    0    0    0 -0.00000000000E+00 -0.00000000000E+00 -0.45593999997E+02  0.45594000000E+02  0.51100000000E-03 0.  1.
    9900012    2    1    2    0    0  0.69829129623E+00 -0.32323106551E+00  0.89484746385E+00  0.90007813134E+02  0.90000075467E+02 0.  0.
        -12    1    1    2    0    0 -0.69829129623E+00  0.32323106551E+00 -0.89484746385E+00  0.11801868664E+01  0.00000000000E+00 0.  1.
         11    1    3    3    0    0 -0.96246216129E+01  0.32906081300E+01 -0.70823903958E+01  0.12394422013E+02  0.51100000000E-03 0. -1.
        -11    1    3    3    0    0  0.18743499158E+02 -0.13258591295E+02 -0.29861502460E+02  0.37667205010E+02  0.51100000000E-03 0.  1.
         12    1    3    3    0    0 -0.84205862485E+01  0.96447520992E+01  0.37838740320E+02  0.39946186111E+02  0.00000000000E+00 0. -1.
</event>
<event>
 7    1  0.2593256E-015  0.9000771E+02  0.7816164E-02  0.1186339E+00
        -11   -1    0    0    0    0  0.00000000000E+00  0.00000000000E+00  0.45593999997E+02  0.45594000000E+02  0.51100000000E-03 0.  1.
         11   -1    0    0    0    0 -0.00000000000E+00 -0.00000000000E+00 -0.45593999997E+02  0.45594000000E+02  0.51100000000E-03 0. -1.
    9900012    2    1    2    0    0 -0.66543338197E+00 -0.95274944572E+00 -0.20629812211E+00  0.90007706813E+02  0.89999967743E+02 0.  0.
        -12    1    1    2    0    0  0.66543338197E+00  0.95274944572E+00  0.20629812211E+00  0.11802931870E+01  0.00000000000E+00 0.  1.
         11    1    3    3    0    0  0.51235981795E+01  0.15527855835E+02  0.74896964490E+01  0.17985024834E+02  0.51100000000E-03 0. -1.
        -11    1    3    3    0    0  0.25875224090E+02  0.12204207677E+02  0.54147813248E-02  0.28608913582E+02  0.51100000000E-03 0.  1.
         12    1    3    3    0    0 -0.31664255652E+02 -0.28684812958E+02 -0.77014093524E+01  0.43413768397E+02  0.00000000000E+00 0. -1.
</event>
<event>
 7    1  0.2593256E-015  0.9000768E+02  0.7816164E-02  0.1186339E+00
        -11   -1    0    0    0    0  0.00000000000E+00  0.00000000000E+00  0.45593999997E+02  0.45594000000E+02  0.51100000000E-03 0.  1.
         11   -1    0    0    0    0 -0.00000000000E+00 -0.00000000000E+00 -0.45593999997E+02  0.45594000000E+02  0.51100000000E-03 0. -1.
    9900012    2    1    2    0    0 -0.23928850748E+00  0.10865113944E+01 -0.39420902603E+00  0.90007675148E+02  0.89999935660E+02 0.  0.
        -12    1    1    2    0    0  0.23928850748E+00 -0.10865113944E+01  0.39420902603E+00  0.11803248519E+01  0.00000000000E+00 0.  1.
         11    1    3    3    0    0  0.71119205658E+01  0.26803696426E+02  0.20025664064E+02  0.34205917291E+02  0.51100000000E-03 0. -1.
        -11    1    3    3    0    0  0.10605364567E+01  0.50909500368E+01  0.10268981442E+02  0.11510625090E+02  0.51100000000E-03 0.  1.
        -12    1    3    3    0    0 -0.84117455299E+01 -0.30808135068E+02 -0.30688854532E+02  0.44291132767E+02  0.00000000000E+00 0.  1.
</event>
<event>
 7    1  0.2593256E-015  0.9000779E+02  0.7816164E-02  0.1186339E+00
        -11   -1    0    0    0    0  0.00000000000E+00  0.00000000000E+00  0.45593999997E+02  0.45594000000E+02  0.51100000000E-03 0. -1.
         11   -1    0    0    0    0 -0.00000000000E+00 -0.00000000000E+00 -0.45593999997E+02  0.45594000000E+02  0.51100000000E-03 0.  1.
    9900012    2    1    2    0    0  0.93015743726E+00  0.18201605884E+00  0.70326611247E+00  0.90007785643E+02  0.90000047613E+02 0.  0.
        -12    1    1    2    0    0 -0.93015743726E+00 -0.18201605884E+00 -0.70326611247E+00  0.11802143571E+01  0.00000000000E+00 0.  1.
         11    1    3    3    0    0 -0.81185849857E+01  0.20052986219E+01  0.31139095149E+02  0.32242454802E+02  0.51100000000E-03 0. -1.
        -11    1    3    3    0    0  0.27035522237E+01 -0.81803788993E+01  0.11785708612E+02  0.14598997271E+02  0.51100000000E-03 0.  1.
        -12    1    3    3    0    0  0.63451901993E+01  0.63570963362E+01 -0.42221537648E+02  0.43166333570E+02  0.00000000000E+00 0.  1.
</event>
<event>
 7    1  0.2593256E-015  0.9000772E+02  0.7816164E-02  0.1186339E+00
        -11   -1    0    0    0    0  0.00000000000E+00  0.00000000000E+00  0.45593999997E+02  0.45594000000E+02  0.51100000000E-03 0. -1.
         11   -1    0    0    0    0 -0.00000000000E+00 -0.00000000000E+00 -0.45593999997E+02  0.45594000000E+02  0.51100000000E-03 0.  1.
    9900012    2    1    2    0    0 -0.81789126080E+00 -0.84345875271E+00 -0.11262402914E+00  0.90007723357E+02  0.89999984505E+02 0.  0.
        -12    1    1    2    0    0  0.81789126080E+00  0.84345875271E+00  0.11262402914E+00  0.11802766430E+01  0.00000000000E+00 0.  1.
         11    1    3    3    0    0  0.43097762765E+01  0.49199378902E+01 -0.77929451194E+01  0.10173984190E+02  0.51100000000E-03 0. -1.
        -11    1    3    3    0    0  0.14384559447E+01 -0.28768670144E+02 -0.25809760480E+02  0.38676210694E+02  0.51100000000E-03 0.  1.
         12    1    3    3    0    0 -0.65661234820E+01  0.23005273501E+02  0.33490081571E+02  0.41157528473E+02  0.00000000000E+00 0. -1.
</event>
<event>
 7    1  0.2593256E-015  0.9000759E+02  0.7816164E-02  0.1186339E+00
        -11   -1    0    0    0    0  0.00000000000E+00  0.00000000000E+00  0.45593999997E+02  0.45594000000E+02  0.51100000000E-03 0.  1.
         11   -1    0    0    0    0 -0.00000000000E+00 -0.00000000000E+00 -0.45593999997E+02  0.45594000000E+02  0.51100000000E-03 0. -1.
    9900012    2    1    2    0    0  0.11676873242E+01 -0.61662645439E-01  0.16148115677E+00  0.90007588151E+02  0.89999847515E+02 0.  0.
        -12    1    1    2    0    0 -0.11676873242E+01  0.61662645439E-01 -0.16148115677E+00  0.11804118489E+01  0.00000000000E+00 0.  1.
         11    1    3    3    0    0 -0.48584090725E+01 -0.23793101095E+02 -0.19641720040E+02  0.31233202923E+02  0.51100000000E-03 0. -1.
        -11    1    3    3    0    0 -0.13065878004E+02 -0.81573862921E+01  0.14639326779E+02  0.21250176656E+02  0.51100000000E-03 0.  1.
        -12    1    3    3    0    0  0.19091974401E+02  0.31888824742E+02  0.51638744185E+01  0.37524208572E+02  0.00000000000E+00 0.  1.
</event>
<event>
 7    1  0.2593256E-015  0.9000786E+02  0.7816164E-02  0.1186339E+00
        -11   -1    0    0    0    0  0.00000000000E+00  0.00000000000E+00  0.45593999997E+02  0.45594000000E+02  0.51100000000E-03 0.  1.
         11   -1    0    0    0    0 -0.00000000000E+00 -0.00000000000E+00 -0.45593999997E+02  0.45594000000E+02  0.51100000000E-03 0. -1.
    9900012    2    1    2    0    0  0.60429711174E+00  0.98194661685E+00 -0.25168887020E+00  0.90007855329E+02  0.90000118219E+02 0.  0.
        -12    1    1    2    0    0 -0.60429711174E+00 -0.98194661685E+00  0.25168887020E+00  0.11801446712E+01  0.00000000000E+00 0.  1.
         11    1    3    3    0    0  0.19975887391E+01 -0.72637501382E+01 -0.13987239274E+01  0.76621704319E+01  0.51100000000E-03 0. -1.
        -11    1    3    3    0    0  0.78204015248E+01 -0.21526062820E+02  0.31431166761E+02  0.38890208340E+02  0.51100000000E-03 0.  1.
         12    1    3    3    0    0 -0.92136931521E+01  0.29771759575E+02 -0.30284131704E+02  0.43455476556E+02  0.00000000000E+00 0. -1.
</event>
<event>
 7    1  0.2593256E-015  0.9000775E+02  0.7816164E-02  0.1186339E+00
        -11   -1    0    0    0    0  0.00000000000E+00  0.00000000000E+00  0.45593999997E+02  0.45594000000E+02  0.51100000000E-03 0.  1.
         11   -1    0    0    0    0 -0.00000000000E+00 -0.00000000000E+00 -0.45593999997E+02  0.45594000000E+02  0.51100000000E-03 0. -1.
    9900012    2    1    2    0    0 -0.41996587284E+00 -0.79660394553E+00 -0.76291525972E+00  0.90007750504E+02  0.90000012010E+02 0.  0.
        -12    1    1    2    0    0  0.41996587284E+00  0.79660394553E+00  0.76291525972E+00  0.11802494965E+01  0.00000000000E+00 0.  1.
         11    1    3    3    0    0  0.39930597226E+01  0.46778581895E+00  0.96891016458E+01  0.10490092492E+02  0.51100000000E-03 0. -1.
        -11    1    3    3    0    0  0.28233180146E+02  0.24283975268E+02 -0.72518645881E+01  0.37939602742E+02  0.51100000000E-03 0.  1.
         12    1    3    3    0    0 -0.32646205742E+02 -0.25548365032E+02 -0.32001523174E+01  0.41578055270E+02  0.00000000000E+00 0. -1.
</event>
<event>
 7    1  0.2593256E-015  0.9000676E+02  0.7816164E-02  0.1186341E+00
        -11   -1    0    0    0    0  0.00000000000E+00  0.00000000000E+00  0.45593999997E+02  0.45594000000E+02  0.51100000000E-03 0.  1.
         11   -1    0    0    0    0 -0.00000000000E+00 -0.00000000000E+00 -0.45593999997E+02  0.45594000000E+02  0.51100000000E-03 0. -1.
    9900012    2    1    2    0    0 -0.10335415314E+01  0.46264351126E+00 -0.33626245544E+00  0.90006763548E+02  0.89999012022E+02 0.  0.
        -12    1    1    2    0    0  0.10335415314E+01 -0.46264351126E+00  0.33626245544E+00  0.11812364516E+01  0.00000000000E+00 0.  1.
         11    1    3    3    0    0 -0.20179384592E+02  0.18600833749E+02 -0.30693802621E+02  0.41174119278E+02  0.51100000000E-03 0. -1.
        -11    1    3    3    0    0 -0.12902928992E+01 -0.69806710109E+01 -0.33625029912E+01  0.78550016012E+01  0.51100000000E-03 0.  1.
        -12    1    3    3    0    0  0.20436135960E+02 -0.11157519227E+02  0.33720043157E+02  0.40977642670E+02  0.00000000000E+00 0.  1.
</event>
<event>
 7    1  0.2593256E-015  0.9000768E+02  0.7816164E-02  0.1186339E+00
        -11   -1    0    0    0    0  0.00000000000E+00  0.00000000000E+00  0.45593999997E+02  0.45594000000E+02  0.51100000000E-03 0. -1.
         11   -1    0    0    0    0 -0.00000000000E+00 -0.00000000000E+00 -0.45593999997E+02  0.45594000000E+02  0.51100000000E-03 0.  1.
    9900012    2    1    2    0    0 -0.44196130000E+00 -0.97070979977E+00 -0.50551385524E+00  0.90007681584E+02  0.89999942181E+02 0.  0.
        -12    1    1    2    0    0  0.44196130000E+00  0.97070979977E+00  0.50551385524E+00  0.11803184163E+01  0.00000000000E+00 0.  1.
         11    1    3    3    0    0  0.99994203618E+00  0.42131403227E+01  0.43009519982E+02  0.43226950445E+02  0.51100000000E-03 0. -1.
        -11    1    3    3    0    0  0.16146022972E+01  0.51691648157E+01 -0.79937963925E+01  0.96554640746E+01  0.51100000000E-03 0.  1.
        -12    1    3    3    0    0 -0.30565056334E+01 -0.10353014938E+02 -0.35521237444E+02  0.37125267064E+02  0.00000000000E+00 0.  1.
</event>
<event>
 7    1  0.2593256E-015  0.9000793E+02  0.7816164E-02  0.1186339E+00
        -11   -1    0    0    0    0  0.00000000000E+00  0.00000000000E+00  0.45593999997E+02  0.45594000000E+02  0.51100000000E-03 0.  1.
         11   -1    0    0    0    0 -0.00000000000E+00 -0.00000000000E+00 -0.45593999997E+02  0.45594000000E+02  0.51100000000E-03 0. -1.
    9900012    2    1    2    0    0  0.46110717570E+00 -0.10854356612E+01  0.41991833151E-01  0.90007934868E+02  0.90000198808E+02 0.  0.
        -12    1    1    2    0    0 -0.46110717570E+00  0.10854356612E+01 -0.41991833151E-01  0.11800651322E+01  0.00000000000E+00 0.  1.
         11    1    3    3    0    0  0.65482896621E+01 -0.44335360204E+01  0.51540978105E+01  0.94393359748E+01  0.51100000000E-03 0. -1.
        -11    1    3    3    0    0 -0.10023379993E+02  0.39050707936E+02  0.10098033077E+02  0.41561956271E+02  0.51100000000E-03 0.  1.
         12    1    3    3    0    0  0.39361975070E+01 -0.35702607577E+02 -0.15210139054E+02  0.39006642622E+02  0.00000000000E+00 0. -1.
</event>
<event>
 7    1  0.2593256E-015  0.9000786E+02  0.7816164E-02  0.1186339E+00
        -11   -1    0    0    0    0  0.00000000000E+00  0.00000000000E+00  0.45593999997E+02  0.45594000000E+02  0.51100000000E-03 0. -1.
         11   -1    0    0    0    0 -0.00000000000E+00 -0.00000000000E+00 -0.45593999997E+02  0.45594000000E+02  0.51100000000E-03 0.  1.
    9900012    2    1    2    0    0  0.38873064518E+00 -0.89241089866E+00 -0.66725746622E+00  0.90007855410E+02  0.90000118302E+02 0.  0.
        -12    1    1    2    0    0 -0.38873064518E+00  0.89241089866E+00  0.66725746622E+00  0.11801445898E+01  0.00000000000E+00 0.  1.
         11    1    3    3    0    0  0.15328472645E+01 -0.50726426360E+01 -0.80679979631E+01  0.96526636449E+01  0.51100000000E-03 0. -1.
        -11    1    3    3    0    0  0.19693738569E+02  0.83083868211E+01 -0.30300658557E+02  0.37081026680E+02  0.51100000000E-03 0.  1.
         12    1    3    3    0    0 -0.20837855189E+02 -0.41281550838E+01  0.37701399053E+02  0.43274165085E+02  0.00000000000E+00 0. -1.
</event>
<event>
 7    1  0.2593256E-015  0.9000770E+02  0.7816164E-02  0.1186339E+00
        -11   -1    0    0    0    0  0.00000000000E+00  0.00000000000E+00  0.45593999997E+02  0.45594000000E+02  0.51100000000E-03 0. -1.
         11   -1    0    0    0    0 -0.00000000000E+00 -0.00000000000E+00 -0.45593999997E+02  0.45594000000E+02  0.51100000000E-03 0.  1.
    9900012    2    1    2    0    0  0.11101737505E+01 -0.18310091638E+00 -0.35648985954E+00  0.90007704816E+02  0.89999965719E+02 0.  0.
        -12    1    1    2    0    0 -0.11101737505E+01  0.18310091638E+00  0.35648985954E+00  0.11802951842E+01  0.00000000000E+00 0.  1.
         11    1    3    3    0    0 -0.10299374425E+02  0.96489119068E+00  0.45172043655E+01  0.11287748407E+02  0.51100000000E-03 0. -1.
        -11    1    3    3    0    0  0.15511128050E+02  0.36972447458E+02 -0.47894992267E+01  0.40379404002E+02  0.51100000000E-03 0.  1.
         12    1    3    3    0    0 -0.41015798746E+01 -0.38120439565E+02 -0.84194998317E-01  0.38340552407E+02  0.00000000000E+00 0. -1.
</event>
<event>
 7    1  0.2593256E-015  0.9000780E+02  0.7816164E-02  0.1186339E+00
        -11   -1    0    0    0    0  0.00000000000E+00  0.00000000000E+00  0.45593999997E+02  0.45594000000E+02  0.51100000000E-03 0. -1.
         11   -1    0    0    0    0 -0.00000000000E+00 -0.00000000000E+00 -0.45593999997E+02  0.45594000000E+02  0.51100000000E-03 0.  1.
    9900012    2    1    2    0    0  0.22012164616E-01  0.75961725841E+00  0.90297477968E+00  0.90007802403E+02  0.90000064595E+02 0.  0.
        -12    1    1    2    0    0 -0.22012164616E-01 -0.75961725841E+00 -0.90297477968E+00  0.11801975968E+01  0.00000000000E+00 0.  1.
         11    1    3    3    0    0  0.85497820413E+00  0.41998115966E+01  0.80025774203E+01  0.90780312185E+01  0.51100000000E-03 0. -1.
        -11    1    3    3    0    0  0.32211700943E+02 -0.25280410368E+02 -0.51746615341E+01  0.41273114109E+02  0.51100000000E-03 0.  1.
         12    1    3    3    0    0 -0.33044666982E+02  0.21840216029E+02 -0.19249411065E+01  0.39656657076E+02  0.00000000000E+00 0. -1.
</event>
<event>
 7    1  0.2593256E-015  0.9000768E+02  0.7816164E-02  0.1186339E+00
        -11   -1    0    0    0    0  0.00000000000E+00  0.00000000000E+00  0.45593999997E+02  0.45594000000E+02  0.51100000000E-03 0.  1.
         11   -1    0    0    0    0 -0.00000000000E+00 -0.00000000000E+00 -0.45593999997E+02  0.45594000000E+02  0.51100000000E-03 0. -1.
    9900012    2    1    2    0    0 -0.36040091566E+00  0.72293520602E+00 -0.86059685395E+00  0.90007681790E+02  0.89999942389E+02 0.  0.
        -12    1    1    2    0    0  0.36040091566E+00 -0.72293520602E+00  0.86059685395E+00  0.11803182101E+01  0.00000000000E+00 0.  1.
         11    1    3    3    0    0 -0.18587515883E+01  0.24919502276E+02 -0.30588875518E+02  0.39498301949E+02  0.51100000000E-03 0. -1.
        -11    1    3    3    0    0  0.91193051981E+01  0.23805422251E+01 -0.63241782341E+00  0.94460923744E+01  0.51100000000E-03 0.  1.
        -12    1    3    3    0    0 -0.76209545255E+01 -0.26577109295E+02  0.30360696487E+02  0.41063287466E+02  0.00000000000E+00 0.  1.
</event>
<event>
 7    1  0.2593256E-015  0.9000772E+02  0.7816164E-02  0.1186339E+00
        -11   -1    0    0    0    0  0.00000000000E+00  0.00000000000E+00  0.45593999997E+02  0.45594000000E+02  0.51100000000E-03 0.  1.
         11   -1    0    0    0    0 -0.00000000000E+00 -0.00000000000E+00 -0.45593999997E+02  0.45594000000E+02  0.51100000000E-03 0. -1.
    9900012    2    1    2    0    0 -0.68864953871E+00 -0.94995061576E+00 -0.12810627252E+00  0.90007722246E+02  0.89999983380E+02 0.  0.
        -12    1    1    2    0    0  0.68864953871E+00  0.94995061576E+00  0.12810627252E+00  0.11802777540E+01  0.00000000000E+00 0.  1.
         11    1    3    3    0    0  0.21575462808E+01 -0.13005945653E+01  0.78464173496E+01  0.82409233501E+01  0.51100000000E-03 0. -1.
        -11    1    3    3    0    0 -0.16112940114E+02 -0.17682852696E+02  0.29581367408E+02  0.38044282311E+02  0.51100000000E-03 0.  1.
         12    1    3    3    0    0  0.13266744295E+02  0.18033496646E+02 -0.37555891030E+02  0.43722516585E+02  0.00000000000E+00 0. -1.
</event>
<event>
 7    1  0.2593256E-015  0.9000694E+02  0.7816164E-02  0.1186341E+00
        -11   -1    0    0    0    0  0.00000000000E+00  0.00000000000E+00  0.45593999997E+02  0.45594000000E+02  0.51100000000E-03 0.  1.
         11   -1    0    0    0    0 -0.00000000000E+00 -0.00000000000E+00 -0.45593999997E+02  0.45594000000E+02  0.51100000000E-03 0. -1.
    9900012    2    1    2    0    0  0.58594569495E-01 -0.10566867809E+01 -0.52429918295E+00  0.90006936958E+02  0.89999187722E+02 0.  0.
        -12    1    1    2    0    0 -0.58594569495E-01  0.10566867809E+01  0.52429918295E+00  0.11810630422E+01  0.00000000000E+00 0.  1.
         11    1    3    3    0    0 -0.84289420622E-01 -0.51070998252E+01 -0.78097177886E+01  0.93317343259E+01  0.51100000000E-03 0. -1.
        -11    1    3    3    0    0 -0.18261019915E+02  0.12291059410E+01 -0.32189933059E+02  0.37029276800E+02  0.51100000000E-03 0.  1.
         12    1    3    3    0    0  0.18403903905E+02  0.28213071033E+01  0.39475351664E+02  0.43645925832E+02  0.00000000000E+00 0. -1.
</event>
<event>
 7    1  0.2593256E-015  0.9000776E+02  0.7816164E-02  0.1186339E+00
        -11   -1    0    0    0    0  0.00000000000E+00  0.00000000000E+00  0.45593999997E+02  0.45594000000E+02  0.51100000000E-03 0.  1.
         11   -1    0    0    0    0 -0.00000000000E+00 -0.00000000000E+00 -0.45593999997E+02  0.45594000000E+02  0.51100000000E-03 0. -1.
    9900012    2    1    2    0    0  0.30862299928E+00  0.59085699554E+00 -0.97396258738E+00  0.90007761352E+02  0.90000023002E+02 0.  0.
        -12    1    1    2    0    0 -0.30862299928E+00 -0.59085699554E+00  0.97396258738E+00  0.11802386481E+01  0.00000000000E+00 0.  1.
         11    1    3    3    0    0  0.48572863836E+01 -0.51357043834E+01 -0.63704441306E+01  0.95158420126E+01  0.51100000000E-03 0. -1.
        -11    1    3    3    0    0 -0.32766765386E+01 -0.18050391418E+02  0.36777971305E+02  0.41099542735E+02  0.51100000000E-03 0.  1.
         12    1    3    3    0    0 -0.12719868457E+01  0.23776952797E+02 -0.31381489762E+02  0.39392376604E+02  0.00000000000E+00 0. -1.
</event>
<event>
 7    1  0.2593256E-015  0.9000774E+02  0.7816164E-02  0.1186339E+00
        -11   -1    0    0    0    0  0.00000000000E+00  0.00000000000E+00  0.45593999997E+02  0.45594000000E+02  0.51100000000E-03 0. -1.
         11   -1    0    0    0    0 -0.00000000000E+00 -0.00000000000E+00 -0.45593999997E+02  0.45594000000E+02  0.51100000000E-03 0.  1.
    9900012    2    1    2    0    0  0.92385496521E+00 -0.58838155057E+00 -0.43966494321E+00  0.90007743202E+02  0.90000004613E+02 0.  0.
        -12    1    1    2    0    0 -0.92385496521E+00  0.58838155057E+00  0.43966494321E+00  0.11802567975E+01  0.00000000000E+00 0.  1.
         11    1    3    3    0    0  0.34692635513E+02 -0.21652224732E+01  0.20087057803E+02  0.40146693994E+02  0.51100000000E-03 0. -1.
        -11    1    3    3    0    0 -0.49734730381E+01 -0.34398354991E+01  0.73171275841E+01  0.94925369983E+01  0.51100000000E-03 0.  1.
        -12    1    3    3    0    0 -0.28795307509E+02  0.50166764217E+01 -0.27843850330E+02  0.40368512211E+02  0.00000000000E+00 0.  1.
</event>
<event>
 7    1  0.2593256E-015  0.9000769E+02  0.7816164E-02  0.1186339E+00
        -11   -1    0    0    0    0  0.00000000000E+00  0.00000000000E+00  0.45593999997E+02  0.45594000000E+02  0.51100000000E-03 0. -1.
         11   -1    0    0    0    0 -0.00000000000E+00 -0.00000000000E+00 -0.45593999997E+02  0.45594000000E+02  0.51100000000E-03 0.  1.
    9900012    2    1    2    0    0 -0.77488315213E+00 -0.87934092718E+00 -0.13944630334E+00  0.90007690872E+02  0.89999951592E+02 0.  0.
        -12    1    1    2    0    0  0.77488315213E+00  0.87934092718E+00  0.13944630334E+00  0.11803091278E+01  0.00000000000E+00 0.  1.
         11    1    3    3    0    0  0.40416179695E+01 -0.17256758139E+01  0.78330803238E+01  0.89816357333E+01  0.51100000000E-03 0. -1.
        -11    1    3    3    0    0  0.35756449495E+02  0.92407303163E+01 -0.13299198269E+02  0.39252814576E+02  0.51100000000E-03 0.  1.
         12    1    3    3    0    0 -0.40572950616E+02 -0.83943954296E+01  0.53266716420E+01  0.41773240563E+02  0.00000000000E+00 0. -1.
</event>
<event>
 7    1  0.2593256E-015  0.9000781E+02  0.7816164E-02  0.1186339E+00
        -11   -1    0    0    0    0  0.00000000000E+00  0.00000000000E+00  0.45593999997E+02  0.45594000000E+02  0.51100000000E-03 0. -1.
         11   -1    0    0    0    0 -0.00000000000E+00 -0.00000000000E+00 -0.45593999997E+02  0.45594000000E+02  0.51100000000E-03 0.  1.
    9900012    2    1    2    0    0 -0.87403756480E+00 -0.15980347237E-01 -0.79287262465E+00  0.90007811865E+02  0.90000074181E+02 0.  0.
        -12    1    1    2    0    0  0.87403756480E+00  0.15980347237E-01  0.79287262465E+00  0.11801881355E+01  0.00000000000E+00 0.  1.
         11    1    3    3    0    0  0.27800789026E+02 -0.13617122232E+02  0.16025773516E+02  0.34858790934E+02  0.51100000000E-03 0. -1.
        -11    1    3    3    0    0  0.27503855057E+01 -0.74860348917E+01  0.68494004500E+01  0.10512831475E+02  0.51100000000E-03 0.  1.
        -12    1    3    3    0    0 -0.31425212096E+02  0.21087176777E+02 -0.23668046591E+02  0.44636189456E+02  0.00000000000E+00 0.  1.
</event>
<event>
 7    1  0.2593256E-015  0.9000773E+02  0.7816164E-02  0.1186339E+00
        -11   -1    0    0    0    0  0.00000000000E+00  0.00000000000E+00  0.45593999997E+02  0.45594000000E+02  0.51100000000E-03 0. -1.
         11   -1    0    0    0    0 -0.00000000000E+00 -0.00000000000E+00 -0.45593999997E+02  0.45594000000E+02  0.51100000000E-03 0.  1.
    9900012    2    1    2    0    0  0.89455694430E+00  0.47534268132E+00  0.60569455554E+00  0.90007725165E+02  0.89999986337E+02 0.  0.
        -12    1    1    2    0    0 -0.89455694430E+00 -0.47534268132E+00 -0.60569455554E+00  0.11802748349E+01  0.00000000000E+00 0.  1.
         11    1    3    3    0    0  0.96816881054E+01  0.32067578589E+01 -0.71162291508E+01  0.12436201113E+02  0.51100000000E-03 0. -1.
        -11    1    3    3    0    0 -0.25548885088E+02 -0.10086055011E+02 -0.26876550825E+02  0.38429455102E+02  0.51100000000E-03 0.  1.
         12    1    3    3    0    0  0.16761753927E+02  0.73546398333E+01  0.34598474531E+02  0.39142068950E+02  0.00000000000E+00 0. -1.
</event>
<event>
 7    1  0.2593256E-015  0.9000774E+02  0.7816164E-02  0.1186339E+00
        -11   -1    0    0    0    0  0.00000000000E+00  0.00000000000E+00  0.45593999997E+02  0.45594000000E+02  0.51100000000E-03 0. -1.
         11   -1    0    0    0    0 -0.00000000000E+00 -0.00000000000E+00 -0.45593999997E+02  0.45594000000E+02  0.51100000000E-03 0.  1.
    9900012    2    1    2    0    0 -0.95813440998E+00  0.60459172748E+00 -0.33083919401E+00  0.90007742707E+02  0.90000004111E+02 0.  0.
        -12    1    1    2    0    0  0.95813440998E+00 -0.60459172748E+00  0.33083919401E+00  0.11802572926E+01  0.00000000000E+00 0.  1.
         11    1    3    3    0    0  0.95669935879E+01  0.10258198876E+02 -0.15078599229E+02  0.20594226508E+02  0.51100000000E-03 0. -1.
        -11    1    3    3    0    0  0.21361999928E+02 -0.22410459579E+02  0.16387456890E+02  0.35030165329E+02  0.51100000000E-03 0.  1.
         12    1    3    3    0    0 -0.31887127925E+02  0.12756852430E+02 -0.16396968544E+01  0.34383350870E+02  0.00000000000E+00 0. -1.
</event>
<event>
 7    1  0.2593256E-015  0.9000780E+02  0.7816164E-02  0.1186339E+00
        -11   -1    0    0    0    0  0.00000000000E+00  0.00000000000E+00  0.45593999997E+02  0.45594000000E+02  0.51100000000E-03 0.  1.
         11   -1    0    0    0    0 -0.00000000000E+00 -0.00000000000E+00 -0.45593999997E+02  0.45594000000E+02  0.51100000000E-03 0. -1.
    9900012    2    1    2    0    0 -0.11075916237E+01 -0.48314851349E-01  0.40469640626E+00  0.90007799716E+02  0.90000061872E+02 0.  0.
        -12    1    1    2    0    0  0.11075916237E+01  0.48314851349E-01 -0.40469640626E+00  0.11802002843E+01  0.00000000000E+00 0.  1.
         11    1    3    3    0    0  0.19811253490E+02  0.63141604822E+01 -0.35425530327E+02  0.41077032350E+02  0.51100000000E-03 0. -1.
        -11    1    3    3    0    0  0.55405061783E+01 -0.76874686845E+00  0.28428941741E+01  0.62745699459E+01  0.51100000000E-03 0.  1.
        -12    1    3    3    0    0 -0.26459351292E+02 -0.55937284651E+01  0.32987332559E+02  0.42656197420E+02  0.00000000000E+00 0.  1.
</event>
<event>
 7    1  0.2593256E-015  0.9000782E+02  0.7816164E-02  0.1186339E+00
        -11   -1    0    0    0    0  0.00000000000E+00  0.00000000000E+00  0.45593999997E+02  0.45594000000E+02  0.51100000000E-03 0.  1.
         11   -1    0    0    0    0 -0.00000000000E+00 -0.00000000000E+00 -0.45593999997E+02  0.45594000000E+02  0.51100000000E-03 0. -1.
    9900012    2    1    2    0    0  0.22548175081E+00  0.47209464564E+00 -0.10578797973E+01  0.90007819912E+02  0.90000082335E+02 0.  0.
        -12    1    1    2    0    0 -0.22548175081E+00 -0.47209464564E+00  0.10578797973E+01  0.11801800879E+01  0.00000000000E+00 0.  1.
         11    1    3    3    0    0  0.18428208662E+02  0.23311540929E+02  0.33031017656E+02  0.44430563159E+02  0.51100000000E-03 0. -1.
        -11    1    3    3    0    0 -0.55930913952E+01 -0.21026889991E+01 -0.63255274383E+01  0.87015096401E+01  0.51100000000E-03 0.  1.
        -12    1    3    3    0    0 -0.12609635516E+02 -0.20736757285E+02 -0.27763370015E+02  0.36875747113E+02  0.00000000000E+00 0.  1.
</event>
<event>
 7    1  0.2593256E-015  0.9000779E+02  0.7816164E-02  0.1186339E+00
        -11   -1    0    0    0    0  0.00000000000E+00  0.00000000000E+00  0.45593999997E+02  0.45594000000E+02  0.51100000000E-03 0.  1.
         11   -1    0    0    0    0 -0.00000000000E+00 -0.00000000000E+00 -0.45593999997E+02  0.45594000000E+02  0.51100000000E-03 0. -1.
    9900012    2    1    2    0    0 -0.66653724330E+00 -0.30752241051E+00 -0.92414998406E+00  0.90007790221E+02  0.90000052252E+02 0.  0.
        -12    1    1    2    0    0  0.66653724330E+00  0.30752241051E+00  0.92414998406E+00  0.11802097791E+01  0.00000000000E+00 0.  1.
         11    1    3    3    0    0 -0.60691201543E+01  0.24838226352E+02  0.88277300317E+01  0.27049963504E+02  0.51100000000E-03 0.  1.
        -11    1    3    3    0    0  0.87032784252E+01  0.11731356243E+02 -0.19789612533E+02  0.24596758711E+02  0.51100000000E-03 0. -1.
         12    1    3    3    0    0 -0.33006955142E+01 -0.36877105006E+02  0.10037732517E+02  0.38361068006E+02  0.00000000000E+00 0. -1.
</event>
<event>
 7    1  0.2593256E-015  0.9000775E+02  0.7816164E-02  0.1186339E+00
        -11   -1    0    0    0    0  0.00000000000E+00  0.00000000000E+00  0.45593999997E+02  0.45594000000E+02  0.51100000000E-03 0.  1.
         11   -1    0    0    0    0 -0.00000000000E+00 -0.00000000000E+00 -0.45593999997E+02  0.45594000000E+02  0.51100000000E-03 0. -1.
    9900012    2    1    2    0    0 -0.64250310742E+00 -0.11935499958E+00  0.98281757257E+00  0.90007751619E+02  0.90000013141E+02 0.  0.
        -12    1    1    2    0    0  0.64250310742E+00  0.11935499958E+00 -0.98281757257E+00  0.11802483806E+01  0.00000000000E+00 0.  1.
         11    1    3    3    0    0 -0.15151617370E+01  0.49139267615E+01  0.80412307904E+01  0.95448302338E+01  0.51100000000E-03 0. -1.
        -11    1    3    3    0    0  0.90320187245E+01  0.36372960136E+02  0.10325919658E+01  0.37491810275E+02  0.51100000000E-03 0.  1.
         12    1    3    3    0    0 -0.81593600949E+01 -0.41406241897E+02 -0.80910051836E+01  0.42971111110E+02  0.00000000000E+00 0. -1.
</event>
<event>
 7    1  0.2593256E-015  0.9000776E+02  0.7816164E-02  0.1186339E+00
        -11   -1    0    0    0    0  0.00000000000E+00  0.00000000000E+00  0.45593999997E+02  0.45594000000E+02  0.51100000000E-03 0. -1.
         11   -1    0    0    0    0 -0.00000000000E+00 -0.00000000000E+00 -0.45593999997E+02  0.45594000000E+02  0.51100000000E-03 0.  1.
    9900012    2    1    2    0    0 -0.10125975373E+01  0.11893369802E+00  0.59452752622E+00  0.90007761898E+02  0.90000023555E+02 0.  0.
        -12    1    1    2    0    0  0.10125975373E+01 -0.11893369802E+00 -0.59452752622E+00  0.11802381016E+01  0.00000000000E+00 0.  1.
         11    1    3    3    0    0 -0.61512032798E+01  0.45251666442E+01 -0.61360398863E+01  0.97961941945E+01  0.51100000000E-03 0. -1.
        -11    1    3    3    0    0  0.26822781855E+02  0.15157989230E+02 -0.23067121449E+02  0.38487898827E+02  0.51100000000E-03 0.  1.
         12    1    3    3    0    0 -0.21684176113E+02 -0.19564222176E+02  0.29797688861E+02  0.41723668877E+02  0.00000000000E+00 0. -1.
</event>
<event>
 7    1  0.2593256E-015  0.9000774E+02  0.7816164E-02  0.1186339E+00
        -11   -1    0    0    0    0  0.00000000000E+00  0.00000000000E+00  0.45593999997E+02  0.45594000000E+02  0.51100000000E-03 0.  1.
         11   -1    0    0    0    0 -0.00000000000E+00 -0.00000000000E+00 -0.45593999997E+02  0.45594000000E+02  0.51100000000E-03 0. -1.
    9900012    2    1    2    0    0 -0.82367336706E+00  0.75017308891E+00 -0.38963063835E+00  0.90007741760E+02  0.90000003151E+02 0.  0.
        -12    1    1    2    0    0  0.82367336706E+00 -0.75017308891E+00  0.38963063835E+00  0.11802582401E+01  0.00000000000E+00 0.  1.
         11    1    3    3    0    0 -0.71450476292E+01 -0.42453941564E+01 -0.57507542493E+01  0.10106742891E+02  0.51100000000E-03 0. -1.
        -11    1    3    3    0    0 -0.29988772850E+02 -0.15545382553E+02  0.15196909471E+02  0.37039593323E+02  0.51100000000E-03 0.  1.
         12    1    3    3    0    0  0.36310147112E+02  0.20540949799E+02 -0.98357858599E+01  0.42861405546E+02  0.00000000000E+00 0. -1.
</event>
<event>
 7    1  0.2593256E-015  0.9000761E+02  0.7816164E-02  0.1186339E+00
        -11   -1    0    0    0    0  0.00000000000E+00  0.00000000000E+00  0.45593999997E+02  0.45594000000E+02  0.51100000000E-03 0. -1.
         11   -1    0    0    0    0 -0.00000000000E+00 -0.00000000000E+00 -0.45593999997E+02  0.45594000000E+02  0.51100000000E-03 0.  1.
    9900012    2    1    2    0    0 -0.11179911821E+01  0.69104557779E-01  0.37235221947E+00  0.90007607735E+02  0.89999867357E+02 0.  0.
        -12    1    1    2    0    0  0.11179911821E+01 -0.69104557779E-01 -0.37235221947E+00  0.11803922647E+01  0.00000000000E+00 0.  1.
         11    1    3    3    0    0 -0.13527867207E+02 -0.37552306713E+02  0.12778534918E+02  0.41910259908E+02  0.51100000000E-03 0. -1.
        -11    1    3    3    0    0 -0.46932638791E+01  0.82509294357E+01  0.40685580789E+01  0.10327522815E+02  0.51100000000E-03 0.  1.
        -12    1    3    3    0    0  0.17103139904E+02  0.29370481835E+02 -0.16474740778E+02  0.37769825013E+02  0.00000000000E+00 0.  1.
</event>
<event>
 7    1  0.2593256E-015  0.9000777E+02  0.7816164E-02  0.1186339E+00
        -11   -1    0    0    0    0  0.00000000000E+00  0.00000000000E+00  0.45593999997E+02  0.45594000000E+02  0.51100000000E-03 0.  1.
         11   -1    0    0    0    0 -0.00000000000E+00 -0.00000000000E+00 -0.45593999997E+02  0.45594000000E+02  0.51100000000E-03 0. -1.
    9900012    2    1    2    0    0 -0.10978920176E+01  0.43310142218E+00 -0.15829703540E-02  0.90007768569E+02  0.90000030314E+02 0.  0.
        -12    1    1    2    0    0  0.10978920176E+01 -0.43310142218E+00  0.15829703540E-02  0.11802314307E+01  0.00000000000E+00 0.  1.
         11    1    3    3    0    0 -0.26677486166E+02 -0.26021265098E+02  0.44939829742E+01  0.37536520732E+02  0.51100000000E-03 0. -1.
        -11    1    3    3    0    0 -0.11320390782E+01 -0.32474167205E+01  0.95321074085E+01  0.10133523560E+02  0.51100000000E-03 0.  1.
        -12    1    3    3    0    0  0.26711633227E+02  0.29701783240E+02 -0.14027673353E+02  0.42337724277E+02  0.00000000000E+00 0.  1.
</event>
<event>
 7    1  0.2593256E-015  0.9000779E+02  0.7816164E-02  0.1186339E+00
        -11   -1    0    0    0    0  0.00000000000E+00  0.00000000000E+00  0.45593999997E+02  0.45594000000E+02  0.51100000000E-03 0.  1.
         11   -1    0    0    0    0 -0.00000000000E+00 -0.00000000000E+00 -0.45593999997E+02  0.45594000000E+02  0.51100000000E-03 0. -1.
    9900012    2    1    2    0    0 -0.26113527817E+00 -0.31453682555E+00 -0.11071441221E+01  0.90007791054E+02  0.90000053096E+02 0.  0.
        -12    1    1    2    0    0  0.26113527817E+00  0.31453682555E+00  0.11071441221E+01  0.11802089456E+01  0.00000000000E+00 0.  1.
         11    1    3    3    0    0 -0.20113239413E+02  0.69419474007E+01 -0.33526234182E+02  0.39708203335E+02  0.51100000000E-03 0. -1.
        -11    1    3    3    0    0 -0.61430388633E+01  0.63338432834E+01  0.49737079880E+01  0.10128784163E+02  0.51100000000E-03 0.  1.
        -12    1    3    3    0    0  0.25995142998E+02 -0.13590327510E+02  0.27445382072E+02  0.40170803556E+02  0.00000000000E+00 0.  1.
</event>
<event>
 7    1  0.2593256E-015  0.9000775E+02  0.7816164E-02  0.1186339E+00
        -11   -1    0    0    0    0  0.00000000000E+00  0.00000000000E+00  0.45593999997E+02  0.45594000000E+02  0.51100000000E-03 0. -1.
         11   -1    0    0    0    0 -0.00000000000E+00 -0.00000000000E+00 -0.45593999997E+02  0.45594000000E+02  0.51100000000E-03 0.  1.
    9900012    2    1    2    0    0 -0.40408220133E+00 -0.66659152860E+00  0.88620540668E+00  0.90007751418E+02  0.90000012937E+02 0.  0.
        -12    1    1    2    0    0  0.40408220133E+00  0.66659152860E+00 -0.88620540668E+00  0.11802485816E+01  0.00000000000E+00 0.  1.
         11    1    3    3    0    0  0.62500754417E+01 -0.10566201153E+02 -0.13564286135E+02  0.18294750844E+02  0.51100000000E-03 0. -1.
        -11    1    3    3    0    0  0.16107732089E+02 -0.24268400806E+02  0.45524326976E+01  0.29481162705E+02  0.51100000000E-03 0.  1.
         12    1    3    3    0    0 -0.22761889732E+02  0.34168010430E+02  0.98980588438E+01  0.42231837869E+02  0.00000000000E+00 0. -1.
</event>
<event>
 7    1  0.2593256E-015  0.9000774E+02  0.7816164E-02  0.1186339E+00
        -11   -1    0    0    0    0  0.00000000000E+00  0.00000000000E+00  0.45593999997E+02  0.45594000000E+02  0.51100000000E-03 0. -1.
         11   -1    0    0    0    0 -0.00000000000E+00 -0.00000000000E+00 -0.45593999997E+02  0.45594000000E+02  0.51100000000E-03 0.  1.
    9900012    2    1    2    0    0  0.11295528698E+01  0.33076194171E+00  0.87902663665E-01  0.90007737306E+02  0.89999998639E+02 0.  0.
        -12    1    1    2    0    0 -0.11295528698E+01 -0.33076194171E+00 -0.87902663665E-01  0.11802626936E+01  0.00000000000E+00 0.  1.
         11    1    3    3    0    0 -0.23213208811E+01  0.86340915090E+01 -0.65119110801E+01  0.11060788986E+02  0.51100000000E-03 0. -1.
        -11    1    3    3    0    0  0.27623512739E+02  0.24006328177E+02 -0.50584098970E+01  0.36945226478E+02  0.51100000000E-03 0.  1.
         12    1    3    3    0    0 -0.24172638988E+02 -0.32309657745E+02  0.11658223641E+02  0.42001721842E+02  0.00000000000E+00 0. -1.
</event>
<event>
 7    1  0.2593256E-015  0.9000778E+02  0.7816164E-02  0.1186339E+00
        -11   -1    0    0    0    0  0.00000000000E+00  0.00000000000E+00  0.45593999997E+02  0.45594000000E+02  0.51100000000E-03 0.  1.
         11   -1    0    0    0    0 -0.00000000000E+00 -0.00000000000E+00 -0.45593999997E+02  0.45594000000E+02  0.51100000000E-03 0. -1.
    9900012    2    1    2    0    0 -0.41968550477E+00  0.63599091390E+00 -0.90128001533E+00  0.90007777126E+02  0.90000038984E+02 0.  0.
        -12    1    1    2    0    0  0.41968550477E+00 -0.63599091390E+00  0.90128001533E+00  0.11802228737E+01  0.00000000000E+00 0.  1.
         11    1    3    3    0    0  0.35048019943E+01  0.58366481801E+01  0.64961425084E+01  0.94100991891E+01  0.51100000000E-03 0. -1.
        -11    1    3    3    0    0 -0.24063895003E+02  0.30728388909E+02 -0.23363265929E+01  0.39099403447E+02  0.51100000000E-03 0.  1.
         12    1    3    3    0    0  0.20139407504E+02 -0.35929046175E+02 -0.50610959308E+01  0.41498274491E+02  0.00000000000E+00 0. -1.
</event>
<event>
 7    1  0.2593256E-015  0.9000768E+02  0.7816164E-02  0.1186339E+00
        -11   -1    0    0    0    0  0.00000000000E+00  0.00000000000E+00  0.45593999997E+02  0.45594000000E+02  0.51100000000E-03 0.  1.
         11   -1    0    0    0    0 -0.00000000000E+00 -0.00000000000E+00 -0.45593999997E+02  0.45594000000E+02  0.51100000000E-03 0. -1.
    9900012    2    1    2    0    0 -0.11727483796E+01  0.10530626543E-01 -0.13304504176E+00  0.90007681975E+02  0.89999942577E+02 0.  0.
        -12    1    1    2    0    0  0.11727483796E+01 -0.10530626543E-01  0.13304504176E+00  0.11803180246E+01  0.00000000000E+00 0.  1.
         11    1    3    3    0    0  0.76589064571E+00  0.45084728542E+01 -0.37386030353E+02  0.37664680826E+02  0.51100000000E-03 0. -1.
        -11    1    3    3    0    0  0.37640538075E+01 -0.36487149970E+01 -0.64215173125E+01  0.82895782191E+01  0.51100000000E-03 0.  1.
        -12    1    3    3    0    0 -0.57026928328E+01 -0.84922723065E+00  0.43674502623E+02  0.44053422930E+02  0.00000000000E+00 0.  1.
</event>
<event>
 7    1  0.2593256E-015  0.9000770E+02  0.7816164E-02  0.1186339E+00
        -11   -1    0    0    0    0  0.00000000000E+00  0.00000000000E+00  0.45593999997E+02  0.45594000000E+02  0.51100000000E-03 0. -1.
         11   -1    0    0    0    0 -0.00000000000E+00 -0.00000000000E+00 -0.45593999997E+02  0.45594000000E+02  0.51100000000E-03 0.  1.
    9900012    2    1    2    0    0 -0.11533881987E+01  0.24742384149E-01  0.24939622029E+00  0.90007697074E+02  0.89999957875E+02 0.  0.
        -12    1    1    2    0    0  0.11533881987E+01 -0.24742384149E-01 -0.24939622029E+00  0.11803029260E+01  0.00000000000E+00 0.  1.
         11    1    3    3    0    0 -0.20204869776E+01  0.42971819488E+01 -0.51211996529E+01  0.69838976563E+01  0.51100000000E-03 0. -1.
        -11    1    3    3    0    0 -0.33427983605E+02  0.21109444727E+02  0.77649445748E+01  0.40290608200E+02  0.51100000000E-03 0.  1.
         12    1    3    3    0    0  0.34295082384E+02 -0.25381884292E+02 -0.23943487016E+01  0.42733191218E+02  0.00000000000E+00 0. -1.
</event>
<event>
 7    1  0.2593256E-015  0.9000776E+02  0.7816164E-02  0.1186339E+00
        -11   -1    0    0    0    0  0.00000000000E+00  0.00000000000E+00  0.45593999997E+02  0.45594000000E+02  0.51100000000E-03 0.  1.
         11   -1    0    0    0    0 -0.00000000000E+00 -0.00000000000E+00 -0.45593999997E+02  0.45594000000E+02  0.51100000000E-03 0. -1.
    9900012    2    1    2    0    0 -0.28776892086E+00 -0.10913574942E+01 -0.34509902078E+00  0.90007760420E+02  0.90000022058E+02 0.  0.
        -12    1    1    2    0    0  0.28776892086E+00  0.10913574942E+01  0.34509902078E+00  0.11802395799E+01  0.00000000000E+00 0.  1.
         11    1    3    3    0    0 -0.13443721160E+02 -0.34192661692E+02 -0.63538075577E+00  0.36746094503E+02  0.51100000000E-03 0. -1.
        -11    1    3    3    0    0 -0.75589278731E+01 -0.47839270770E+01 -0.41384466279E+01  0.98564745027E+01  0.51100000000E-03 0.  1.
        -12    1    3    3    0    0  0.20714880113E+02  0.37885231275E+02  0.44287283629E+01  0.43405191415E+02  0.00000000000E+00 0.  1.
</event>
<event>
 7    1  0.2593256E-015  0.9000774E+02  0.7816164E-02  0.1186339E+00
        -11   -1    0    0    0    0  0.00000000000E+00  0.00000000000E+00  0.45593999997E+02  0.45594000000E+02  0.51100000000E-03 0.  1.
         11   -1    0    0    0    0 -0.00000000000E+00 -0.00000000000E+00 -0.45593999997E+02  0.45594000000E+02  0.51100000000E-03 0. -1.
    9900012    2    1    2    0    0 -0.10915091867E+01  0.76802414133E-02 -0.44896495634E+00  0.90007736969E+02  0.89999998297E+02 0.  0.
        -12    1    1    2    0    0  0.10915091867E+01 -0.76802414133E-02  0.44896495634E+00  0.11802630312E+01  0.00000000000E+00 0.  1.
         11    1    3    3    0    0 -0.23437667062E+02  0.18846696648E+02 -0.31925528697E+02  0.43860706728E+02  0.51100000000E-03 0. -1.
        -11    1    3    3    0    0  0.57969284423E+01 -0.83328414297E+01  0.14008518244E+01  0.10247097723E+02  0.51100000000E-03 0.  1.
        -12    1    3    3    0    0  0.16549229433E+02 -0.10506174977E+02  0.30075711916E+02  0.35899932517E+02  0.00000000000E+00 0.  1.
</event>
<event>
 7    1  0.2593256E-015  0.9000767E+02  0.7816164E-02  0.1186339E+00
        -11   -1    0    0    0    0  0.00000000000E+00  0.00000000000E+00  0.45593999997E+02  0.45594000000E+02  0.51100000000E-03 0. -1.
         11   -1    0    0    0    0 -0.00000000000E+00 -0.00000000000E+00 -0.45593999997E+02  0.45594000000E+02  0.51100000000E-03 0.  1.
    9900012    2    1    2    0    0 -0.36677489112E+00  0.10740540368E+01  0.32414221867E+00  0.90007667813E+02  0.89999928228E+02 0.  0.
        -12    1    1    2    0    0  0.36677489112E+00 -0.10740540368E+01 -0.32414221867E+00  0.11803321875E+01  0.00000000000E+00 0.  1.
         11    1    3    3    0    0 -0.72068455880E+01  0.43629274203E+02 -0.27046305893E+01  0.44303128758E+02  0.51100000000E-03 0. -1.
        -11    1    3    3    0    0 -0.14990643096E+01 -0.11194628539E+02 -0.48809158143E+01  0.12304074178E+02  0.51100000000E-03 0.  1.
        -12    1    3    3    0    0  0.83391350066E+01 -0.31360591627E+02  0.79096886223E+01  0.33400464877E+02  0.00000000000E+00 0.  1.
</event>
<event>
 7    1  0.2593256E-015  0.9000781E+02  0.7816164E-02  0.1186339E+00
        -11   -1    0    0    0    0  0.00000000000E+00  0.00000000000E+00  0.45593999997E+02  0.45594000000E+02  0.51100000000E-03 0. -1.
         11   -1    0    0    0    0 -0.00000000000E+00 -0.00000000000E+00 -0.45593999997E+02  0.45594000000E+02  0.51100000000E-03 0.  1.
    9900012    2    1    2    0    0 -0.10580806133E+01  0.51960283970E+00  0.57673760948E-01  0.90007810203E+02  0.90000072497E+02 0.  0.
        -12    1    1    2    0    0  0.10580806133E+01 -0.51960283970E+00 -0.57673760948E-01  0.11801897974E+01  0.00000000000E+00 0.  1.
         11    1    3    3    0    0 -0.66718725219E+00 -0.11760655106E+01 -0.10601650446E+02  0.10687528309E+02  0.51100000000E-03 0. -1.
        -11    1    3    3    0    0  0.37447934245E+02  0.10467696297E+02  0.11233939554E+02  0.40473717931E+02  0.51100000000E-03 0.  1.
         12    1    3    3    0    0 -0.37838827606E+02 -0.87720279469E+01 -0.57461534622E+00  0.38846563962E+02  0.00000000000E+00 0. -1.
</event>
<event>
 7    1  0.2593256E-015  0.9000775E+02  0.7816164E-02  0.1186339E+00
        -11   -1    0    0    0    0  0.00000000000E+00  0.00000000000E+00  0.45593999997E+02  0.45594000000E+02  0.51100000000E-03 0. -1.
         11   -1    0    0    0    0 -0.00000000000E+00 -0.00000000000E+00 -0.45593999997E+02  0.45594000000E+02  0.51100000000E-03 0.  1.
    9900012    2    1    2    0    0  0.15110346327E-01 -0.11661711406E+01  0.18112264722E+00  0.90007750507E+02  0.90000012014E+02 0.  0.
        -12    1    1    2    0    0 -0.15110346327E-01  0.11661711406E+01 -0.18112264722E+00  0.11802494927E+01  0.00000000000E+00 0.  1.
         11    1    3    3    0    0  0.38729820102E+01  0.20608639594E+01 -0.78348642105E+01  0.89795460558E+01  0.51100000000E-03 0. -1.
        -11    1    3    3    0    0 -0.12337264340E+02 -0.58733643195E+00 -0.34994616522E+02  0.37110325265E+02  0.51100000000E-03 0.  1.
         12    1    3    3    0    0  0.84793926764E+01 -0.26396986680E+01  0.43010603379E+02  0.43917879187E+02  0.00000000000E+00 0. -1.
</event>
<event>
 7    1  0.2593256E-015  0.9000774E+02  0.7816164E-02  0.1186339E+00
        -11   -1    0    0    0    0  0.00000000000E+00  0.00000000000E+00  0.45593999997E+02  0.45594000000E+02  0.51100000000E-03 0. -1.
         11   -1    0    0    0    0 -0.00000000000E+00 -0.00000000000E+00 -0.45593999997E+02  0.45594000000E+02  0.51100000000E-03 0.  1.
    9900012    2    1    2    0    0 -0.11319164642E+00 -0.96489393866E+00 -0.67021443318E+00  0.90007737297E+02  0.89999998629E+02 0.  0.
        -12    1    1    2    0    0  0.11319164642E+00  0.96489393866E+00  0.67021443318E+00  0.11802627030E+01  0.00000000000E+00 0.  1.
         11    1    3    3    0    0 -0.92847431707E+01 -0.92316561501E+00  0.71241268719E+00  0.93576825442E+01  0.51100000000E-03 0. -1.
        -11    1    3    3    0    0 -0.28857680385E+02 -0.11549744485E+01 -0.22974708060E+02  0.36904429190E+02  0.51100000000E-03 0.  1.
         12    1    3    3    0    0  0.38029231909E+02  0.11132461248E+01  0.21592080939E+02  0.43745625562E+02  0.00000000000E+00 0. -1.
</event>
<event>
 7    1  0.2593256E-015  0.9000781E+02  0.7816164E-02  0.1186339E+00
        -11   -1    0    0    0    0  0.00000000000E+00  0.00000000000E+00  0.45593999997E+02  0.45594000000E+02  0.51100000000E-03 0.  1.
         11   -1    0    0    0    0 -0.00000000000E+00 -0.00000000000E+00 -0.45593999997E+02  0.45594000000E+02  0.51100000000E-03 0. -1.
    9900012    2    1    2    0    0  0.22705960686E+00  0.11158445001E+01 -0.31012073297E+00  0.90007813624E+02  0.90000075964E+02 0.  0.
        -12    1    1    2    0    0 -0.22705960686E+00 -0.11158445001E+01  0.31012073297E+00  0.11801863762E+01  0.00000000000E+00 0.  1.
         11    1    3    3    0    0 -0.11423073896E+01  0.86776691220E+01  0.60261452409E+01  0.10626440339E+02  0.51100000000E-03 0. -1.
        -11    1    3    3    0    0  0.78325878389E+01 -0.33127877004E+00  0.35541228689E+02  0.36395578233E+02  0.51100000000E-03 0.  1.
         12    1    3    3    0    0 -0.64632208424E+01 -0.72305458518E+01 -0.41877494663E+02  0.42985795052E+02  0.00000000000E+00 0. -1.
</event>
<event>
 7    1  0.2593256E-015  0.9000775E+02  0.7816164E-02  0.1186339E+00
        -11   -1    0    0    0    0  0.00000000000E+00  0.00000000000E+00  0.45593999997E+02  0.45594000000E+02  0.51100000000E-03 0. -1.
         11   -1    0    0    0    0 -0.00000000000E+00 -0.00000000000E+00 -0.45593999997E+02  0.45594000000E+02  0.51100000000E-03 0.  1.
    9900012    2    1    2    0    0 -0.33119481132E+00  0.74546309362E+00  0.85298992281E+00  0.90007747046E+02  0.90000008507E+02 0.  0.
        -12    1    1    2    0    0  0.33119481132E+00 -0.74546309362E+00 -0.85298992281E+00  0.11802529540E+01  0.00000000000E+00 0.  1.
         11    1    3    3    0    0 -0.92634090365E+01 -0.48277041135E+01 -0.23206472025E+01  0.10700601744E+02  0.51100000000E-03 0. -1.
        -11    1    3    3    0    0 -0.30122197618E+02 -0.11659729876E+02  0.14099953726E+02  0.35243506997E+02  0.51100000000E-03 0.  1.
         12    1    3    3    0    0  0.39054411843E+02  0.17232897083E+02 -0.10926316600E+02  0.44063638305E+02  0.00000000000E+00 0. -1.
</event>
<event>
 7    1  0.2593256E-015  0.9000772E+02  0.7816164E-02  0.1186339E+00
        -11   -1    0    0    0    0  0.00000000000E+00  0.00000000000E+00  0.45593999997E+02  0.45594000000E+02  0.51100000000E-03 0.  1.
         11   -1    0    0    0    0 -0.00000000000E+00 -0.00000000000E+00 -0.45593999997E+02  0.45594000000E+02  0.51100000000E-03 0. -1.
    9900012    2    1    2    0    0  0.66848285557E+00  0.69049342976E+00 -0.68513175219E+00  0.90007722057E+02  0.89999983188E+02 0.  0.
        -12    1    1    2    0    0 -0.66848285557E+00 -0.69049342976E+00  0.68513175219E+00  0.11802779429E+01  0.00000000000E+00 0.  1.
         11    1    3    3    0    0  0.30088685590E+02  0.19301404110E+02 -0.15937306990E+02  0.39139123081E+02  0.51100000000E-03 0. -1.
        -11    1    3    3    0    0  0.31835621309E+01 -0.68519981525E+01 -0.64848297712E+01  0.99568049065E+01  0.51100000000E-03 0.  1.
        -12    1    3    3    0    0 -0.32603764866E+02 -0.11758912528E+02  0.21737005009E+02  0.40911794070E+02  0.00000000000E+00 0.  1.
</event>
<event>
 7    1  0.2593256E-015  0.9000770E+02  0.7816164E-02  0.1186339E+00
        -11   -1    0    0    0    0  0.00000000000E+00  0.00000000000E+00  0.45593999997E+02  0.45594000000E+02  0.51100000000E-03 0. -1.
         11   -1    0    0    0    0 -0.00000000000E+00 -0.00000000000E+00 -0.45593999997E+02  0.45594000000E+02  0.51100000000E-03 0.  1.
    9900012    2    1    2    0    0 -0.88163784120E+00  0.29460698333E+00 -0.72733943162E+00  0.90007702916E+02  0.89999963795E+02 0.  0.
        -12    1    1    2    0    0  0.88163784120E+00 -0.29460698333E+00  0.72733943162E+00  0.11802970840E+01  0.00000000000E+00 0.  1.
         11    1    3    3    0    0  0.18321761136E+02 -0.11986726995E+02 -0.27263658911E+02  0.34966779272E+02  0.51100000000E-03 0. -1.
        -11    1    3    3    0    0  0.12468205833E+02  0.11749902172E+01  0.44774044914E+00  0.12531449655E+02  0.51100000000E-03 0.  1.
        -12    1    3    3    0    0 -0.31671604810E+02  0.11106343761E+02  0.26088579030E+02  0.42509473989E+02  0.00000000000E+00 0.  1.
</event>
<event>
 7    1  0.2593256E-015  0.9000833E+02  0.7816164E-02  0.1186338E+00
        -11   -1    0    0    0    0  0.00000000000E+00  0.00000000000E+00  0.45593999997E+02  0.45594000000E+02  0.51100000000E-03 0. -1.
         11   -1    0    0    0    0 -0.00000000000E+00 -0.00000000000E+00 -0.45593999997E+02  0.45594000000E+02  0.51100000000E-03 0.  1.
    9900012    2    1    2    0    0  0.11713373001E+01 -0.11602317580E+00  0.78314532510E-01  0.90008328175E+02  0.90000597305E+02 0.  0.
        -12    1    1    2    0    0 -0.11713373001E+01  0.11602317580E+00 -0.78314532510E-01  0.11796718246E+01  0.00000000000E+00 0.  1.
         11    1    3    3    0    0 -0.54522302858E+01 -0.33002556121E+01 -0.74786330834E+01  0.98259073501E+01  0.51100000000E-03 0. -1.
        -11    1    3    3    0    0  0.10182917679E+02 -0.12726285040E+02 -0.32816592666E+02  0.36641218564E+02  0.51100000000E-03 0.  1.
         12    1    3    3    0    0 -0.35593500935E+01  0.15910517477E+02  0.40373540282E+02  0.43541202261E+02  0.00000000000E+00 0. -1.
</event>
<event>
 7    1  0.2593256E-015  0.9000768E+02  0.7816164E-02  0.1186339E+00
        -11   -1    0    0    0    0  0.00000000000E+00  0.00000000000E+00  0.45593999997E+02  0.45594000000E+02  0.51100000000E-03 0.  1.
         11   -1    0    0    0    0 -0.00000000000E+00 -0.00000000000E+00 -0.45593999997E+02  0.45594000000E+02  0.51100000000E-03 0. -1.
    9900012    2    1    2    0    0 -0.41514590609E+00  0.10864055755E+01 -0.20131432655E+00  0.90007681968E+02  0.89999942570E+02 0.  0.
        -12    1    1    2    0    0  0.41514590609E+00 -0.10864055755E+01  0.20131432655E+00  0.11803180316E+01  0.00000000000E+00 0.  1.
         11    1    3    3    0    0 -0.35245697954E+01  0.24995177848E+02 -0.34316168511E+02  0.42600245650E+02  0.51100000000E-03 0. -1.
        -11    1    3    3    0    0 -0.57966849293E+01  0.14568119516E+01  0.51559953747E+01  0.78935508991E+01  0.51100000000E-03 0.  1.
        -12    1    3    3    0    0  0.89061088185E+01 -0.25365584224E+02  0.28958858810E+02  0.39513885419E+02  0.00000000000E+00 0.  1.
</event>
<event>
 7    1  0.2593256E-015  0.9000773E+02  0.7816164E-02  0.1186339E+00
        -11   -1    0    0    0    0  0.00000000000E+00  0.00000000000E+00  0.45593999997E+02  0.45594000000E+02  0.51100000000E-03 0.  1.
         11   -1    0    0    0    0 -0.00000000000E+00 -0.00000000000E+00 -0.45593999997E+02  0.45594000000E+02  0.51100000000E-03 0. -1.
    9900012    2    1    2    0    0 -0.11762756592E+01  0.93089234591E-01 -0.27423937380E-01  0.90007727953E+02  0.89999989162E+02 0.  0.
        -12    1    1    2    0    0  0.11762756592E+01 -0.93089234591E-01  0.27423937380E-01  0.11802720467E+01  0.00000000000E+00 0.  1.
         11    1    3    3    0    0  0.32753671223E+02 -0.19076401776E+02 -0.71385242332E+01  0.38570333312E+02  0.51100000000E-03 0. -1.
        -11    1    3    3    0    0  0.40817809601E+01  0.69912807835E+01  0.81792155819E+01  0.11508193194E+02  0.51100000000E-03 0.  1.
        -12    1    3    3    0    0 -0.38011727842E+02  0.12178210227E+02 -0.10681152861E+01  0.39929201447E+02  0.00000000000E+00 0.  1.
</event>
<event>
 7    1  0.2593256E-015  0.9000776E+02  0.7816164E-02  0.1186339E+00
        -11   -1    0    0    0    0  0.00000000000E+00  0.00000000000E+00  0.45593999997E+02  0.45594000000E+02  0.51100000000E-03 0.  1.
         11   -1    0    0    0    0 -0.00000000000E+00 -0.00000000000E+00 -0.45593999997E+02  0.45594000000E+02  0.51100000000E-03 0. -1.
    9900012    2    1    2    0    0  0.85343420933E-01 -0.85129937275E+00 -0.81300013699E+00  0.90007761319E+02  0.90000022968E+02 0.  0.
        -12    1    1    2    0    0 -0.85343420933E-01  0.85129937275E+00  0.81300013699E+00  0.11802386811E+01  0.00000000000E+00 0.  1.
         11    1    3    3    0    0  0.10395207847E+02 -0.23777156845E+02 -0.27164783224E+02  0.37567791813E+02  0.51100000000E-03 0. -1.
        -11    1    3    3    0    0  0.91862239023E+01  0.10106662162E+01 -0.41431431653E+01  0.10127872004E+02  0.51100000000E-03 0.  1.
        -12    1    3    3    0    0 -0.19496088329E+02  0.21915191256E+02  0.30494926252E+02  0.42312097502E+02  0.00000000000E+00 0.  1.
</event>
<event>
 7    1  0.2593256E-015  0.9000786E+02  0.7816164E-02  0.1186339E+00
        -11   -1    0    0    0    0  0.00000000000E+00  0.00000000000E+00  0.45593999997E+02  0.45594000000E+02  0.51100000000E-03 0.  1.
         11   -1    0    0    0    0 -0.00000000000E+00 -0.00000000000E+00 -0.45593999997E+02  0.45594000000E+02  0.51100000000E-03 0. -1.
    9900012    2    1    2    0    0  0.11381859794E+01  0.31178656309E+00  0.65466526390E-02  0.90007863973E+02  0.90000126977E+02 0.  0.
        -12    1    1    2    0    0 -0.11381859794E+01 -0.31178656309E+00 -0.65466526390E-02  0.11801360275E+01  0.00000000000E+00 0.  1.
         11    1    3    3    0    0  0.14762018354E+01  0.12435229346E+02 -0.12197634136E+02  0.17481315154E+02  0.51100000000E-03 0. -1.
        -11    1    3    3    0    0 -0.32321269094E+02 -0.14865722706E+01  0.19857292313E+02  0.37962960781E+02  0.51100000000E-03 0.  1.
         12    1    3    3    0    0  0.31983253238E+02 -0.10636870512E+02 -0.76531115247E+01  0.34563588037E+02  0.00000000000E+00 0. -1.
</event>
<event>
 7    1  0.2593256E-015  0.9000817E+02  0.7816164E-02  0.1186338E+00
        -11   -1    0    0    0    0  0.00000000000E+00  0.00000000000E+00  0.45593999997E+02  0.45594000000E+02  0.51100000000E-03 0.  1.
         11   -1    0    0    0    0 -0.00000000000E+00 -0.00000000000E+00 -0.45593999997E+02  0.45594000000E+02  0.51100000000E-03 0. -1.
    9900012    2    1    2    0    0 -0.34330010331E+00 -0.55482710165E+00 -0.98300799506E+00  0.90008172558E+02  0.90000439635E+02 0.  0.
        -12    1    1    2    0    0  0.34330010331E+00  0.55482710165E+00  0.98300799506E+00  0.11798274416E+01  0.00000000000E+00 0.  1.
         11    1    3    3    0    0 -0.28500608106E+02 -0.17666813185E+02 -0.13284982854E+02  0.36067876569E+02  0.51100000000E-03 0. -1.
        -11    1    3    3    0    0 -0.38265601375E+01 -0.90631620782E+01 -0.23075655303E+01  0.10104866564E+02  0.51100000000E-03 0.  1.
        -12    1    3    3    0    0  0.31983868140E+02  0.26175148162E+02  0.14609540389E+02  0.43835429425E+02  0.00000000000E+00 0.  1.
</event>
<event>
 7    1  0.2593256E-015  0.9000778E+02  0.7816164E-02  0.1186339E+00
        -11   -1    0    0    0    0  0.00000000000E+00  0.00000000000E+00  0.45593999997E+02  0.45594000000E+02  0.51100000000E-03 0. -1.
         11   -1    0    0    0    0 -0.00000000000E+00 -0.00000000000E+00 -0.45593999997E+02  0.45594000000E+02  0.51100000000E-03 0.  1.
    9900012    2    1    2    0    0  0.22891138819E+00  0.11566533527E+01  0.51585295135E-01  0.90007784577E+02  0.90000046533E+02 0.  0.
        -12    1    1    2    0    0 -0.22891138819E+00 -0.11566533527E+01 -0.51585295135E-01  0.11802154230E+01  0.00000000000E+00 0.  1.
         11    1    3    3    0    0 -0.15843614112E+02 -0.11909191309E+01  0.33978418821E+02  0.37509616665E+02  0.51100000000E-03 0. -1.
        -11    1    3    3    0    0 -0.85442888064E+01 -0.31630913434E+01  0.12656232901E+01  0.91984683849E+01  0.51100000000E-03 0.  1.
        -12    1    3    3    0    0  0.24616814307E+02  0.55106638270E+01 -0.35192456816E+02  0.43299699527E+02  0.00000000000E+00 0.  1.
</event>
<event>
 7    1  0.2593256E-015  0.9000811E+02  0.7816164E-02  0.1186338E+00
        -11   -1    0    0    0    0  0.00000000000E+00  0.00000000000E+00  0.45593999997E+02  0.45594000000E+02  0.51100000000E-03 0. -1.
         11   -1    0    0    0    0 -0.00000000000E+00 -0.00000000000E+00 -0.45593999997E+02  0.45594000000E+02  0.51100000000E-03 0.  1.
    9900012    2    1    2    0    0 -0.45059398913E+00 -0.35342388050E+00  0.10315984287E+01  0.90008110725E+02  0.90000376986E+02 0.  0.
        -12    1    1    2    0    0  0.45059398913E+00  0.35342388050E+00 -0.10315984287E+01  0.11798892747E+01  0.00000000000E+00 0.  1.
         11    1    3    3    0    0  0.81939031390E+01  0.24706848634E+01  0.75102710696E+01  0.11386329705E+02  0.51100000000E-03 0. -1.
        -11    1    3    3    0    0  0.16407918035E+02  0.21477240557E+01 -0.35978452479E+02  0.39601534515E+02  0.51100000000E-03 0.  1.
         12    1    3    3    0    0 -0.25052415163E+02 -0.49718327997E+01  0.29499779838E+02  0.39020246506E+02  0.00000000000E+00 0. -1.
</event>
<event>
 7    1  0.2593256E-015  0.9000796E+02  0.7816164E-02  0.1186339E+00
        -11   -1    0    0    0    0  0.00000000000E+00  0.00000000000E+00  0.45593999997E+02  0.45594000000E+02  0.51100000000E-03 0. -1.
         11   -1    0    0    0    0 -0.00000000000E+00 -0.00000000000E+00 -0.45593999997E+02  0.45594000000E+02  0.51100000000E-03 0.  1.
    9900012    2    1    2    0    0  0.54205012992E+00 -0.57364625547E+00  0.87726552692E+00  0.90007964757E+02  0.90000229092E+02 0.  0.
        -12    1    1    2    0    0 -0.54205012992E+00  0.57364625547E+00 -0.87726552692E+00  0.11800352429E+01  0.00000000000E+00 0.  1.
         11    1    3    3    0    0  0.12673086200E+02  0.10315524347E+01  0.35450169783E+02  0.37661462427E+02  0.51100000000E-03 0. -1.
        -11    1    3    3    0    0  0.45696056460E+01 -0.53059617932E+01  0.54160347898E+01  0.88525679560E+01  0.51100000000E-03 0.  1.
        -12    1    3    3    0    0 -0.16700641716E+02  0.37007631030E+01 -0.39988939046E+02  0.43493934374E+02  0.00000000000E+00 0.  1.
</event>
<event>
 7    1  0.2593256E-015  0.9000814E+02  0.7816164E-02  0.1186338E+00
        -11   -1    0    0    0    0  0.00000000000E+00  0.00000000000E+00  0.45593999997E+02  0.45594000000E+02  0.51100000000E-03 0. -1.
         11   -1    0    0    0    0 -0.00000000000E+00 -0.00000000000E+00 -0.45593999997E+02  0.45594000000E+02  0.51100000000E-03 0.  1.
    9900012    2    1    2    0    0  0.31269065886E+00 -0.30449416713E-01  0.11372677810E+01  0.90008135338E+02  0.90000401923E+02 0.  0.
        -12    1    1    2    0    0 -0.31269065886E+00  0.30449416713E-01 -0.11372677810E+01  0.11798646621E+01  0.00000000000E+00 0.  1.
         11    1    3    3    0    0  0.80451586231E+00 -0.46552565566E+01  0.88783663853E+01  0.10057039789E+02  0.51100000000E-03 0. -1.
        -11    1    3    3    0    0  0.33610660081E+02  0.71223235152E+01 -0.24178155298E+02  0.42011750228E+02  0.51100000000E-03 0.  1.
         12    1    3    3    0    0 -0.34102485285E+02 -0.24975163753E+01  0.16437056694E+02  0.37939345321E+02  0.00000000000E+00 0. -1.
</event>
<event>
 7    1  0.2593256E-015  0.9000765E+02  0.7816164E-02  0.1186339E+00
        -11   -1    0    0    0    0  0.00000000000E+00  0.00000000000E+00  0.45593999997E+02  0.45594000000E+02  0.51100000000E-03 0.  1.
         11   -1    0    0    0    0 -0.00000000000E+00 -0.00000000000E+00 -0.45593999997E+02  0.45594000000E+02  0.51100000000E-03 0. -1.
    9900012    2    1    2    0    0  0.87133144188E+00  0.78089957850E+00 -0.15559315432E+00  0.90007647568E+02  0.89999907716E+02 0.  0.
        -12    1    1    2    0    0 -0.87133144188E+00 -0.78089957850E+00  0.15559315432E+00  0.11803524317E+01  0.00000000000E+00 0.  1.
         11    1    3    3    0    0 -0.35400624902E+01  0.76522913762E+01  0.42397371255E+01  0.94374242723E+01  0.51100000000E-03 0. -1.
        -11    1    3    3    0    0 -0.19545768801E+01 -0.42057567406E+02  0.77423624188E+01  0.42808918732E+02  0.51100000000E-03 0.  1.
         12    1    3    3    0    0  0.63659708121E+01  0.35186175609E+02 -0.12137692699E+02  0.37761304564E+02  0.00000000000E+00 0. -1.
</event>
<event>
 7    1  0.2593256E-015  0.9000782E+02  0.7816164E-02  0.1186339E+00
        -11   -1    0    0    0    0  0.00000000000E+00  0.00000000000E+00  0.45593999997E+02  0.45594000000E+02  0.51100000000E-03 0. -1.
         11   -1    0    0    0    0 -0.00000000000E+00 -0.00000000000E+00 -0.45593999997E+02  0.45594000000E+02  0.51100000000E-03 0.  1.
    9900012    2    1    2    0    0 -0.44014276169E+00 -0.10901897086E+01  0.10283350072E+00  0.90007824598E+02  0.90000087082E+02 0.  0.
        -12    1    1    2    0    0  0.44014276169E+00  0.10901897086E+01 -0.10283350072E+00  0.11801754024E+01  0.00000000000E+00 0.  1.
         11    1    3    3    0    0  0.34193131958E+02  0.17609667772E+02  0.52774759954E+01  0.38821674684E+02  0.51100000000E-03 0. -1.
        -11    1    3    3    0    0 -0.50510618937E+01  0.88473129375E+01 -0.33443452402E+01  0.10722537844E+02  0.51100000000E-03 0.  1.
        -12    1    3    3    0    0 -0.29582212826E+02 -0.27547170418E+02 -0.18302972545E+01  0.40463612070E+02  0.00000000000E+00 0.  1.
</event>
<event>
 7    1  0.2593256E-015  0.9000772E+02  0.7816164E-02  0.1186339E+00
        -11   -1    0    0    0    0  0.00000000000E+00  0.00000000000E+00  0.45593999997E+02  0.45594000000E+02  0.51100000000E-03 0.  1.
         11   -1    0    0    0    0 -0.00000000000E+00 -0.00000000000E+00 -0.45593999997E+02  0.45594000000E+02  0.51100000000E-03 0. -1.
    9900012    2    1    2    0    0 -0.69384339920E-02  0.10892102718E+01 -0.45457376786E+00  0.90007718479E+02  0.89999979563E+02 0.  0.
        -12    1    1    2    0    0  0.69384339920E-02 -0.10892102718E+01  0.45457376786E+00  0.11802815209E+01  0.00000000000E+00 0.  1.
         11    1    3    3    0    0 -0.26944563113E+01  0.71691829603E+01 -0.99548051886E+01  0.12560072680E+02  0.51100000000E-03 0. -1.
        -11    1    3    3    0    0 -0.33950429981E+02  0.27716032377E+01 -0.93239626622E+01  0.35316423380E+02  0.51100000000E-03 0.  1.
         12    1    3    3    0    0  0.36637947858E+02 -0.88515759261E+01  0.18824194083E+02  0.42131222419E+02  0.00000000000E+00 0. -1.
</event>
<event>
 7    1  0.2593256E-015  0.9000776E+02  0.7816164E-02  0.1186339E+00
        -11   -1    0    0    0    0  0.00000000000E+00  0.00000000000E+00  0.45593999997E+02  0.45594000000E+02  0.51100000000E-03 0. -1.
         11   -1    0    0    0    0 -0.00000000000E+00 -0.00000000000E+00 -0.45593999997E+02  0.45594000000E+02  0.51100000000E-03 0.  1.
    9900012    2    1    2    0    0  0.94957130959E+00  0.57252171974E+00  0.40435496202E+00  0.90007758615E+02  0.90000020229E+02 0.  0.
        -12    1    1    2    0    0 -0.94957130959E+00 -0.57252171974E+00 -0.40435496202E+00  0.11802413850E+01  0.00000000000E+00 0.  1.
         11    1    3    3    0    0  0.36285840170E+02 -0.66608977711E+01  0.15862995417E+02  0.40157992727E+02  0.51100000000E-03 0. -1.
        -11    1    3    3    0    0  0.37411787167E+01 -0.28767922102E+01 -0.72636114870E+01  0.86621246647E+01  0.51100000000E-03 0.  1.
        -12    1    3    3    0    0 -0.39077447577E+02  0.10110211701E+02 -0.81950289682E+01  0.41187641224E+02  0.00000000000E+00 0.  1.
</event>
<event>
 7    1  0.2593256E-015  0.9000774E+02  0.7816164E-02  0.1186339E+00
        -11   -1    0    0    0    0  0.00000000000E+00  0.00000000000E+00  0.45593999997E+02  0.45594000000E+02  0.51100000000E-03 0. -1.
         11   -1    0    0    0    0 -0.00000000000E+00 -0.00000000000E+00 -0.45593999997E+02  0.45594000000E+02  0.51100000000E-03 0.  1.
    9900012    2    1    2    0    0  0.10853358182E+01  0.26032494682E+00  0.38377200392E+00  0.90007744152E+02  0.90000005575E+02 0.  0.
        -12    1    1    2    0    0 -0.10853358182E+01 -0.26032494682E+00 -0.38377200392E+00  0.11802558482E+01  0.00000000000E+00 0.  1.
         11    1    3    3    0    0 -0.93796456438E+01  0.61933244311E+01  0.33138078396E+01  0.11718205604E+02  0.51100000000E-03 0. -1.
        -11    1    3    3    0    0  0.15868658608E+02  0.32174971710E+02  0.10734142885E+02  0.37446828361E+02  0.51100000000E-03 0.  1.
         12    1    3    3    0    0 -0.54036771461E+01 -0.38107971195E+02 -0.13664178721E+02  0.40842710187E+02  0.00000000000E+00 0. -1.
</event>
<event>
 7    1  0.2593256E-015  0.9000771E+02  0.7816164E-02  0.1186339E+00
        -11   -1    0    0    0    0  0.00000000000E+00  0.00000000000E+00  0.45593999997E+02  0.45594000000E+02  0.51100000000E-03 0. -1.
         11   -1    0    0    0    0 -0.00000000000E+00 -0.00000000000E+00 -0.45593999997E+02  0.45594000000E+02  0.51100000000E-03 0.  1.
    9900012    2    1    2    0    0 -0.10289022481E+01  0.20202765725E+00  0.54186520942E+00  0.90007714901E+02  0.89999975937E+02 0.  0.
        -12    1    1    2    0    0  0.10289022481E+01 -0.20202765725E+00 -0.54186520942E+00  0.11802850993E+01  0.00000000000E+00 0.  1.
         11    1    3    3    0    0  0.84633024893E+01 -0.37347178677E+02  0.12143997473E+02  0.40173572396E+02  0.51100000000E-03 0. -1.
        -11    1    3    3    0    0 -0.10053519210E+02  0.41611803086E+01  0.56368847505E+01  0.12254107067E+02  0.51100000000E-03 0.  1.
        -12    1    3    3    0    0  0.56131447269E+00  0.33388026026E+02 -0.17239017014E+02  0.37580035437E+02  0.00000000000E+00 0.  1.
</event>
<event>
 7    1  0.2593256E-015  0.9000773E+02  0.7816164E-02  0.1186339E+00
        -11   -1    0    0    0    0  0.00000000000E+00  0.00000000000E+00  0.45593999997E+02  0.45594000000E+02  0.51100000000E-03 0.  1.
         11   -1    0    0    0    0 -0.00000000000E+00 -0.00000000000E+00 -0.45593999997E+02  0.45594000000E+02  0.51100000000E-03 0. -1.
    9900012    2    1    2    0    0 -0.88970956843E+00  0.56440725945E+00 -0.53188057735E+00  0.90007730701E+02  0.89999991946E+02 0.  0.
        -12    1    1    2    0    0  0.88970956843E+00 -0.56440725945E+00  0.53188057735E+00  0.11802692995E+01  0.00000000000E+00 0.  1.
         11    1    3    3    0    0 -0.67638607050E+01 -0.12811579766E+02 -0.53109112919E+01  0.15430235473E+02  0.51100000000E-03 0. -1.
        -11    1    3    3    0    0 -0.16462024829E+02  0.16592112357E+01  0.32885380656E+02  0.36813034438E+02  0.51100000000E-03 0.  1.
         12    1    3    3    0    0  0.22336175965E+02  0.11716775790E+02 -0.28106349942E+02  0.37764460789E+02  0.00000000000E+00 0. -1.
</event>
<event>
 7    1  0.2593256E-015  0.9000787E+02  0.7816164E-02  0.1186339E+00
        -11   -1    0    0    0    0  0.00000000000E+00  0.00000000000E+00  0.45593999997E+02  0.45594000000E+02  0.51100000000E-03 0.  1.
         11   -1    0    0    0    0 -0.00000000000E+00 -0.00000000000E+00 -0.45593999997E+02  0.45594000000E+02  0.51100000000E-03 0. -1.
    9900012    2    1    2    0    0 -0.36834760620E+00 -0.99449038025E+00 -0.51769727935E+00  0.90007872232E+02  0.90000135346E+02 0.  0.
        -12    1    1    2    0    0  0.36834760620E+00  0.99449038025E+00  0.51769727935E+00  0.11801277679E+01  0.00000000000E+00 0.  1.
         11    1    3    3    0    0 -0.92009256216E+01  0.55353094276E+00  0.16473470679E+01  0.93636094228E+01  0.51100000000E-03 0. -1.
        -11    1    3    3    0    0  0.34329671220E+01  0.37105191010E+02  0.11963675083E+02  0.39137066636E+02  0.51100000000E-03 0.  1.
         12    1    3    3    0    0  0.53996108934E+01 -0.38653212333E+02 -0.14128719430E+02  0.41507196173E+02  0.00000000000E+00 0. -1.
</event>
<event>
 7    1  0.2593256E-015  0.9000642E+02  0.7816164E-02  0.1186342E+00
        -11   -1    0    0    0    0  0.00000000000E+00  0.00000000000E+00  0.45593999997E+02  0.45594000000E+02  0.51100000000E-03 0.  1.
         11   -1    0    0    0    0 -0.00000000000E+00 -0.00000000000E+00 -0.45593999997E+02  0.45594000000E+02  0.51100000000E-03 0. -1.
    9900012    2    1    2    0    0 -0.17307947514E+00  0.64600380277E+00 -0.97409632119E+00  0.90006415868E+02  0.89998659748E+02 0.  0.
        -12    1    1    2    0    0  0.17307947514E+00 -0.64600380277E+00  0.97409632119E+00  0.11815841319E+01  0.00000000000E+00 0.  1.
         11    1    3    3    0    0  0.42452389620E+01 -0.37770709845E+01  0.71229394770E+01  0.91117828179E+01  0.51100000000E-03 0. -1.
        -11    1    3    3    0    0 -0.16874026775E+02 -0.34982129256E+02 -0.30972424480E+00  0.38840418075E+02  0.51100000000E-03 0.  1.
         12    1    3    3    0    0  0.12455708337E+02  0.39405204044E+02 -0.77873115534E+01  0.42054214975E+02  0.00000000000E+00 0. -1.
</event>
<event>
 7    1  0.2593256E-015  0.9000783E+02  0.7816164E-02  0.1186339E+00
        -11   -1    0    0    0    0  0.00000000000E+00  0.00000000000E+00  0.45593999997E+02  0.45594000000E+02  0.51100000000E-03 0. -1.
         11   -1    0    0    0    0 -0.00000000000E+00 -0.00000000000E+00 -0.45593999997E+02  0.45594000000E+02  0.51100000000E-03 0.  1.
    9900012    2    1    2    0    0  0.39611871255E+00  0.10454257027E+01  0.37813732932E+00  0.90007825109E+02  0.90000087600E+02 0.  0.
        -12    1    1    2    0    0 -0.39611871255E+00 -0.10454257027E+01 -0.37813732932E+00  0.11801748914E+01  0.00000000000E+00 0.  1.
         11    1    3    3    0    0 -0.14782870013E+01  0.18047047818E+01 -0.10135216764E+02  0.10400236099E+02  0.51100000000E-03 0. -1.
        -11    1    3    3    0    0 -0.47572539324E+01  0.27298217688E+02 -0.22560132911E+02  0.35732110925E+02  0.51100000000E-03 0.  1.
         12    1    3    3    0    0  0.66316596462E+01 -0.28057496767E+02  0.33073487005E+02  0.43875478084E+02  0.00000000000E+00 0. -1.
</event>
<event>
 7    1  0.2593256E-015  0.9000729E+02  0.7816164E-02  0.1186340E+00
        -11   -1    0    0    0    0  0.00000000000E+00  0.00000000000E+00  0.45593999997E+02  0.45594000000E+02  0.51100000000E-03 0.  1.
         11   -1    0    0    0    0 -0.00000000000E+00 -0.00000000000E+00 -0.45593999997E+02  0.45594000000E+02  0.51100000000E-03 0. -1.
    9900012    2    1    2    0    0  0.36630484856E+00  0.59576055356E+00  0.95129493398E+00  0.90007291767E+02  0.89999547218E+02 0.  0.
        -12    1    1    2    0    0 -0.36630484856E+00 -0.59576055356E+00 -0.95129493398E+00  0.11807082327E+01  0.00000000000E+00 0.  1.
         11    1    3    3    0    0  0.30738106504E+02  0.78042936723E+01 -0.26194125475E+02  0.41132352241E+02  0.51100000000E-03 0. -1.
        -11    1    3    3    0    0  0.32964222530E+01  0.16174734410E+00  0.96993261563E+01  0.10245461923E+02  0.51100000000E-03 0.  1.
        -12    1    3    3    0    0 -0.33668223908E+02 -0.73702804629E+01  0.17446094253E+02  0.38629477604E+02  0.00000000000E+00 0.  1.
</event>
<event>
 7    1  0.2593256E-015  0.9000781E+02  0.7816164E-02  0.1186339E+00
        -11   -1    0    0    0    0  0.00000000000E+00  0.00000000000E+00  0.45593999997E+02  0.45594000000E+02  0.51100000000E-03 0. -1.
         11   -1    0    0    0    0 -0.00000000000E+00 -0.00000000000E+00 -0.45593999997E+02  0.45594000000E+02  0.51100000000E-03 0.  1.
    9900012    2    1    2    0    0 -0.59982044909E+00  0.55449768180E+00 -0.85181311977E+00  0.90007814489E+02  0.90000076840E+02 0.  0.
        -12    1    1    2    0    0  0.59982044909E+00 -0.55449768180E+00  0.85181311977E+00  0.11801855114E+01  0.00000000000E+00 0.  1.
         11    1    3    3    0    0  0.35693852667E+02 -0.11938583995E+02 -0.13711246953E+02  0.40057199094E+02  0.51100000000E-03 0. -1.
        -11    1    3    3    0    0 -0.21872215326E+01 -0.22400690656E+01  0.12406313128E+02  0.12795251195E+02  0.51100000000E-03 0.  1.
        -12    1    3    3    0    0 -0.34106451583E+02  0.14733150742E+02  0.45312070511E+00  0.37155364199E+02  0.00000000000E+00 0.  1.
</event>
<event>
 7    1  0.2593256E-015  0.9000775E+02  0.7816164E-02  0.1186339E+00
        -11   -1    0    0    0    0  0.00000000000E+00  0.00000000000E+00  0.45593999997E+02  0.45594000000E+02  0.51100000000E-03 0.  1.
         11   -1    0    0    0    0 -0.00000000000E+00 -0.00000000000E+00 -0.45593999997E+02  0.45594000000E+02  0.51100000000E-03 0. -1.
    9900012    2    1    2    0    0  0.98796475108E+00 -0.59238630684E+00  0.25690892623E+00  0.90007746603E+02  0.90000008058E+02 0.  0.
        -12    1    1    2    0    0 -0.98796475108E+00  0.59238630684E+00 -0.25690892623E+00  0.11802533975E+01  0.00000000000E+00 0.  1.
         11    1    3    3    0    0  0.77691607718E+01  0.94216794207E+01  0.61214127945E+01  0.13660146305E+02  0.51100000000E-03 0. -1.
        -11    1    3    3    0    0 -0.23566199883E+02 -0.42562741882E+01  0.28769574439E+02  0.37432206194E+02  0.51100000000E-03 0.  1.
         12    1    3    3    0    0  0.16785003863E+02 -0.57577915393E+01 -0.34634078307E+02  0.38915394104E+02  0.00000000000E+00 0. -1.
</event>
<event>
 7    1  0.2593256E-015  0.9000775E+02  0.7816164E-02  0.1186339E+00
        -11   -1    0    0    0    0  0.00000000000E+00  0.00000000000E+00  0.45593999997E+02  0.45594000000E+02  0.51100000000E-03 0. -1.
         11   -1    0    0    0    0 -0.00000000000E+00 -0.00000000000E+00 -0.45593999997E+02  0.45594000000E+02  0.51100000000E-03 0.  1.
    9900012    2    1    2    0    0  0.10123876510E+01  0.38300683753E+00 -0.47048678032E+00  0.90007753922E+02  0.90000015474E+02 0.  0.
        -12    1    1    2    0    0 -0.10123876510E+01 -0.38300683753E+00  0.47048678032E+00  0.11802460777E+01  0.00000000000E+00 0.  1.
         11    1    3    3    0    0 -0.71670875864E+01 -0.47239914564E+01  0.41262142775E+01  0.95241211813E+01  0.51100000000E-03 0. -1.
        -11    1    3    3    0    0  0.14876998116E+02 -0.34898461024E+02  0.63625243932E+01  0.38466990676E+02  0.51100000000E-03 0.  1.
         12    1    3    3    0    0 -0.66975228784E+01  0.40005459318E+02 -0.10959225451E+02  0.42016642065E+02  0.00000000000E+00 0. -1.
</event>
<event>
 7    1  0.2593256E-015  0.9000759E+02  0.7816164E-02  0.1186339E+00
        -11   -1    0    0    0    0  0.00000000000E+00  0.00000000000E+00  0.45593999997E+02  0.45594000000E+02  0.51100000000E-03 0. -1.
         11   -1    0    0    0    0 -0.00000000000E+00 -0.00000000000E+00 -0.45593999997E+02  0.45594000000E+02  0.51100000000E-03 0.  1.
    9900012    2    1    2    0    0 -0.52681319603E+00 -0.19352920230E+00  0.10384512179E+01  0.90007590483E+02  0.89999849877E+02 0.  0.
        -12    1    1    2    0    0  0.52681319603E+00  0.19352920230E+00 -0.10384512179E+01  0.11804095169E+01  0.00000000000E+00 0.  1.
         11    1    3    3    0    0  0.28554575124E+02 -0.20873972152E+02 -0.11168582604E+02  0.37092097698E+02  0.51100000000E-03 0. -1.
        -11    1    3    3    0    0  0.59633265000E+01  0.91818383479E+01 -0.52125051346E+01  0.12125907324E+02  0.51100000000E-03 0.  1.
        -12    1    3    3    0    0 -0.35044714820E+02  0.11498604602E+02  0.17419538957E+02  0.40789585461E+02  0.00000000000E+00 0.  1.
</event>
<event>
 7    1  0.2593256E-015  0.9000768E+02  0.7816164E-02  0.1186339E+00
        -11   -1    0    0    0    0  0.00000000000E+00  0.00000000000E+00  0.45593999997E+02  0.45594000000E+02  0.51100000000E-03 0.  1.
         11   -1    0    0    0    0 -0.00000000000E+00 -0.00000000000E+00 -0.45593999997E+02  0.45594000000E+02  0.51100000000E-03 0. -1.
    9900012    2    1    2    0    0  0.68783015572E+00  0.29723220754E+00 -0.91197744248E+00  0.90007677941E+02  0.89999938489E+02 0.  0.
        -12    1    1    2    0    0 -0.68783015572E+00 -0.29723220754E+00  0.91197744248E+00  0.11803220594E+01  0.00000000000E+00 0.  1.
         11    1    3    3    0    0  0.22341852592E+02 -0.14551979735E+01  0.26806147374E+02  0.34926286887E+02  0.51100000000E-03 0. -1.
        -11    1    3    3    0    0 -0.81270330309E+00  0.52963052013E+01  0.10283217685E+02  0.11595512135E+02  0.51100000000E-03 0.  1.
        -12    1    3    3    0    0 -0.20841319133E+02 -0.35438750203E+01 -0.38001342502E+02  0.43485878919E+02  0.00000000000E+00 0.  1.
</event>
<event>
 7    1  0.2593256E-015  0.9000773E+02  0.7816164E-02  0.1186339E+00
        -11   -1    0    0    0    0  0.00000000000E+00  0.00000000000E+00  0.45593999997E+02  0.45594000000E+02  0.51100000000E-03 0. -1.
         11   -1    0    0    0    0 -0.00000000000E+00 -0.00000000000E+00 -0.45593999997E+02  0.45594000000E+02  0.51100000000E-03 0.  1.
    9900012    2    1    2    0    0  0.28902723692E+00 -0.10020459836E+01  0.55262716042E+00  0.90007733219E+02  0.89999994497E+02 0.  0.
        -12    1    1    2    0    0 -0.28902723692E+00  0.10020459836E+01 -0.55262716042E+00  0.11802667814E+01  0.00000000000E+00 0.  1.
         11    1    3    3    0    0 -0.63315631145E+01  0.70429141661E+01 -0.43310650402E+00  0.94804489836E+01  0.51100000000E-03 0. -1.
        -11    1    3    3    0    0  0.90477007224E+01  0.20363009289E+02 -0.30679455878E+02  0.37917569132E+02  0.51100000000E-03 0.  1.
         12    1    3    3    0    0 -0.24271103709E+01 -0.28407969439E+02  0.31665189542E+02  0.42609715103E+02  0.00000000000E+00 0. -1.
</event>
<event>
 7    1  0.4013307E-015  0.9000764E+02  0.7816164E-02  0.1186339E+00
        -11   -1    0    0    0    0  0.00000000000E+00  0.00000000000E+00  0.45593999997E+02  0.45594000000E+02  0.51100000000E-03 0. -1.
         11   -1    0    0    0    0 -0.00000000000E+00 -0.00000000000E+00 -0.45593999997E+02  0.45594000000E+02  0.51100000000E-03 0.  1.
    9900012    2    1    2    0    0  0.10096348397E+01  0.23506242922E+00  0.56448280552E+00  0.90007636627E+02  0.89999896630E+02 0.  0.
        -12    1    1    2    0    0 -0.10096348397E+01 -0.23506242922E+00 -0.56448280552E+00  0.11803633732E+01  0.00000000000E+00 0.  1.
         11    1    3    3    0    0 -0.19829185024E+02  0.21058289568E+02  0.28615998511E+02  0.40688124917E+02  0.51100000000E-03 0. -1.
        -11    1    3    3    0    0 -0.51622228821E+01  0.14082173189E+01 -0.81279090249E+01  0.97311112664E+01  0.51100000000E-03 0.  1.
        -12    1    3    3    0    0  0.26001042746E+02 -0.22231444457E+02 -0.19923606680E+02  0.39588400444E+02  0.00000000000E+00 0.  1.
</event>
<event>
 7    1  0.2593256E-015  0.9000779E+02  0.7816164E-02  0.1186339E+00
        -11   -1    0    0    0    0  0.00000000000E+00  0.00000000000E+00  0.45593999997E+02  0.45594000000E+02  0.51100000000E-03 0.  1.
         11   -1    0    0    0    0 -0.00000000000E+00 -0.00000000000E+00 -0.45593999997E+02  0.45594000000E+02  0.51100000000E-03 0. -1.
    9900012    2    1    2    0    0  0.71129212977E+00  0.82206247014E-01 -0.93819477869E+00  0.90007786543E+02  0.90000048526E+02 0.  0.
        -12    1    1    2    0    0 -0.71129212977E+00 -0.82206247014E-01  0.93819477869E+00  0.11802134568E+01  0.00000000000E+00 0.  1.
         11    1    3    3    0    0 -0.14545477843E+02  0.30992647064E+02 -0.12479179644E+02  0.36439607882E+02  0.51100000000E-03 0. -1.
        -11    1    3    3    0    0 -0.15089770022E+01  0.68243722469E+01  0.10060390496E+02  0.12249919401E+02  0.51100000000E-03 0.  1.
        -12    1    3    3    0    0  0.16765746975E+02 -0.37734813064E+02  0.14805943700E+01  0.41318259260E+02  0.00000000000E+00 0.  1.
</event>
<event>
 7    1  0.2593256E-015  0.9000776E+02  0.7816164E-02  0.1186339E+00
        -11   -1    0    0    0    0  0.00000000000E+00  0.00000000000E+00  0.45593999997E+02  0.45594000000E+02  0.51100000000E-03 0.  1.
         11   -1    0    0    0    0 -0.00000000000E+00 -0.00000000000E+00 -0.45593999997E+02  0.45594000000E+02  0.51100000000E-03 0. -1.
    9900012    2    1    2    0    0  0.60054006969E+00  0.67060941423E+00 -0.76327540766E+00  0.90007764977E+02  0.90000026675E+02 0.  0.
        -12    1    1    2    0    0 -0.60054006969E+00 -0.67060941423E+00  0.76327540766E+00  0.11802350231E+01  0.00000000000E+00 0.  1.
         11    1    3    3    0    0 -0.16387210985E+01 -0.64383514651E+01  0.64107397960E+01  0.92322998987E+01  0.51100000000E-03 0. -1.
        -11    1    3    3    0    0 -0.10088707365E+02 -0.51145723581E+01  0.34138433520E+02  0.35963502473E+02  0.51100000000E-03 0.  1.
         12    1    3    3    0    0  0.12327968534E+02  0.12223533237E+02 -0.41312448723E+02  0.44811962605E+02  0.00000000000E+00 0. -1.
</event>
<event>
 7    1  0.2593256E-015  0.9000780E+02  0.7816164E-02  0.1186339E+00
        -11   -1    0    0    0    0  0.00000000000E+00  0.00000000000E+00  0.45593999997E+02  0.45594000000E+02  0.51100000000E-03 0. -1.
         11   -1    0    0    0    0 -0.00000000000E+00 -0.00000000000E+00 -0.45593999997E+02  0.45594000000E+02  0.51100000000E-03 0.  1.
    9900012    2    1    2    0    0 -0.60797317175E+00 -0.29310217296E+00  0.96816349333E+00  0.90007796284E+02  0.90000058395E+02 0.  0.
        -12    1    1    2    0    0  0.60797317175E+00  0.29310217296E+00 -0.96816349333E+00  0.11802037160E+01  0.00000000000E+00 0.  1.
         11    1    3    3    0    0 -0.40056112793E+02 -0.12677522967E+02  0.12171228137E+02  0.43741862732E+02  0.51100000000E-03 0. -1.
        -11    1    3    3    0    0  0.32185837899E+01  0.72269117608E+01 -0.43723184689E+01  0.90390654531E+01  0.51100000000E-03 0.  1.
        -12    1    3    3    0    0  0.36229555831E+02  0.51575090328E+01 -0.68307461748E+01  0.37226868099E+02  0.00000000000E+00 0.  1.
</event>
<event>
 7    1  0.2593256E-015  0.9000769E+02  0.7816164E-02  0.1186339E+00
        -11   -1    0    0    0    0  0.00000000000E+00  0.00000000000E+00  0.45593999997E+02  0.45594000000E+02  0.51100000000E-03 0.  1.
         11   -1    0    0    0    0 -0.00000000000E+00 -0.00000000000E+00 -0.45593999997E+02  0.45594000000E+02  0.51100000000E-03 0. -1.
    9900012    2    1    2    0    0  0.88815008083E+00 -0.36867421744E+00 -0.68440306736E+00  0.90007686989E+02  0.89999947658E+02 0.  0.
        -12    1    1    2    0    0 -0.88815008083E+00  0.36867421744E+00  0.68440306736E+00  0.11803130107E+01  0.00000000000E+00 0.  1.
         11    1    3    3    0    0 -0.16243191713E+02  0.26932226202E+01 -0.37038414673E+02  0.40533182541E+02  0.51100000000E-03 0. -1.
        -11    1    3    3    0    0 -0.84363340191E+00 -0.49241184522E+01 -0.32379139754E+01  0.59533811420E+01  0.51100000000E-03 0.  1.
        -12    1    3    3    0    0  0.17974975196E+02  0.18622216146E+01  0.39591925581E+02  0.43521123307E+02  0.00000000000E+00 0.  1.
</event>
<event>
 7    1  0.2593256E-015  0.9000777E+02  0.7816164E-02  0.1186339E+00
        -11   -1    0    0    0    0  0.00000000000E+00  0.00000000000E+00  0.45593999997E+02  0.45594000000E+02  0.51100000000E-03 0.  1.
         11   -1    0    0    0    0 -0.00000000000E+00 -0.00000000000E+00 -0.45593999997E+02  0.45594000000E+02  0.51100000000E-03 0. -1.
    9900012    2    1    2    0    0  0.58337953153E+00  0.54899360089E+00 -0.86672590271E+00  0.90007771445E+02  0.90000033228E+02 0.  0.
        -12    1    1    2    0    0 -0.58337953153E+00 -0.54899360089E+00  0.86672590271E+00  0.11802285550E+01  0.00000000000E+00 0.  1.
         11    1    3    3    0    0 -0.23139123919E+02  0.37374291634E+02 -0.65251420359E+00  0.43962285040E+02  0.51100000000E-03 0. -1.
        -11    1    3    3    0    0  0.23666803861E+01 -0.58292901051E+01 -0.50869709662E+01  0.80906781577E+01  0.51100000000E-03 0.  1.
        -12    1    3    3    0    0  0.21355823065E+02 -0.30996007928E+02  0.48727592670E+01  0.37954808247E+02  0.00000000000E+00 0.  1.
</event>
<event>
 7    1  0.2593256E-015  0.9000760E+02  0.7816164E-02  0.1186339E+00
        -11   -1    0    0    0    0  0.00000000000E+00  0.00000000000E+00  0.45593999997E+02  0.45594000000E+02  0.51100000000E-03 0.  1.
         11   -1    0    0    0    0 -0.00000000000E+00 -0.00000000000E+00 -0.45593999997E+02  0.45594000000E+02  0.51100000000E-03 0. -1.
    9900012    2    1    2    0    0  0.53489612702E+00  0.52472929485E+00 -0.91207884933E+00  0.90007600692E+02  0.89999860221E+02 0.  0.
        -12    1    1    2    0    0 -0.53489612702E+00 -0.52472929485E+00  0.91207884933E+00  0.11803993083E+01  0.00000000000E+00 0.  1.
         11    1    3    3    0    0  0.10031390736E+01  0.90751789404E+01  0.49923970745E+00  0.91440910619E+01  0.51100000000E-03 0. -1.
        -11    1    3    3    0    0 -0.77619736419E+00 -0.15012625952E+02  0.38030947370E+02  0.40894185142E+02  0.51100000000E-03 0.  1.
         12    1    3    3    0    0  0.30795441760E+00  0.64621763064E+01 -0.39442265927E+02  0.39969324488E+02  0.00000000000E+00 0. -1.
</event>
<event>
 7    1  0.2593256E-015  0.9000779E+02  0.7816164E-02  0.1186339E+00
        -11   -1    0    0    0    0  0.00000000000E+00  0.00000000000E+00  0.45593999997E+02  0.45594000000E+02  0.51100000000E-03 0.  1.
         11   -1    0    0    0    0 -0.00000000000E+00 -0.00000000000E+00 -0.45593999997E+02  0.45594000000E+02  0.51100000000E-03 0. -1.
    9900012    2    1    2    0    0 -0.85008676672E+00 -0.43585006730E+00  0.69302260107E+00  0.90007791070E+02  0.90000053112E+02 0.  0.
        -12    1    1    2    0    0  0.85008676672E+00  0.43585006730E+00 -0.69302260107E+00  0.11802089297E+01  0.00000000000E+00 0.  1.
         11    1    3    3    0    0 -0.33066765637E+01  0.32566403589E+01 -0.86473195351E+01  0.98140690709E+01  0.51100000000E-03 0. -1.
        -11    1    3    3    0    0  0.41008935548E+02 -0.20320367621E+01  0.49683728592E+01  0.41358755994E+02  0.51100000000E-03 0.  1.
         12    1    3    3    0    0 -0.38552345751E+02 -0.16604536641E+01  0.43719692770E+01  0.38834966006E+02  0.00000000000E+00 0. -1.
</event>
<event>
 7    1  0.2593256E-015  0.9000775E+02  0.7816164E-02  0.1186339E+00
        -11   -1    0    0    0    0  0.00000000000E+00  0.00000000000E+00  0.45593999997E+02  0.45594000000E+02  0.51100000000E-03 0. -1.
         11   -1    0    0    0    0 -0.00000000000E+00 -0.00000000000E+00 -0.45593999997E+02  0.45594000000E+02  0.51100000000E-03 0.  1.
    9900012    2    1    2    0    0 -0.57512364669E+00 -0.94687187343E+00  0.40701386842E+00  0.90007748399E+02  0.90000009877E+02 0.  0.
        -12    1    1    2    0    0  0.57512364669E+00  0.94687187343E+00 -0.40701386842E+00  0.11802516015E+01  0.00000000000E+00 0.  1.
         11    1    3    3    0    0 -0.79493869560E+01  0.27260741817E+01  0.15308263414E+02  0.17463309034E+02  0.51100000000E-03 0. -1.
        -11    1    3    3    0    0 -0.68452430360E+01  0.31720969939E+02 -0.10703051878E+02  0.34170639529E+02  0.51100000000E-03 0.  1.
         12    1    3    3    0    0  0.14219506345E+02 -0.35393915994E+02 -0.41981976675E+01  0.38373799835E+02  0.00000000000E+00 0. -1.
</event>
<event>
 7    1  0.2593256E-015  0.9000776E+02  0.7816164E-02  0.1186339E+00
        -11   -1    0    0    0    0  0.00000000000E+00  0.00000000000E+00  0.45593999997E+02  0.45594000000E+02  0.51100000000E-03 0. -1.
         11   -1    0    0    0    0 -0.00000000000E+00 -0.00000000000E+00 -0.45593999997E+02  0.45594000000E+02  0.51100000000E-03 0.  1.
    9900012    2    1    2    0    0 -0.94881678938E+00 -0.26157249798E+00 -0.65138421642E+00  0.90007756437E+02  0.90000018022E+02 0.  0.
        -12    1    1    2    0    0  0.94881678938E+00  0.26157249798E+00  0.65138421642E+00  0.11802435634E+01  0.00000000000E+00 0.  1.
         11    1    3    3    0    0  0.60350830773E+01 -0.12982697411E+02  0.37204707054E+02  0.39864305927E+02  0.51100000000E-03 0. -1.
        -11    1    3    3    0    0 -0.87712311183E+01 -0.55404353513E+01 -0.30775653645E+01  0.10821382908E+02  0.51100000000E-03 0.  1.
        -12    1    3    3    0    0  0.17873312516E+01  0.18261560264E+02 -0.34778525906E+02  0.39322067602E+02  0.00000000000E+00 0.  1.
</event>
<event>
 7    1  0.2593256E-015  0.9000799E+02  0.7816164E-02  0.1186339E+00
        -11   -1    0    0    0    0  0.00000000000E+00  0.00000000000E+00  0.45593999997E+02  0.45594000000E+02  0.51100000000E-03 0.  1.
         11   -1    0    0    0    0 -0.00000000000E+00 -0.00000000000E+00 -0.45593999997E+02  0.45594000000E+02  0.51100000000E-03 0. -1.
    9900012    2    1    2    0    0 -0.11153110996E+01  0.19891498832E+00 -0.33006611201E+00  0.90007987432E+02  0.90000252066E+02 0.  0.
        -12    1    1    2    0    0  0.11153110996E+01 -0.19891498832E+00  0.33006611201E+00  0.11800125676E+01  0.00000000000E+00 0.  1.
         11    1    3    3    0    0 -0.10667349123E+02 -0.85375056704E+01  0.67664954058E+01  0.15246861996E+02  0.51100000000E-03 0. -1.
        -11    1    3    3    0    0 -0.12825272800E+02 -0.28211618573E+02 -0.59112240289E+01  0.31548781509E+02  0.51100000000E-03 0.  1.
         12    1    3    3    0    0  0.22377310823E+02  0.36948039232E+02 -0.11853374889E+01  0.43212343928E+02  0.00000000000E+00 0. -1.
</event>
<event>
 7    1  0.2593256E-015  0.9000775E+02  0.7816164E-02  0.1186339E+00
        -11   -1    0    0    0    0  0.00000000000E+00  0.00000000000E+00  0.45593999997E+02  0.45594000000E+02  0.51100000000E-03 0.  1.
         11   -1    0    0    0    0 -0.00000000000E+00 -0.00000000000E+00 -0.45593999997E+02  0.45594000000E+02  0.51100000000E-03 0. -1.
    9900012    2    1    2    0    0 -0.14985166902E+00  0.76726849026E+00 -0.88421051802E+00  0.90007752272E+02  0.90000013802E+02 0.  0.
        -12    1    1    2    0    0  0.14985166902E+00 -0.76726849026E+00  0.88421051802E+00  0.11802477278E+01  0.00000000000E+00 0.  1.
         11    1    3    3    0    0  0.74716098722E+01  0.29356764934E+02 -0.17486471867E+02  0.34977439873E+02  0.51100000000E-03 0. -1.
        -11    1    3    3    0    0  0.48278562236E+01 -0.66445913237E+00 -0.12130987844E+02  0.13073276865E+02  0.51100000000E-03 0.  1.
        -12    1    3    3    0    0 -0.12449317765E+02 -0.27925037311E+02  0.28733249193E+02  0.41957035534E+02  0.00000000000E+00 0.  1.
</event>
<event>
 7    1  0.2593256E-015  0.9000818E+02  0.7816164E-02  0.1186338E+00
        -11   -1    0    0    0    0  0.00000000000E+00  0.00000000000E+00  0.45593999997E+02  0.45594000000E+02  0.51100000000E-03 0.  1.
         11   -1    0    0    0    0 -0.00000000000E+00 -0.00000000000E+00 -0.45593999997E+02  0.45594000000E+02  0.51100000000E-03 0. -1.
    9900012    2    1    2    0    0 -0.53725256409E+00  0.90127375932E+00 -0.53948058495E+00  0.90008180519E+02  0.90000447700E+02 0.  0.
        -12    1    1    2    0    0  0.53725256409E+00 -0.90127375932E+00  0.53948058495E+00  0.11798194813E+01  0.00000000000E+00 0.  1.
         11    1    3    3    0    0 -0.30975175630E+02  0.10289784211E+02  0.18309769730E+02  0.37424441643E+02  0.51100000000E-03 0. -1.
        -11    1    3    3    0    0 -0.12126131219E+01 -0.18689388775E+01  0.93006609229E+01  0.95637679277E+01  0.51100000000E-03 0.  1.
        -12    1    3    3    0    0  0.31650536188E+02 -0.75195715742E+01 -0.28149911238E+02  0.43019970948E+02  0.00000000000E+00 0.  1.
</event>
<event>
 7    1  0.2593256E-015  0.9000769E+02  0.7816164E-02  0.1186339E+00
        -11   -1    0    0    0    0  0.00000000000E+00  0.00000000000E+00  0.45593999997E+02  0.45594000000E+02  0.51100000000E-03 0.  1.
         11   -1    0    0    0    0 -0.00000000000E+00 -0.00000000000E+00 -0.45593999997E+02  0.45594000000E+02  0.51100000000E-03 0. -1.
    9900012    2    1    2    0    0  0.15037307642E+00  0.25095365513E+00 -0.11434745580E+01  0.90007693318E+02  0.89999954070E+02 0.  0.
        -12    1    1    2    0    0 -0.15037307642E+00 -0.25095365513E+00  0.11434745580E+01  0.11803066822E+01  0.00000000000E+00 0.  1.
         11    1    3    3    0    0  0.11998489606E+02  0.16313676567E+02  0.18581884931E+02  0.27484290855E+02  0.51100000000E-03 0. -1.
        -11    1    3    3    0    0 -0.23724443289E+01  0.17167071442E+02  0.71506781085E+01  0.18747507345E+02  0.51100000000E-03 0.  1.
         12    1    3    3    0    0 -0.94756722006E+01 -0.33229794354E+02 -0.26876037597E+02  0.43775895118E+02  0.00000000000E+00 0. -1.
</event>
<event>
 7    1  0.3061804E-015  0.9000776E+02  0.7816164E-02  0.1186339E+00
        -11   -1    0    0    0    0  0.00000000000E+00  0.00000000000E+00  0.45593999997E+02  0.45594000000E+02  0.51100000000E-03 0. -1.
         11   -1    0    0    0    0 -0.00000000000E+00 -0.00000000000E+00 -0.45593999997E+02  0.45594000000E+02  0.51100000000E-03 0.  1.
    9900012    2    1    2    0    0 -0.49327112092E+00 -0.24403516798E+00  0.10440721481E+01  0.90007764340E+02  0.90000026030E+02 0.  0.
        -12    1    1    2    0    0  0.49327112092E+00  0.24403516798E+00 -0.10440721481E+01  0.11802356597E+01  0.00000000000E+00 0.  1.
         11    1    3    3    0    0 -0.35020173185E+02  0.32492216614E+01  0.16908314912E+02  0.39023852767E+02  0.51100000000E-03 0. -1.
        -11    1    3    3    0    0 -0.60624270665E+01 -0.34349308967E+01 -0.60428062895E+01  0.92231925229E+01  0.51100000000E-03 0.  1.
        -12    1    3    3    0    0  0.40589329131E+02 -0.58325932659E-01 -0.98214364740E+01  0.41760719051E+02  0.00000000000E+00 0.  1.
</event>
<event>
 7    1  0.2593256E-015  0.9000772E+02  0.7816164E-02  0.1186339E+00
        -11   -1    0    0    0    0  0.00000000000E+00  0.00000000000E+00  0.45593999997E+02  0.45594000000E+02  0.51100000000E-03 0. -1.
         11   -1    0    0    0    0 -0.00000000000E+00 -0.00000000000E+00 -0.45593999997E+02  0.45594000000E+02  0.51100000000E-03 0.  1.
    9900012    2    1    2    0    0  0.41634919212E+00 -0.88994219766E+00  0.65400375316E+00  0.90007718392E+02  0.89999979475E+02 0.  0.
        -12    1    1    2    0    0 -0.41634919212E+00  0.88994219766E+00 -0.65400375316E+00  0.11802816080E+01  0.00000000000E+00 0.  1.
         11    1    3    3    0    0 -0.66889820589E+01 -0.94156080202E+01  0.33151871444E+01  0.12016098428E+02  0.51100000000E-03 0. -1.
        -11    1    3    3    0    0 -0.16270289843E+01 -0.34215455924E+02  0.44638856742E+00  0.34257027169E+02  0.51100000000E-03 0.  1.
        -12    1    3    3    0    0  0.87323602354E+01  0.42741121747E+02 -0.31075719586E+01  0.43734592795E+02  0.00000000000E+00 0.  1.
</event>
<event>
 7    1  0.2593256E-015  0.9000772E+02  0.7816164E-02  0.1186339E+00
        -11   -1    0    0    0    0  0.00000000000E+00  0.00000000000E+00  0.45593999997E+02  0.45594000000E+02  0.51100000000E-03 0. -1.
         11   -1    0    0    0    0 -0.00000000000E+00 -0.00000000000E+00 -0.45593999997E+02  0.45594000000E+02  0.51100000000E-03 0.  1.
    9900012    2    1    2    0    0  0.15253479140E+00 -0.62561865053E+00  0.98913769909E+00  0.90007720819E+02  0.89999981933E+02 0.  0.
        -12    1    1    2    0    0 -0.15253479140E+00  0.62561865053E+00 -0.98913769909E+00  0.11802791815E+01  0.00000000000E+00 0.  1.
         11    1    3    3    0    0 -0.14241475820E+01  0.67587811166E+00  0.75313347887E+01  0.76945442697E+01  0.51100000000E-03 0. -1.
        -11    1    3    3    0    0 -0.31743586254E+02 -0.19698344832E+02 -0.19454805308E+02  0.42120891577E+02  0.51100000000E-03 0.  1.
         12    1    3    3    0    0  0.33320268627E+02  0.18396848070E+02  0.12912608219E+02  0.40192284972E+02  0.00000000000E+00 0. -1.
</event>
<event>
 7    1  0.2593256E-015  0.9000779E+02  0.7816164E-02  0.1186339E+00
        -11   -1    0    0    0    0  0.00000000000E+00  0.00000000000E+00  0.45593999997E+02  0.45594000000E+02  0.51100000000E-03 0. -1.
         11   -1    0    0    0    0 -0.00000000000E+00 -0.00000000000E+00 -0.45593999997E+02  0.45594000000E+02  0.51100000000E-03 0.  1.
    9900012    2    1    2    0    0  0.38695784389E+00 -0.53434652425E+00  0.97858444860E+00  0.90007792347E+02  0.90000054406E+02 0.  0.
        -12    1    1    2    0    0 -0.38695784389E+00  0.53434652425E+00 -0.97858444860E+00  0.11802076529E+01  0.00000000000E+00 0.  1.
         11    1    3    3    0    0 -0.10282600297E+02  0.43279200817E+01 -0.17689391556E+02  0.20913568203E+02  0.51100000000E-03 0. -1.
        -11    1    3    3    0    0  0.23635432423E+01 -0.23556088037E+02 -0.16187508886E+02  0.28679453699E+02  0.51100000000E-03 0.  1.
         12    1    3    3    0    0  0.83060148986E+01  0.18693821431E+02  0.34855484891E+02  0.40414770445E+02  0.00000000000E+00 0. -1.
</event>
<event>
 7    1  0.2593256E-015  0.9000770E+02  0.7816164E-02  0.1186339E+00
        -11   -1    0    0    0    0  0.00000000000E+00  0.00000000000E+00  0.45593999997E+02  0.45594000000E+02  0.51100000000E-03 0.  1.
         11   -1    0    0    0    0 -0.00000000000E+00 -0.00000000000E+00 -0.45593999997E+02  0.45594000000E+02  0.51100000000E-03 0. -1.
    9900012    2    1    2    0    0 -0.24213275776E+00  0.47265051530E+00 -0.10540788298E+01  0.90007699631E+02  0.89999960466E+02 0.  0.
        -12    1    1    2    0    0  0.24213275776E+00 -0.47265051530E+00  0.10540788298E+01  0.11803003691E+01  0.00000000000E+00 0.  1.
         11    1    3    3    0    0 -0.27065217561E+00 -0.88887675842E+01  0.22711481394E+01  0.91783198843E+01  0.51100000000E-03 0. -1.
        -11    1    3    3    0    0 -0.34997325350E+02 -0.10649354931E+02  0.10711854780E+02  0.38117782926E+02  0.51100000000E-03 0.  1.
         12    1    3    3    0    0  0.35025844768E+02  0.20010773031E+02 -0.14037081749E+02  0.42711596821E+02  0.00000000000E+00 0. -1.
</event>
<event>
 7    1  0.2593256E-015  0.9000762E+02  0.7816164E-02  0.1186339E+00
        -11   -1    0    0    0    0  0.00000000000E+00  0.00000000000E+00  0.45593999997E+02  0.45594000000E+02  0.51100000000E-03 0.  1.
         11   -1    0    0    0    0 -0.00000000000E+00 -0.00000000000E+00 -0.45593999997E+02  0.45594000000E+02  0.51100000000E-03 0. -1.
    9900012    2    1    2    0    0 -0.25140740476E+00  0.82249389964E+00 -0.80845092926E+00  0.90007620907E+02  0.89999880703E+02 0.  0.
        -12    1    1    2    0    0  0.25140740476E+00 -0.82249389964E+00  0.80845092926E+00  0.11803790930E+01  0.00000000000E+00 0.  1.
         11    1    3    3    0    0  0.10025556248E+02 -0.80095713754E+01 -0.28451990965E+01  0.13143826302E+02  0.51100000000E-03 0. -1.
        -11    1    3    3    0    0 -0.10982433427E+02 -0.32975645572E+02 -0.22609019963E+01  0.34829853904E+02  0.51100000000E-03 0.  1.
         12    1    3    3    0    0  0.70546977437E+00  0.41807710847E+02  0.42976501635E+01  0.42033940701E+02  0.00000000000E+00 0. -1.
</event>
<event>
 7    1  0.2593256E-015  0.9000768E+02  0.7816164E-02  0.1186339E+00
        -11   -1    0    0    0    0  0.00000000000E+00  0.00000000000E+00  0.45593999997E+02  0.45594000000E+02  0.51100000000E-03 0.  1.
         11   -1    0    0    0    0 -0.00000000000E+00 -0.00000000000E+00 -0.45593999997E+02  0.45594000000E+02  0.51100000000E-03 0. -1.
    9900012    2    1    2    0    0  0.92997912153E-01 -0.50137786404E+00  0.10644821553E+01  0.90007681978E+02  0.89999942580E+02 0.  0.
        -12    1    1    2    0    0 -0.92997912153E-01  0.50137786404E+00 -0.10644821553E+01  0.11803180221E+01  0.00000000000E+00 0.  1.
         11    1    3    3    0    0 -0.38226738302E+02  0.44429577961E+01  0.12442756477E+01  0.38504176622E+02  0.51100000000E-03 0. -1.
        -11    1    3    3    0    0 -0.29398599162E+01 -0.78926801071E+00  0.85940430168E+01  0.91171978127E+01  0.51100000000E-03 0.  1.
        -12    1    3    3    0    0  0.41259596131E+02 -0.41550676494E+01 -0.87738365091E+01  0.42386307543E+02  0.00000000000E+00 0.  1.
</event>
<event>
 7    1  0.2593256E-015  0.9000778E+02  0.7816164E-02  0.1186339E+00
        -11   -1    0    0    0    0  0.00000000000E+00  0.00000000000E+00  0.45593999997E+02  0.45594000000E+02  0.51100000000E-03 0. -1.
         11   -1    0    0    0    0 -0.00000000000E+00 -0.00000000000E+00 -0.45593999997E+02  0.45594000000E+02  0.51100000000E-03 0.  1.
    9900012    2    1    2    0    0 -0.32543121113E+00  0.90761504119E+00 -0.68062977855E+00  0.90007776533E+02  0.90000038383E+02 0.  0.
        -12    1    1    2    0    0  0.32543121113E+00 -0.90761504119E+00  0.68062977855E+00  0.11802234668E+01  0.00000000000E+00 0.  1.
         11    1    3    3    0    0  0.10871840316E+01  0.84136005281E+01 -0.42179017424E+01  0.94742460562E+01  0.51100000000E-03 0. -1.
        -11    1    3    3    0    0  0.75848659743E+01 -0.39835892191E+02 -0.13704651324E+02  0.42804742338E+02  0.51100000000E-03 0.  1.
         12    1    3    3    0    0 -0.89974812170E+01  0.32329906704E+02  0.17241923287E+02  0.37728788138E+02  0.00000000000E+00 0. -1.
</event>
<event>
 7    1  0.2977353E-015  0.9000801E+02  0.7816164E-02  0.1186338E+00
        -11   -1    0    0    0    0  0.00000000000E+00  0.00000000000E+00  0.45593999997E+02  0.45594000000E+02  0.51100000000E-03 0.  1.
         11   -1    0    0    0    0 -0.00000000000E+00 -0.00000000000E+00 -0.45593999997E+02  0.45594000000E+02  0.51100000000E-03 0. -1.
    9900012    2    1    2    0    0 -0.28435096962E-01  0.11589253317E+01 -0.22012178136E+00  0.90008012679E+02  0.90000277646E+02 0.  0.
        -12    1    1    2    0    0  0.28435096962E-01 -0.11589253317E+01  0.22012178136E+00  0.11799873210E+01  0.00000000000E+00 0.  1.
         11    1    3    3    0    0  0.24802990857E+02 -0.10907133874E+02 -0.26542853977E+02  0.37929896154E+02  0.51100000000E-03 0. -1.
        -11    1    3    3    0    0  0.21464027927E+01  0.68631987036E+01 -0.62061387331E+01  0.94987735856E+01  0.51100000000E-03 0.  1.
        -12    1    3    3    0    0 -0.26977828746E+02  0.52028605019E+01  0.32528870928E+02  0.42579342939E+02  0.00000000000E+00 0.  1.
</event>
<event>
 7    1  0.2593256E-015  0.9000786E+02  0.7816164E-02  0.1186339E+00
        -11   -1    0    0    0    0  0.00000000000E+00  0.00000000000E+00  0.45593999997E+02  0.45594000000E+02  0.51100000000E-03 0.  1.
         11   -1    0    0    0    0 -0.00000000000E+00 -0.00000000000E+00 -0.45593999997E+02  0.45594000000E+02  0.51100000000E-03 0. -1.
    9900012    2    1    2    0    0  0.24328357151E+00 -0.82309988388E+00 -0.80997332272E+00  0.90007857170E+02  0.90000120085E+02 0.  0.
        -12    1    1    2    0    0 -0.24328357151E+00  0.82309988388E+00  0.80997332272E+00  0.11801428297E+01  0.00000000000E+00 0.  1.
         11    1    3    3    0    0 -0.21385357923E+01  0.26865016030E+02 -0.25460550789E+02  0.37074817173E+02  0.51100000000E-03 0. -1.
        -11    1    3    3    0    0 -0.34828943061E+01  0.67116413309E+00 -0.83234032862E+01  0.90476547550E+01  0.51100000000E-03 0.  1.
        -12    1    3    3    0    0  0.58647136698E+01 -0.28359280047E+02  0.32973980753E+02  0.43885385243E+02  0.00000000000E+00 0.  1.
</event>
<event>
 7    1  0.2593256E-015  0.9000774E+02  0.7816164E-02  0.1186339E+00
        -11   -1    0    0    0    0  0.00000000000E+00  0.00000000000E+00  0.45593999997E+02  0.45594000000E+02  0.51100000000E-03 0.  1.
         11   -1    0    0    0    0 -0.00000000000E+00 -0.00000000000E+00 -0.45593999997E+02  0.45594000000E+02  0.51100000000E-03 0. -1.
    9900012    2    1    2    0    0  0.87806493878E+00  0.77863392833E+00 -0.12544018593E+00  0.90007744065E+02  0.90000005487E+02 0.  0.
        -12    1    1    2    0    0 -0.87806493878E+00 -0.77863392833E+00  0.12544018593E+00  0.11802559347E+01  0.00000000000E+00 0.  1.
         11    1    3    3    0    0 -0.16336495036E+02 -0.27535446044E+02 -0.14653159121E+02  0.35210750225E+02  0.51100000000E-03 0. -1.
        -11    1    3    3    0    0 -0.53372802700E+01 -0.66733199470E+01 -0.37541894184E+01  0.93334719288E+01  0.51100000000E-03 0.  1.
        -12    1    3    3    0    0  0.22551840245E+02  0.34987399920E+02  0.18281908353E+02  0.45463521912E+02  0.00000000000E+00 0.  1.
</event>
<event>
 7    1  0.2593256E-015  0.9000770E+02  0.7816164E-02  0.1186339E+00
        -11   -1    0    0    0    0  0.00000000000E+00  0.00000000000E+00  0.45593999997E+02  0.45594000000E+02  0.51100000000E-03 0. -1.
         11   -1    0    0    0    0 -0.00000000000E+00 -0.00000000000E+00 -0.45593999997E+02  0.45594000000E+02  0.51100000000E-03 0.  1.
    9900012    2    1    2    0    0 -0.24954390751E+00 -0.87244132606E+00  0.75477892847E+00  0.90007696115E+02  0.89999956904E+02 0.  0.
        -12    1    1    2    0    0  0.24954390751E+00  0.87244132606E+00 -0.75477892847E+00  0.11803038846E+01  0.00000000000E+00 0.  1.
         11    1    3    3    0    0  0.63010678480E+00  0.47973399579E+01  0.73659127658E+01  0.88129550303E+01  0.51100000000E-03 0. -1.
        -11    1    3    3    0    0 -0.22043894136E+02  0.31294124279E+02 -0.16706342181E+01  0.38315094963E+02  0.51100000000E-03 0.  1.
         12    1    3    3    0    0  0.21164243444E+02 -0.36963905563E+02 -0.49404996192E+01  0.42879646122E+02  0.00000000000E+00 0. -1.
</event>
<event>
 7    1  0.2593256E-015  0.9000767E+02  0.7816164E-02  0.1186339E+00
        -11   -1    0    0    0    0  0.00000000000E+00  0.00000000000E+00  0.45593999997E+02  0.45594000000E+02  0.51100000000E-03 0.  1.
         11   -1    0    0    0    0 -0.00000000000E+00 -0.00000000000E+00 -0.45593999997E+02  0.45594000000E+02  0.51100000000E-03 0. -1.
    9900012    2    1    2    0    0 -0.61146815858E+00  0.57573075669E+00 -0.82935189276E+00  0.90007667939E+02  0.89999928355E+02 0.  0.
        -12    1    1    2    0    0  0.61146815858E+00 -0.57573075669E+00  0.82935189276E+00  0.11803320614E+01  0.00000000000E+00 0.  1.
         11    1    3    3    0    0 -0.24976665237E+02 -0.22167980261E+02  0.10818721068E+02  0.35104100630E+02  0.51100000000E-03 0. -1.
        -11    1    3    3    0    0 -0.67579647899E+01 -0.18276805715E+01  0.80154847118E+01  0.10642297675E+02  0.51100000000E-03 0.  1.
        -12    1    3    3    0    0  0.31123161868E+02  0.24571391589E+02 -0.19663557673E+02  0.44261269634E+02  0.00000000000E+00 0.  1.
</event>
<event>
 7    1  0.2593256E-015  0.9000776E+02  0.7816164E-02  0.1186339E+00
        -11   -1    0    0    0    0  0.00000000000E+00  0.00000000000E+00  0.45593999997E+02  0.45594000000E+02  0.51100000000E-03 0.  1.
         11   -1    0    0    0    0 -0.00000000000E+00 -0.00000000000E+00 -0.45593999997E+02  0.45594000000E+02  0.51100000000E-03 0. -1.
    9900012    2    1    2    0    0 -0.10657376255E+00 -0.11566447483E+01  0.20926755505E+00  0.90007755131E+02  0.90000016699E+02 0.  0.
        -12    1    1    2    0    0  0.10657376255E+00  0.11566447483E+01 -0.20926755505E+00  0.11802448687E+01  0.00000000000E+00 0.  1.
         11    1    3    3    0    0  0.12467651150E+02 -0.23780899592E+01 -0.23384792680E+01  0.12906049845E+02  0.51100000000E-03 0. -1.
        -11    1    3    3    0    0 -0.68890969102E-01  0.35197068753E+02 -0.13240175760E+02  0.37605061484E+02  0.51100000000E-03 0.  1.
         12    1    3    3    0    0 -0.12505333944E+02 -0.33975623543E+02  0.15787922583E+02  0.39496643802E+02  0.00000000000E+00 0. -1.
</event>
<event>
 7    1  0.2593256E-015  0.9000770E+02  0.7816164E-02  0.1186339E+00
        -11   -1    0    0    0    0  0.00000000000E+00  0.00000000000E+00  0.45593999997E+02  0.45594000000E+02  0.51100000000E-03 0.  1.
         11   -1    0    0    0    0 -0.00000000000E+00 -0.00000000000E+00 -0.45593999997E+02  0.45594000000E+02  0.51100000000E-03 0. -1.
    9900012    2    1    2    0    0  0.76924260637E+00  0.88988304541E+00 -0.97403609754E-01  0.90007697714E+02  0.89999958524E+02 0.  0.
        -12    1    1    2    0    0 -0.76924260637E+00 -0.88988304541E+00  0.97403609754E-01  0.11803022855E+01  0.00000000000E+00 0.  1.
         11    1    3    3    0    0  0.86778826760E+01  0.17674814256E+01 -0.10622372316E+01  0.89195283802E+01  0.51100000000E-03 0. -1.
        -11    1    3    3    0    0  0.34276455320E+02 -0.61059331958E+01  0.12584746934E+02  0.37020719404E+02  0.51100000000E-03 0.  1.
         12    1    3    3    0    0 -0.42185095390E+02  0.52283348156E+01 -0.11619913312E+02  0.44067449931E+02  0.00000000000E+00 0. -1.
</event>
<event>
 7    1  0.2593256E-015  0.9000773E+02  0.7816164E-02  0.1186339E+00
        -11   -1    0    0    0    0  0.00000000000E+00  0.00000000000E+00  0.45593999997E+02  0.45594000000E+02  0.51100000000E-03 0. -1.
         11   -1    0    0    0    0 -0.00000000000E+00 -0.00000000000E+00 -0.45593999997E+02  0.45594000000E+02  0.51100000000E-03 0.  1.
    9900012    2    1    2    0    0 -0.72308590269E+00 -0.22972528880E+00  0.90410459422E+00  0.90007732213E+02  0.89999993479E+02 0.  0.
        -12    1    1    2    0    0  0.72308590269E+00  0.22972528880E+00 -0.90410459422E+00  0.11802677867E+01  0.00000000000E+00 0.  1.
         11    1    3    3    0    0 -0.22691501469E+02  0.28057042626E+02  0.13511989462E+02  0.38531490230E+02  0.51100000000E-03 0. -1.
        -11    1    3    3    0    0 -0.66059929557E+01 -0.25272482183E+00  0.44439677455E+01  0.79656677279E+01  0.51100000000E-03 0.  1.
        -12    1    3    3    0    0  0.28574408522E+02 -0.28034043093E+02 -0.17051852614E+02  0.43510574256E+02  0.00000000000E+00 0.  1.
</event>
<event>
 7    1  0.2593256E-015  0.9000775E+02  0.7816164E-02  0.1186339E+00
        -11   -1    0    0    0    0  0.00000000000E+00  0.00000000000E+00  0.45593999997E+02  0.45594000000E+02  0.51100000000E-03 0.  1.
         11   -1    0    0    0    0 -0.00000000000E+00 -0.00000000000E+00 -0.45593999997E+02  0.45594000000E+02  0.51100000000E-03 0. -1.
    9900012    2    1    2    0    0  0.13865411537E+00 -0.88824355070E-01 -0.11687104948E+01  0.90007746235E+02  0.90000007685E+02 0.  0.
        -12    1    1    2    0    0 -0.13865411537E+00  0.88824355070E-01  0.11687104948E+01  0.11802537652E+01  0.00000000000E+00 0.  1.
         11    1    3    3    0    0  0.17509050737E+01 -0.36406181793E+01  0.27243615740E+02  0.27541502649E+02  0.51100000000E-03 0.  1.
        -11    1    3    3    0    0 -0.14572696091E+02 -0.88393955717E+01 -0.38349144095E+02  0.41966120126E+02  0.51100000000E-03 0. -1.
         12    1    3    3    0    0  0.12960445132E+02  0.12391189396E+02  0.99368178594E+01  0.20500123459E+02  0.00000000000E+00 0. -1.
</event>
<event>
 7    1  0.2593256E-015  0.9000771E+02  0.7816164E-02  0.1186339E+00
        -11   -1    0    0    0    0  0.00000000000E+00  0.00000000000E+00  0.45593999997E+02  0.45594000000E+02  0.51100000000E-03 0. -1.
         11   -1    0    0    0    0 -0.00000000000E+00 -0.00000000000E+00 -0.45593999997E+02  0.45594000000E+02  0.51100000000E-03 0.  1.
    9900012    2    1    2    0    0  0.85516346679E+00 -0.44076843747E+00  0.68374270852E+00  0.90007709586E+02  0.89999970552E+02 0.  0.
        -12    1    1    2    0    0 -0.85516346679E+00  0.44076843747E+00 -0.68374270852E+00  0.11802904142E+01  0.00000000000E+00 0.  1.
         11    1    3    3    0    0 -0.92472881138E+01 -0.10274184073E+01  0.16566767843E+01  0.94505293117E+01  0.51100000000E-03 0. -1.
        -11    1    3    3    0    0  0.47813608090E+00 -0.37007832358E+02 -0.14076960949E+02  0.39597589570E+02  0.51100000000E-03 0.  1.
         12    1    3    3    0    0  0.96243154997E+01  0.37594482328E+02  0.13104026873E+02  0.40959590704E+02  0.00000000000E+00 0. -1.
</event>
<event>
 7    1  0.2593256E-015  0.9000779E+02  0.7816164E-02  0.1186339E+00
        -11   -1    0    0    0    0  0.00000000000E+00  0.00000000000E+00  0.45593999997E+02  0.45594000000E+02  0.51100000000E-03 0. -1.
         11   -1    0    0    0    0 -0.00000000000E+00 -0.00000000000E+00 -0.45593999997E+02  0.45594000000E+02  0.51100000000E-03 0.  1.
    9900012    2    1    2    0    0  0.87235454641E+00  0.41530355377E+00  0.67780820076E+00  0.90007786692E+02  0.90000048676E+02 0.  0.
        -12    1    1    2    0    0 -0.87235454641E+00 -0.41530355377E+00 -0.67780820076E+00  0.11802133084E+01  0.00000000000E+00 0.  1.
         11    1    3    3    0    0 -0.19208129742E+02 -0.90224264618E+01  0.97559038793E+01  0.23356671171E+02  0.51100000000E-03 0. -1.
        -11    1    3    3    0    0  0.18558128498E+01 -0.22181035751E+02 -0.18518651332E+02  0.28954841318E+02  0.51100000000E-03 0.  1.
         12    1    3    3    0    0  0.18224671439E+02  0.31618765767E+02  0.94405556536E+01  0.37696274202E+02  0.00000000000E+00 0. -1.
</event>
<event>
 7    1  0.2593256E-015  0.9000769E+02  0.7816164E-02  0.1186339E+00
        -11   -1    0    0    0    0  0.00000000000E+00  0.00000000000E+00  0.45593999997E+02  0.45594000000E+02  0.51100000000E-03 0.  1.
         11   -1    0    0    0    0 -0.00000000000E+00 -0.00000000000E+00 -0.45593999997E+02  0.45594000000E+02  0.51100000000E-03 0. -1.
    9900012    2    1    2    0    0  0.48183877196E+00 -0.19981708979E+00 -0.10587870713E+01  0.90007692610E+02  0.89999953353E+02 0.  0.
        -12    1    1    2    0    0 -0.48183877196E+00  0.19981708979E+00  0.10587870713E+01  0.11803073896E+01  0.00000000000E+00 0.  1.
         11    1    3    3    0    0  0.27884370827E+02 -0.20568893072E+02 -0.63275617696E+01  0.35222940491E+02  0.51100000000E-03 0. -1.
        -11    1    3    3    0    0  0.46881753126E+01 -0.94517112770E+01  0.27597622706E+01  0.10905508786E+02  0.51100000000E-03 0.  1.
        -12    1    3    3    0    0 -0.32090707368E+02  0.29820787259E+02  0.25090124277E+01  0.43879243333E+02  0.00000000000E+00 0.  1.
</event>
<event>
 7    1  0.2593256E-015  0.9000775E+02  0.7816164E-02  0.1186339E+00
        -11   -1    0    0    0    0  0.00000000000E+00  0.00000000000E+00  0.45593999997E+02  0.45594000000E+02  0.51100000000E-03 0.  1.
         11   -1    0    0    0    0 -0.00000000000E+00 -0.00000000000E+00 -0.45593999997E+02  0.45594000000E+02  0.51100000000E-03 0. -1.
    9900012    2    1    2    0    0 -0.74188889475E+00  0.51241000285E+00 -0.76159911570E+00  0.90007747334E+02  0.90000008799E+02 0.  0.
        -12    1    1    2    0    0  0.74188889475E+00 -0.51241000285E+00  0.76159911570E+00  0.11802526663E+01  0.00000000000E+00 0.  1.
         11    1    3    3    0    0  0.37993781591E+01 -0.44775526089E+00  0.77575626063E+01  0.86495975063E+01  0.51100000000E-03 0. -1.
        -11    1    3    3    0    0 -0.42680793767E+02 -0.25232198643E+00 -0.61932946519E+01  0.43128537210E+02  0.51100000000E-03 0.  1.
         12    1    3    3    0    0  0.38139526713E+02  0.12124872502E+01 -0.23258670701E+01  0.38229612617E+02  0.00000000000E+00 0. -1.
</event>
<event>
 7    1  0.2593256E-015  0.9000780E+02  0.7816164E-02  0.1186339E+00
        -11   -1    0    0    0    0  0.00000000000E+00  0.00000000000E+00  0.45593999997E+02  0.45594000000E+02  0.51100000000E-03 0.  1.
         11   -1    0    0    0    0 -0.00000000000E+00 -0.00000000000E+00 -0.45593999997E+02  0.45594000000E+02  0.51100000000E-03 0. -1.
    9900012    2    1    2    0    0 -0.96512874754E+00 -0.61231416267E+00  0.29406009334E+00  0.90007799393E+02  0.90000061545E+02 0.  0.
        -12    1    1    2    0    0  0.96512874754E+00  0.61231416267E+00 -0.29406009334E+00  0.11802006065E+01  0.00000000000E+00 0.  1.
         11    1    3    3    0    0 -0.35263427085E+02  0.15391685583E+01 -0.48437134256E+01  0.35627796587E+02  0.51100000000E-03 0. -1.
        -11    1    3    3    0    0 -0.71735844191E+01 -0.80600279342E+01  0.62597244462E+01  0.12474314174E+02  0.51100000000E-03 0.  1.
        -12    1    3    3    0    0  0.41471882756E+02  0.59085452132E+01 -0.11219509273E+01  0.41905688632E+02  0.00000000000E+00 0.  1.
</event>
<event>
 7    1  0.2593256E-015  0.9000766E+02  0.7816164E-02  0.1186339E+00
        -11   -1    0    0    0    0  0.00000000000E+00  0.00000000000E+00  0.45593999997E+02  0.45594000000E+02  0.51100000000E-03 0. -1.
         11   -1    0    0    0    0 -0.00000000000E+00 -0.00000000000E+00 -0.45593999997E+02  0.45594000000E+02  0.51100000000E-03 0.  1.
    9900012    2    1    2    0    0  0.65944358583E-01  0.63403464180E+00  0.99340704829E+00  0.90007658461E+02  0.89999918753E+02 0.  0.
        -12    1    1    2    0    0 -0.65944358583E-01 -0.63403464180E+00 -0.99340704829E+00  0.11803415391E+01  0.00000000000E+00 0.  1.
         11    1    3    3    0    0 -0.13751894769E+02 -0.39941188033E+02  0.68240997357E+01  0.42789969019E+02  0.51100000000E-03 0. -1.
        -11    1    3    3    0    0 -0.35446449002E+01  0.59719405741E+01  0.29077616511E+01  0.75288551434E+01  0.51100000000E-03 0.  1.
        -12    1    3    3    0    0  0.17362484028E+02  0.34603282100E+02 -0.87384543385E+01  0.39688834298E+02  0.00000000000E+00 0.  1.
</event>
<event>
 7    1  0.2593256E-015  0.9000774E+02  0.7816164E-02  0.1186339E+00
        -11   -1    0    0    0    0  0.00000000000E+00  0.00000000000E+00  0.45593999997E+02  0.45594000000E+02  0.51100000000E-03 0.  1.
         11   -1    0    0    0    0 -0.00000000000E+00 -0.00000000000E+00 -0.45593999997E+02  0.45594000000E+02  0.51100000000E-03 0. -1.
    9900012    2    1    2    0    0 -0.77323890883E+00  0.44844873774E-01 -0.89056312243E+00  0.90007740644E+02  0.90000002020E+02 0.  0.
        -12    1    1    2    0    0  0.77323890883E+00 -0.44844873774E-01  0.89056312243E+00  0.11802593562E+01  0.00000000000E+00 0.  1.
         11    1    3    3    0    0  0.31306043145E+02  0.21478048342E+02 -0.73009597595E+01  0.38661077477E+02  0.51100000000E-03 0. -1.
        -11    1    3    3    0    0 -0.48195600202E+01  0.83212187405E+01 -0.26782279047E+01  0.99821713613E+01  0.51100000000E-03 0.  1.
        -12    1    3    3    0    0 -0.27259722034E+02 -0.29754422208E+02  0.90886245418E+01  0.41364491806E+02  0.00000000000E+00 0.  1.
</event>
<event>
 7    1  0.2593256E-015  0.9000776E+02  0.7816164E-02  0.1186339E+00
        -11   -1    0    0    0    0  0.00000000000E+00  0.00000000000E+00  0.45593999997E+02  0.45594000000E+02  0.51100000000E-03 0.  1.
         11   -1    0    0    0    0 -0.00000000000E+00 -0.00000000000E+00 -0.45593999997E+02  0.45594000000E+02  0.51100000000E-03 0. -1.
    9900012    2    1    2    0    0  0.82458612633E-01 -0.55688113076E+00 -0.10373327752E+01  0.90007756253E+02  0.90000017835E+02 0.  0.
        -12    1    1    2    0    0 -0.82458612633E-01  0.55688113076E+00  0.10373327752E+01  0.11802437473E+01  0.00000000000E+00 0.  1.
         11    1    3    3    0    0  0.21090296303E+02 -0.25865874795E+02 -0.14681063933E+02  0.36460632407E+02  0.51100000000E-03 0. -1.
        -11    1    3    3    0    0  0.10575810736E+02  0.10113038179E+01 -0.18659830065E+01  0.10786677013E+02  0.51100000000E-03 0.  1.
        -12    1    3    3    0    0 -0.31583648427E+02  0.24297689847E+02  0.15509714164E+02  0.42760446832E+02  0.00000000000E+00 0.  1.
</event>
<event>
 7    1  0.2593256E-015  0.9000752E+02  0.7816164E-02  0.1186339E+00
        -11   -1    0    0    0    0  0.00000000000E+00  0.00000000000E+00  0.45593999997E+02  0.45594000000E+02  0.51100000000E-03 0. -1.
         11   -1    0    0    0    0 -0.00000000000E+00 -0.00000000000E+00 -0.45593999997E+02  0.45594000000E+02  0.51100000000E-03 0.  1.
    9900012    2    1    2    0    0 -0.85504882618E+00 -0.81353970017E+00  0.24170444792E-01  0.90007517239E+02  0.89999775666E+02 0.  0.
        -12    1    1    2    0    0  0.85504882618E+00  0.81353970017E+00 -0.24170444792E-01  0.11804827611E+01  0.00000000000E+00 0.  1.
         11    1    3    3    0    0  0.38320033659E+01  0.73783779300E+01 -0.16720999413E+02  0.18673953312E+02  0.51100000000E-03 0. -1.
        -11    1    3    3    0    0 -0.26493236890E+02  0.10280930836E+02 -0.11955606538E+02  0.30830596292E+02  0.51100000000E-03 0.  1.
         12    1    3    3    0    0  0.21806184698E+02 -0.18472848467E+02  0.28700776395E+02  0.40502967635E+02  0.00000000000E+00 0. -1.
</event>
<event>
 7    1  0.2593256E-015  0.9000784E+02  0.7816164E-02  0.1186339E+00
        -11   -1    0    0    0    0  0.00000000000E+00  0.00000000000E+00  0.45593999997E+02  0.45594000000E+02  0.51100000000E-03 0.  1.
         11   -1    0    0    0    0 -0.00000000000E+00 -0.00000000000E+00 -0.45593999997E+02  0.45594000000E+02  0.51100000000E-03 0. -1.
    9900012    2    1    2    0    0  0.48266834138E+00 -0.89681151374E+00 -0.59626427703E+00  0.90007842931E+02  0.90000105658E+02 0.  0.
        -12    1    1    2    0    0 -0.48266834138E+00  0.89681151374E+00  0.59626427703E+00  0.11801570688E+01  0.00000000000E+00 0.  1.
         11    1    3    3    0    0  0.35052740451E+01 -0.58837376673E+01 -0.73907476478E+01  0.10076133491E+02  0.51100000000E-03 0. -1.
        -11    1    3    3    0    0  0.30504426475E+02 -0.17040968396E+02  0.16525499984E+02  0.38652383994E+02  0.51100000000E-03 0.  1.
         12    1    3    3    0    0 -0.33527032178E+02  0.22027894550E+02 -0.97310166134E+01  0.41279325447E+02  0.00000000000E+00 0. -1.
</event>
<event>
 7    1  0.2593256E-015  0.9000773E+02  0.7816164E-02  0.1186339E+00
        -11   -1    0    0    0    0  0.00000000000E+00  0.00000000000E+00  0.45593999997E+02  0.45594000000E+02  0.51100000000E-03 0. -1.
         11   -1    0    0    0    0 -0.00000000000E+00 -0.00000000000E+00 -0.45593999997E+02  0.45594000000E+02  0.51100000000E-03 0.  1.
    9900012    2    1    2    0    0 -0.11725813418E+01 -0.12816189802E+00  0.40779819392E-01  0.90007730764E+02  0.89999992010E+02 0.  0.
        -12    1    1    2    0    0  0.11725813418E+01  0.12816189802E+00 -0.40779819392E-01  0.11802692357E+01  0.00000000000E+00 0.  1.
         11    1    3    3    0    0 -0.17873170733E+02 -0.96963941546E+01  0.24563684294E+02  0.31888005237E+02  0.51100000000E-03 0. -1.
        -11    1    3    3    0    0 -0.61753883485E+01 -0.14464029714E+02 -0.18698589126E+02  0.24433190795E+02  0.51100000000E-03 0.  1.
        -12    1    3    3    0    0  0.22875977740E+02  0.24032261971E+02 -0.58243153484E+01  0.33686534732E+02  0.00000000000E+00 0.  1.
</event>
<event>
 7    1  0.2593256E-015  0.9000766E+02  0.7816164E-02  0.1186339E+00
        -11   -1    0    0    0    0  0.00000000000E+00  0.00000000000E+00  0.45593999997E+02  0.45594000000E+02  0.51100000000E-03 0. -1.
         11   -1    0    0    0    0 -0.00000000000E+00 -0.00000000000E+00 -0.45593999997E+02  0.45594000000E+02  0.51100000000E-03 0.  1.
    9900012    2    1    2    0    0 -0.87429004175E-01 -0.32256207081E+00  0.11320368890E+01  0.90007662066E+02  0.89999922405E+02 0.  0.
        -12    1    1    2    0    0  0.87429004175E-01  0.32256207081E+00 -0.11320368890E+01  0.11803379339E+01  0.00000000000E+00 0.  1.
         11    1    3    3    0    0  0.24711329208E+02  0.19112201036E+02  0.14661354692E+02  0.34509148661E+02  0.51100000000E-03 0. -1.
        -11    1    3    3    0    0 -0.27351806262E+01  0.12533419549E+02  0.31760426078E+01  0.13215712828E+02  0.51100000000E-03 0.  1.
        -12    1    3    3    0    0 -0.22063577585E+02 -0.31968182655E+02 -0.16705360411E+02  0.42282800577E+02  0.00000000000E+00 0.  1.
</event>
<event>
 7    1  0.2593256E-015  0.9000780E+02  0.7816164E-02  0.1186339E+00
        -11   -1    0    0    0    0  0.00000000000E+00  0.00000000000E+00  0.45593999997E+02  0.45594000000E+02  0.51100000000E-03 0. -1.
         11   -1    0    0    0    0 -0.00000000000E+00 -0.00000000000E+00 -0.45593999997E+02  0.45594000000E+02  0.51100000000E-03 0.  1.
    9900012    2    1    2    0    0  0.11066343449E+01 -0.40437811405E+00  0.68600300069E-01  0.90007802036E+02  0.90000064223E+02 0.  0.
        -12    1    1    2    0    0 -0.11066343449E+01  0.40437811405E+00 -0.68600300069E-01  0.11801979637E+01  0.00000000000E+00 0.  1.
         11    1    3    3    0    0  0.11908889656E+02 -0.14582207648E+02  0.31138062502E+02  0.36387379259E+02  0.51100000000E-03 0. -1.
        -11    1    3    3    0    0 -0.37993015943E+01 -0.64796162474E+01  0.66606140994E+01  0.10039118475E+02  0.51100000000E-03 0.  1.
        -12    1    3    3    0    0 -0.70029537166E+01  0.20657445781E+02 -0.37730076301E+02  0.43581304302E+02  0.00000000000E+00 0.  1.
</event>
<event>
 7    1  0.2593256E-015  0.9000775E+02  0.7816164E-02  0.1186339E+00
        -11   -1    0    0    0    0  0.00000000000E+00  0.00000000000E+00  0.45593999997E+02  0.45594000000E+02  0.51100000000E-03 0.  1.
         11   -1    0    0    0    0 -0.00000000000E+00 -0.00000000000E+00 -0.45593999997E+02  0.45594000000E+02  0.51100000000E-03 0. -1.
    9900012    2    1    2    0    0  0.77071899783E+00  0.89377453032E+00 -0.12678270097E-01  0.90007745187E+02  0.90000006624E+02 0.  0.
        -12    1    1    2    0    0 -0.77071899783E+00 -0.89377453032E+00  0.12678270097E-01  0.11802548128E+01  0.00000000000E+00 0.  1.
         11    1    3    3    0    0  0.25161333751E+02  0.27066212846E+02 -0.68933533519E+01  0.37592431614E+02  0.51100000000E-03 0. -1.
        -11    1    3    3    0    0  0.67696883640E+01  0.13433140937E+01 -0.57344583525E+01  0.89731369185E+01  0.51100000000E-03 0.  1.
        -12    1    3    3    0    0 -0.31160303117E+02 -0.27515752409E+02  0.12615133434E+02  0.43442176655E+02  0.00000000000E+00 0.  1.
</event>
<event>
 7    1  0.2593256E-015  0.9000777E+02  0.7816164E-02  0.1186339E+00
        -11   -1    0    0    0    0  0.00000000000E+00  0.00000000000E+00  0.45593999997E+02  0.45594000000E+02  0.51100000000E-03 0.  1.
         11   -1    0    0    0    0 -0.00000000000E+00 -0.00000000000E+00 -0.45593999997E+02  0.45594000000E+02  0.51100000000E-03 0. -1.
    9900012    2    1    2    0    0  0.17003544450E+00  0.79293995376E+00 -0.85747759446E+00  0.90007773900E+02  0.90000035715E+02 0.  0.
        -12    1    1    2    0    0 -0.17003544450E+00 -0.79293995376E+00  0.85747759446E+00  0.11802261002E+01  0.00000000000E+00 0.  1.
         11    1    3    3    0    0  0.57757061336E+01  0.71985926755E+01 -0.71801229532E+00  0.92571086072E+01  0.51100000000E-03 0. -1.
        -11    1    3    3    0    0 -0.83917423103E+01  0.36369502340E+02  0.46691994137E+01  0.37616000092E+02  0.51100000000E-03 0.  1.
         12    1    3    3    0    0  0.27860716212E+01 -0.42775155062E+02 -0.48086647128E+01  0.43134665201E+02  0.00000000000E+00 0. -1.
</event>
<event>
 7    1  0.2593256E-015  0.9000777E+02  0.7816164E-02  0.1186339E+00
        -11   -1    0    0    0    0  0.00000000000E+00  0.00000000000E+00  0.45593999997E+02  0.45594000000E+02  0.51100000000E-03 0.  1.
         11   -1    0    0    0    0 -0.00000000000E+00 -0.00000000000E+00 -0.45593999997E+02  0.45594000000E+02  0.51100000000E-03 0. -1.
    9900012    2    1    2    0    0 -0.11959955447E+00  0.97946302939E+00 -0.64752738269E+00  0.90007769687E+02  0.90000031447E+02 0.  0.
        -12    1    1    2    0    0  0.11959955447E+00 -0.97946302939E+00  0.64752738269E+00  0.11802303126E+01  0.00000000000E+00 0.  1.
         11    1    3    3    0    0  0.21115481376E+02 -0.21118049349E+01 -0.34940144662E+02  0.40879542354E+02  0.51100000000E-03 0. -1.
        -11    1    3    3    0    0 -0.60297620771E+01 -0.58227830120E+01 -0.21442619311E+01  0.86522073601E+01  0.51100000000E-03 0.  1.
        -12    1    3    3    0    0 -0.15205318853E+02  0.89140509763E+01  0.36436879211E+02  0.40476019973E+02  0.00000000000E+00 0.  1.
</event>
<event>
 7    1  0.2593256E-015  0.9000797E+02  0.7816164E-02  0.1186339E+00
        -11   -1    0    0    0    0  0.00000000000E+00  0.00000000000E+00  0.45593999997E+02  0.45594000000E+02  0.51100000000E-03 0. -1.
         11   -1    0    0    0    0 -0.00000000000E+00 -0.00000000000E+00 -0.45593999997E+02  0.45594000000E+02  0.51100000000E-03 0.  1.
    9900012    2    1    2    0    0  0.60982885589E+00  0.48517624957E+00  0.88610450731E+00  0.90007971007E+02  0.90000235424E+02 0.  0.
        -12    1    1    2    0    0 -0.60982885589E+00 -0.48517624957E+00 -0.88610450731E+00  0.11800289931E+01  0.00000000000E+00 0.  1.
         11    1    3    3    0    0  0.10405782959E+02 -0.21625613893E+02 -0.32937805009E+02  0.40753484444E+02  0.51100000000E-03 0. -1.
        -11    1    3    3    0    0 -0.93529067687E+01 -0.35677802267E+01  0.77853908798E+01  0.12681412862E+02  0.51100000000E-03 0.  1.
        -12    1    3    3    0    0 -0.44304733448E+00  0.25678570369E+02  0.26038518637E+02  0.36573073701E+02  0.00000000000E+00 0.  1.
</event>
<event>
 7    1  0.2593256E-015  0.9000756E+02  0.7816164E-02  0.1186339E+00
        -11   -1    0    0    0    0  0.00000000000E+00  0.00000000000E+00  0.45593999997E+02  0.45594000000E+02  0.51100000000E-03 0.  1.
         11   -1    0    0    0    0 -0.00000000000E+00 -0.00000000000E+00 -0.45593999997E+02  0.45594000000E+02  0.51100000000E-03 0. -1.
    9900012    2    1    2    0    0  0.44415344393E+00 -0.10005603565E+01  0.44164285182E+00  0.90007558677E+02  0.89999817651E+02 0.  0.
        -12    1    1    2    0    0 -0.44415344393E+00  0.10005603565E+01 -0.44164285182E+00  0.11804413231E+01  0.00000000000E+00 0.  1.
         11    1    3    3    0    0 -0.63661115987E+01  0.24797471046E+01  0.67109451681E+01  0.95767065268E+01  0.51100000000E-03 0. -1.
        -11    1    3    3    0    0  0.23574792896E+02  0.19796887715E+02  0.23771071781E+02  0.38894105944E+02  0.51100000000E-03 0.  1.
         12    1    3    3    0    0 -0.16764527854E+02 -0.23277195176E+02 -0.30040374098E+02  0.41536746206E+02  0.00000000000E+00 0. -1.
</event>
<event>
 7    1  0.2593256E-015  0.9000789E+02  0.7816164E-02  0.1186339E+00
        -11   -1    0    0    0    0  0.00000000000E+00  0.00000000000E+00  0.45593999997E+02  0.45594000000E+02  0.51100000000E-03 0. -1.
         11   -1    0    0    0    0 -0.00000000000E+00 -0.00000000000E+00 -0.45593999997E+02  0.45594000000E+02  0.51100000000E-03 0.  1.
    9900012    2    1    2    0    0  0.84917620447E+00 -0.14355979547E+00  0.80681442558E+00  0.90007890192E+02  0.90000153543E+02 0.  0.
        -12    1    1    2    0    0 -0.84917620447E+00  0.14355979547E+00 -0.80681442558E+00  0.11801098078E+01  0.00000000000E+00 0.  1.
         11    1    3    3    0    0 -0.42773941630E+01 -0.80379771180E+01  0.70367652427E-01  0.91054999227E+01  0.51100000000E-03 0. -1.
        -11    1    3    3    0    0  0.50623998788E+01 -0.27446218381E+02 -0.24772199395E+02  0.37317350644E+02  0.51100000000E-03 0.  1.
         12    1    3    3    0    0  0.64170488695E-01  0.35340635704E+02  0.25508646168E+02  0.43585039625E+02  0.00000000000E+00 0. -1.
</event>
<event>
 7    1  0.2593256E-015  0.9000772E+02  0.7816164E-02  0.1186339E+00
        -11   -1    0    0    0    0  0.00000000000E+00  0.00000000000E+00  0.45593999997E+02  0.45594000000E+02  0.51100000000E-03 0. -1.
         11   -1    0    0    0    0 -0.00000000000E+00 -0.00000000000E+00 -0.45593999997E+02  0.45594000000E+02  0.51100000000E-03 0.  1.
    9900012    2    1    2    0    0 -0.48803566806E+00 -0.63856973424E+00  0.86435134437E+00  0.90007723183E+02  0.89999984329E+02 0.  0.
        -12    1    1    2    0    0  0.48803566806E+00  0.63856973424E+00 -0.86435134437E+00  0.11802768172E+01  0.00000000000E+00 0.  1.
         11    1    3    3    0    0 -0.10698316535E+02  0.96369601672E+01 -0.25370206164E+00  0.14401018816E+02  0.51100000000E-03 0. -1.
        -11    1    3    3    0    0 -0.21679136386E+02  0.15769261682E+02  0.16699248467E+02  0.31583531596E+02  0.51100000000E-03 0.  1.
         12    1    3    3    0    0  0.31889417253E+02 -0.26044791583E+02 -0.15581195061E+02  0.44023172771E+02  0.00000000000E+00 0. -1.
</event>
<event>
 7    1  0.2593256E-015  0.9000782E+02  0.7816164E-02  0.1186339E+00
        -11   -1    0    0    0    0  0.00000000000E+00  0.00000000000E+00  0.45593999997E+02  0.45594000000E+02  0.51100000000E-03 0.  1.
         11   -1    0    0    0    0 -0.00000000000E+00 -0.00000000000E+00 -0.45593999997E+02  0.45594000000E+02  0.51100000000E-03 0. -1.
    9900012    2    1    2    0    0 -0.95386856803E+00 -0.36181620794E+00  0.59333457084E+00  0.90007821146E+02  0.90000083586E+02 0.  0.
        -12    1    1    2    0    0  0.95386856803E+00  0.36181620794E+00 -0.59333457084E+00  0.11801788535E+01  0.00000000000E+00 0.  1.
         11    1    3    3    0    0  0.43288728800E+01  0.18709665449E+01  0.57442878167E+01  0.74321261430E+01  0.51100000000E-03 0. -1.
        -11    1    3    3    0    0 -0.39385757613E+02 -0.11904557975E+02  0.12464470985E+02  0.42992085790E+02  0.51100000000E-03 0.  1.
         12    1    3    3    0    0  0.34103016165E+02  0.96717752219E+01 -0.17615424231E+02  0.39583609214E+02  0.00000000000E+00 0. -1.
</event>
<event>
 7    1  0.2593256E-015  0.9000774E+02  0.7816164E-02  0.1186339E+00
        -11   -1    0    0    0    0  0.00000000000E+00  0.00000000000E+00  0.45593999997E+02  0.45594000000E+02  0.51100000000E-03 0.  1.
         11   -1    0    0    0    0 -0.00000000000E+00 -0.00000000000E+00 -0.45593999997E+02  0.45594000000E+02  0.51100000000E-03 0. -1.
    9900012    2    1    2    0    0 -0.47371537299E-01  0.35906749027E+00 -0.11233194331E+01  0.90007737286E+02  0.89999998618E+02 0.  0.
        -12    1    1    2    0    0  0.47371537299E-01 -0.35906749027E+00  0.11233194331E+01  0.11802627139E+01  0.00000000000E+00 0.  1.
         11    1    3    3    0    0 -0.33973763435E+01  0.14355071640E+01 -0.85782265670E+01  0.93374952815E+01  0.51100000000E-03 0. -1.
        -11    1    3    3    0    0 -0.69884411631E+01  0.38589446444E+02  0.14708543426E+01  0.39244707917E+02  0.51100000000E-03 0.  1.
         12    1    3    3    0    0  0.10338445969E+02 -0.39665886118E+02  0.59840527913E+01  0.41425534087E+02  0.00000000000E+00 0. -1.
</event>
<event>
 7    1  0.2593256E-015  0.9000779E+02  0.7816164E-02  0.1186339E+00
        -11   -1    0    0    0    0  0.00000000000E+00  0.00000000000E+00  0.45593999997E+02  0.45594000000E+02  0.51100000000E-03 0.  1.
         11   -1    0    0    0    0 -0.00000000000E+00 -0.00000000000E+00 -0.45593999997E+02  0.45594000000E+02  0.51100000000E-03 0. -1.
    9900012    2    1    2    0    0 -0.85791618498E+00  0.19842692220E+00 -0.78580656673E+00  0.90007794347E+02  0.90000056432E+02 0.  0.
        -12    1    1    2    0    0  0.85791618498E+00 -0.19842692220E+00  0.78580656673E+00  0.11802056534E+01  0.00000000000E+00 0.  1.
         11    1    3    3    0    0  0.11001655515E+02  0.26086117087E+01 -0.67584974928E+01  0.13172644675E+02  0.51100000000E-03 0. -1.
        -11    1    3    3    0    0  0.29917261936E+02 -0.82402033522E+01  0.13752190886E+02  0.33942101695E+02  0.51100000000E-03 0.  1.
         12    1    3    3    0    0 -0.41776833636E+02  0.58300185657E+01 -0.77794999601E+01  0.42893047977E+02  0.00000000000E+00 0. -1.
</event>
<event>
 7    1  0.2593256E-015  0.9000772E+02  0.7816164E-02  0.1186339E+00
        -11   -1    0    0    0    0  0.00000000000E+00  0.00000000000E+00  0.45593999997E+02  0.45594000000E+02  0.51100000000E-03 0. -1.
         11   -1    0    0    0    0 -0.00000000000E+00 -0.00000000000E+00 -0.45593999997E+02  0.45594000000E+02  0.51100000000E-03 0.  1.
    9900012    2    1    2    0    0  0.88306656570E+00  0.27924288275E+00  0.73162402996E+00  0.90007721699E+02  0.89999982825E+02 0.  0.
        -12    1    1    2    0    0 -0.88306656570E+00 -0.27924288275E+00 -0.73162402996E+00  0.11802783012E+01  0.00000000000E+00 0.  1.
         11    1    3    3    0    0  0.32289389314E+02 -0.20293152922E+02 -0.21361328472E+02  0.43711818449E+02  0.51100000000E-03 0. -1.
        -11    1    3    3    0    0 -0.82210756089E+01  0.42409305281E+01 -0.15426478090E+01  0.93782374909E+01  0.51100000000E-03 0.  1.
        -12    1    3    3    0    0 -0.23185247140E+02  0.16331465277E+02  0.23635600310E+02  0.36917665759E+02  0.00000000000E+00 0.  1.
</event>
<event>
 7    1  0.2593256E-015  0.9000774E+02  0.7816164E-02  0.1186339E+00
        -11   -1    0    0    0    0  0.00000000000E+00  0.00000000000E+00  0.45593999997E+02  0.45594000000E+02  0.51100000000E-03 0. -1.
         11   -1    0    0    0    0 -0.00000000000E+00 -0.00000000000E+00 -0.45593999997E+02  0.45594000000E+02  0.51100000000E-03 0.  1.
    9900012    2    1    2    0    0  0.72748431049E+00 -0.74067187117E+00  0.56140981714E+00  0.90007741882E+02  0.90000003275E+02 0.  0.
        -12    1    1    2    0    0 -0.72748431049E+00  0.74067187117E+00 -0.56140981714E+00  0.11802581182E+01  0.00000000000E+00 0.  1.
         11    1    3    3    0    0 -0.34273391931E+01 -0.62212185015E+01  0.62834714254E+01  0.94832603572E+01  0.51100000000E-03 0. -1.
        -11    1    3    3    0    0 -0.11974011881E+02 -0.26306839472E+02 -0.26544336687E+02  0.39243197805E+02  0.51100000000E-03 0.  1.
         12    1    3    3    0    0  0.16128835384E+02  0.31787386103E+02  0.20822275079E+02  0.41281283720E+02  0.00000000000E+00 0. -1.
</event>
<event>
 7    1  0.2593256E-015  0.9000766E+02  0.7816164E-02  0.1186339E+00
        -11   -1    0    0    0    0  0.00000000000E+00  0.00000000000E+00  0.45593999997E+02  0.45594000000E+02  0.51100000000E-03 0.  1.
         11   -1    0    0    0    0 -0.00000000000E+00 -0.00000000000E+00 -0.45593999997E+02  0.45594000000E+02  0.51100000000E-03 0. -1.
    9900012    2    1    2    0    0 -0.92009306759E+00  0.39099462592E-01 -0.73831586892E+00  0.90007656684E+02  0.89999916952E+02 0.  0.
        -12    1    1    2    0    0  0.92009306759E+00 -0.39099462592E-01  0.73831586892E+00  0.11803433159E+01  0.00000000000E+00 0.  1.
         11    1    3    3    0    0  0.48190224292E+01  0.70844980326E+01  0.70831717600E+01  0.11116852612E+02  0.51100000000E-03 0. -1.
        -11    1    3    3    0    0  0.32517993588E+02 -0.18590594887E+02 -0.10316535633E+02  0.38851782880E+02  0.51100000000E-03 0.  1.
         12    1    3    3    0    0 -0.38257109084E+02  0.11545196317E+02  0.24950480040E+01  0.40039021192E+02  0.00000000000E+00 0. -1.
</event>
<event>
 7    1  0.2593256E-015  0.9000768E+02  0.7816164E-02  0.1186339E+00
        -11   -1    0    0    0    0  0.00000000000E+00  0.00000000000E+00  0.45593999997E+02  0.45594000000E+02  0.51100000000E-03 0.  1.
         11   -1    0    0    0    0 -0.00000000000E+00 -0.00000000000E+00 -0.45593999997E+02  0.45594000000E+02  0.51100000000E-03 0. -1.
    9900012    2    1    2    0    0  0.23513808410E+00 -0.10898426379E+01 -0.38743178896E+00  0.90007682125E+02  0.89999942729E+02 0.  0.
        -12    1    1    2    0    0 -0.23513808410E+00  0.10898426379E+01  0.38743178896E+00  0.11803178746E+01  0.00000000000E+00 0.  1.
         11    1    3    3    0    0 -0.60962068122E+00  0.54750935626E+01  0.59758167098E+01  0.81276486455E+01  0.51100000000E-03 0. -1.
        -11    1    3    3    0    0 -0.36949950937E+02  0.86814989534E+01  0.77730420963E+01  0.38743870251E+02  0.51100000000E-03 0.  1.
         12    1    3    3    0    0  0.37794709702E+02 -0.15246435154E+02 -0.14136290595E+02  0.43136163229E+02  0.00000000000E+00 0. -1.
</event>
<event>
 7    1  0.2593256E-015  0.9000757E+02  0.7816164E-02  0.1186339E+00
        -11   -1    0    0    0    0  0.00000000000E+00  0.00000000000E+00  0.45593999997E+02  0.45594000000E+02  0.51100000000E-03 0.  1.
         11   -1    0    0    0    0 -0.00000000000E+00 -0.00000000000E+00 -0.45593999997E+02  0.45594000000E+02  0.51100000000E-03 0. -1.
    9900012    2    1    2    0    0 -0.87139892386E+00  0.79427394685E+00  0.56596782982E-01  0.90007571949E+02  0.89999831099E+02 0.  0.
        -12    1    1    2    0    0  0.87139892386E+00 -0.79427394685E+00 -0.56596782982E-01  0.11804280507E+01  0.00000000000E+00 0.  1.
         11    1    3    3    0    0  0.30776830662E+02 -0.10123395600E+02  0.12455567568E+02  0.34710770775E+02  0.51100000000E-03 0. -1.
        -11    1    3    3    0    0  0.74382362564E+01 -0.22632184844E+01  0.63003110369E+01  0.10007169227E+02  0.51100000000E-03 0.  1.
        -12    1    3    3    0    0 -0.39086465842E+02  0.13180888031E+02 -0.18699281822E+02  0.45289631948E+02  0.00000000000E+00 0.  1.
</event>
<event>
 7    1  0.2593256E-015  0.9000773E+02  0.7816164E-02  0.1186339E+00
        -11   -1    0    0    0    0  0.00000000000E+00  0.00000000000E+00  0.45593999997E+02  0.45594000000E+02  0.51100000000E-03 0. -1.
         11   -1    0    0    0    0 -0.00000000000E+00 -0.00000000000E+00 -0.45593999997E+02  0.45594000000E+02  0.51100000000E-03 0.  1.
    9900012    2    1    2    0    0 -0.41957305347E+00  0.73885457184E+00  0.81920081470E+00  0.90007729861E+02  0.89999991095E+02 0.  0.
        -12    1    1    2    0    0  0.41957305347E+00 -0.73885457184E+00 -0.81920081470E+00  0.11802701387E+01  0.00000000000E+00 0.  1.
         11    1    3    3    0    0 -0.90583546732E+01 -0.58243792067E+01 -0.18968897638E+01  0.10935052518E+02  0.51100000000E-03 0. -1.
        -11    1    3    3    0    0  0.53263107536E+01 -0.68050823988E+01 -0.36499680691E+02  0.37508737962E+02  0.51100000000E-03 0.  1.
         12    1    3    3    0    0  0.33124708662E+01  0.13368316177E+02  0.39215771269E+02  0.41563939382E+02  0.00000000000E+00 0. -1.
</event>
<event>
 7    1  0.2593256E-015  0.9000777E+02  0.7816164E-02  0.1186339E+00
        -11   -1    0    0    0    0  0.00000000000E+00  0.00000000000E+00  0.45593999997E+02  0.45594000000E+02  0.51100000000E-03 0.  1.
         11   -1    0    0    0    0 -0.00000000000E+00 -0.00000000000E+00 -0.45593999997E+02  0.45594000000E+02  0.51100000000E-03 0. -1.
    9900012    2    1    2    0    0 -0.67880477290E+00 -0.25505483227E+00 -0.93118696366E+00  0.90007772035E+02  0.90000033826E+02 0.  0.
        -12    1    1    2    0    0  0.67880477290E+00  0.25505483227E+00  0.93118696366E+00  0.11802279646E+01  0.00000000000E+00 0.  1.
         11    1    3    3    0    0 -0.26930067682E+01 -0.82364760980E+01 -0.51827176061E+01  0.10097147420E+02  0.51100000000E-03 0. -1.
        -11    1    3    3    0    0 -0.13200662133E+02 -0.29464879073E+02  0.18308749506E+02  0.37116665910E+02  0.51100000000E-03 0.  1.
         12    1    3    3    0    0  0.15214864128E+02  0.37446300339E+02 -0.14057218863E+02  0.42793958706E+02  0.00000000000E+00 0. -1.
</event>
<event>
 7    1  0.2593256E-015  0.9000759E+02  0.7816164E-02  0.1186339E+00
        -11   -1    0    0    0    0  0.00000000000E+00  0.00000000000E+00  0.45593999997E+02  0.45594000000E+02  0.51100000000E-03 0.  1.
         11   -1    0    0    0    0 -0.00000000000E+00 -0.00000000000E+00 -0.45593999997E+02  0.45594000000E+02  0.51100000000E-03 0. -1.
    9900012    2    1    2    0    0  0.79898580309E+00 -0.39397569025E+00 -0.77445572035E+00  0.90007586165E+02  0.89999845503E+02 0.  0.
        -12    1    1    2    0    0 -0.79898580309E+00  0.39397569025E+00  0.77445572035E+00  0.11804138346E+01  0.00000000000E+00 0.  1.
         11    1    3    3    0    0 -0.84019332485E+01 -0.36880020223E+01 -0.38889875645E+02  0.39957680978E+02  0.51100000000E-03 0. -1.
        -11    1    3    3    0    0 -0.22119381659E+01  0.10375686976E+02  0.10913624551E+01  0.10664831125E+02  0.51100000000E-03 0.  1.
        -12    1    3    3    0    0  0.11412857217E+02 -0.70816606435E+01  0.37024057469E+02  0.39385074062E+02  0.00000000000E+00 0.  1.
</event>
<event>
 7    1  0.2593256E-015  0.9000754E+02  0.7816164E-02  0.1186339E+00
        -11   -1    0    0    0    0  0.00000000000E+00  0.00000000000E+00  0.45593999997E+02  0.45594000000E+02  0.51100000000E-03 0.  1.
         11   -1    0    0    0    0 -0.00000000000E+00 -0.00000000000E+00 -0.45593999997E+02  0.45594000000E+02  0.51100000000E-03 0. -1.
    9900012    2    1    2    0    0  0.10245434588E+01 -0.54407869976E+00 -0.21859642709E+00  0.90007535969E+02  0.89999794644E+02 0.  0.
        -12    1    1    2    0    0 -0.10245434588E+01  0.54407869976E+00  0.21859642709E+00  0.11804640310E+01  0.00000000000E+00 0.  1.
         11    1    3    3    0    0  0.60888289682E+01 -0.43253342306E+01 -0.38324553638E+01  0.83946452449E+01  0.51100000000E-03 0. -1.
        -11    1    3    3    0    0 -0.46030905630E+01  0.39731413144E+02  0.16712006656E+02  0.43348181045E+02  0.51100000000E-03 0.  1.
         12    1    3    3    0    0 -0.46119494639E+00 -0.35950157613E+02 -0.13098147719E+02  0.38264709680E+02  0.00000000000E+00 0. -1.
</event>
<event>
 7    1  0.2593256E-015  0.9000780E+02  0.7816164E-02  0.1186339E+00
        -11   -1    0    0    0    0  0.00000000000E+00  0.00000000000E+00  0.45593999997E+02  0.45594000000E+02  0.51100000000E-03 0.  1.
         11   -1    0    0    0    0 -0.00000000000E+00 -0.00000000000E+00 -0.45593999997E+02  0.45594000000E+02  0.51100000000E-03 0. -1.
    9900012    2    1    2    0    0  0.40506430647E+00  0.33197696534E+00 -0.10576377327E+01  0.90007795199E+02  0.90000057296E+02 0.  0.
        -12    1    1    2    0    0 -0.40506430647E+00 -0.33197696534E+00  0.10576377327E+01  0.11802048007E+01  0.00000000000E+00 0.  1.
         11    1    3    3    0    0 -0.10099565184E+02 -0.19345441054E+00 -0.29660724610E+01  0.10527878591E+02  0.51100000000E-03 0. -1.
        -11    1    3    3    0    0  0.72530832644E+01 -0.17847614890E+02 -0.33962712548E+02  0.39046259974E+02  0.51100000000E-03 0.  1.
         12    1    3    3    0    0  0.32515462263E+01  0.18373046266E+02  0.35871147276E+02  0.40433656634E+02  0.00000000000E+00 0. -1.
</event>
<event>
 7    1  0.2593256E-015  0.9000769E+02  0.7816164E-02  0.1186339E+00
        -11   -1    0    0    0    0  0.00000000000E+00  0.00000000000E+00  0.45593999997E+02  0.45594000000E+02  0.51100000000E-03 0. -1.
         11   -1    0    0    0    0 -0.00000000000E+00 -0.00000000000E+00 -0.45593999997E+02  0.45594000000E+02  0.51100000000E-03 0.  1.
    9900012    2    1    2    0    0 -0.11434595266E-01 -0.11749281449E+01 -0.11199365644E+00  0.90007690941E+02  0.89999951661E+02 0.  0.
        -12    1    1    2    0    0  0.11434595266E-01  0.11749281449E+01  0.11199365644E+00  0.11803090590E+01  0.00000000000E+00 0.  1.
         11    1    3    3    0    0 -0.94864558044E+01 -0.19001889700E+01 -0.18450619150E+01  0.98492545699E+01  0.51100000000E-03 0. -1.
        -11    1    3    3    0    0  0.94931329264E+01 -0.31244260609E+02 -0.22828646855E+02  0.39843073567E+02  0.51100000000E-03 0.  1.
         12    1    3    3    0    0 -0.18111717234E-01  0.31969521434E+02  0.24561715113E+02  0.40315362804E+02  0.00000000000E+00 0. -1.
</event>
<event>
 7    1  0.2593256E-015  0.9000762E+02  0.7816164E-02  0.1186339E+00
        -11   -1    0    0    0    0  0.00000000000E+00  0.00000000000E+00  0.45593999997E+02  0.45594000000E+02  0.51100000000E-03 0.  1.
         11   -1    0    0    0    0 -0.00000000000E+00 -0.00000000000E+00 -0.45593999997E+02  0.45594000000E+02  0.51100000000E-03 0. -1.
    9900012    2    1    2    0    0  0.82056203625E-01 -0.11764860754E+01  0.49348497088E-01  0.90007623797E+02  0.89999883631E+02 0.  0.
        -12    1    1    2    0    0 -0.82056203625E-01  0.11764860754E+01 -0.49348497088E-01  0.11803762029E+01  0.00000000000E+00 0.  1.
         11    1    3    3    0    0  0.23121935158E+02  0.16898829516E+02 -0.21961225667E+02  0.36090022963E+02  0.51100000000E-03 0. -1.
        -11    1    3    3    0    0  0.85849707302E+01 -0.36891474432E+01 -0.43490238079E+01  0.10306577494E+02  0.51100000000E-03 0.  1.
        -12    1    3    3    0    0 -0.31624849684E+02 -0.14386168148E+02  0.26359597972E+02  0.43611023340E+02  0.00000000000E+00 0.  1.
</event>
<event>
 7    1  0.2593256E-015  0.9000773E+02  0.7816164E-02  0.1186339E+00
        -11   -1    0    0    0    0  0.00000000000E+00  0.00000000000E+00  0.45593999997E+02  0.45594000000E+02  0.51100000000E-03 0. -1.
         11   -1    0    0    0    0 -0.00000000000E+00 -0.00000000000E+00 -0.45593999997E+02  0.45594000000E+02  0.51100000000E-03 0.  1.
    9900012    2    1    2    0    0  0.10222327003E+01 -0.47083524338E+00 -0.35551967956E+00  0.90007728945E+02  0.89999990167E+02 0.  0.
        -12    1    1    2    0    0 -0.10222327003E+01  0.47083524338E+00  0.35551967956E+00  0.11802710547E+01  0.00000000000E+00 0.  1.
         11    1    3    3    0    0 -0.17853058507E+02 -0.47557609317E+01 -0.38074158954E+01  0.18863864295E+02  0.51100000000E-03 0. -1.
        -11    1    3    3    0    0 -0.11225010641E+02  0.26144667235E+02  0.15036435793E+02  0.32181343824E+02  0.51100000000E-03 0.  1.
         12    1    3    3    0    0  0.30100301849E+02 -0.21859741546E+02 -0.11584539578E+02  0.38962520826E+02  0.00000000000E+00 0. -1.
</event>
<event>
 7    1  0.2593256E-015  0.9000718E+02  0.7816164E-02  0.1186340E+00
        -11   -1    0    0    0    0  0.00000000000E+00  0.00000000000E+00  0.45593999997E+02  0.45594000000E+02  0.51100000000E-03 0.  1.
         11   -1    0    0    0    0 -0.00000000000E+00 -0.00000000000E+00 -0.45593999997E+02  0.45594000000E+02  0.51100000000E-03 0. -1.
    9900012    2    1    2    0    0  0.51134295534E-01  0.75851534785E+00 -0.90353744677E+00  0.90007178182E+02  0.89999432132E+02 0.  0.
        -12    1    1    2    0    0 -0.51134295534E-01 -0.75851534785E+00  0.90353744677E+00  0.11808218184E+01  0.00000000000E+00 0.  1.
         11    1    3    3    0    0  0.27430740778E+02 -0.25259782235E+02  0.98171524973E+01  0.38560065114E+02  0.51100000000E-03 0. -1.
        -11    1    3    3    0    0 -0.40930866297E+01 -0.78453491614E+01  0.44405292331E+00  0.88600251062E+01  0.51100000000E-03 0.  1.
        -12    1    3    3    0    0 -0.23286519853E+02  0.33863646745E+02 -0.11164742867E+02  0.42587087961E+02  0.00000000000E+00 0.  1.
</event>
<event>
 7    1  0.2593256E-015  0.9000745E+02  0.7816164E-02  0.1186340E+00
        -11   -1    0    0    0    0  0.00000000000E+00  0.00000000000E+00  0.45593999997E+02  0.45594000000E+02  0.51100000000E-03 0.  1.
         11   -1    0    0    0    0 -0.00000000000E+00 -0.00000000000E+00 -0.45593999997E+02  0.45594000000E+02  0.51100000000E-03 0. -1.
    9900012    2    1    2    0    0  0.89550857691E+00  0.55340364842E+00 -0.53433094172E+00  0.90007448957E+02  0.89999706483E+02 0.  0.
        -12    1    1    2    0    0 -0.89550857691E+00 -0.55340364842E+00  0.53433094172E+00  0.11805510428E+01  0.00000000000E+00 0.  1.
         11    1    3    3    0    0 -0.87421315683E+01  0.14765684646E+01  0.50786651008E+01  0.10217531906E+02  0.51100000000E-03 0. -1.
        -11    1    3    3    0    0  0.13654201894E+02  0.26571217284E+02  0.24631493004E+02  0.38719210544E+02  0.51100000000E-03 0.  1.
         12    1    3    3    0    0 -0.40165617486E+01 -0.27494382100E+02 -0.30244489046E+02  0.41070706507E+02  0.00000000000E+00 0. -1.
</event>
<event>
 7    1  0.2593256E-015  0.9000760E+02  0.7816164E-02  0.1186339E+00
        -11   -1    0    0    0    0  0.00000000000E+00  0.00000000000E+00  0.45593999997E+02  0.45594000000E+02  0.51100000000E-03 0.  1.
         11   -1    0    0    0    0 -0.00000000000E+00 -0.00000000000E+00 -0.45593999997E+02  0.45594000000E+02  0.51100000000E-03 0. -1.
    9900012    2    1    2    0    0  0.25616833882E+00  0.10434697701E+01  0.48875530764E+00  0.90007604672E+02  0.89999864254E+02 0.  0.
        -12    1    1    2    0    0 -0.25616833882E+00 -0.10434697701E+01 -0.48875530764E+00  0.11803953277E+01  0.00000000000E+00 0.  1.
         11    1    3    3    0    0  0.12728765843E+01  0.29792827758E+01 -0.75330099303E+01  0.82001572868E+01  0.51100000000E-03 0. -1.
        -11    1    3    3    0    0  0.30270934617E+02  0.25612901226E+02  0.21815596220E+01  0.39712836646E+02  0.51100000000E-03 0.  1.
         12    1    3    3    0    0 -0.31287642862E+02 -0.27548714232E+02  0.58402056159E+01  0.42094610740E+02  0.00000000000E+00 0. -1.
</event>
<event>
 7    1  0.2593256E-015  0.9000785E+02  0.7816164E-02  0.1186339E+00
        -11   -1    0    0    0    0  0.00000000000E+00  0.00000000000E+00  0.45593999997E+02  0.45594000000E+02  0.51100000000E-03 0. -1.
         11   -1    0    0    0    0 -0.00000000000E+00 -0.00000000000E+00 -0.45593999997E+02  0.45594000000E+02  0.51100000000E-03 0.  1.
    9900012    2    1    2    0    0 -0.85012783619E+00  0.61311202129E+00  0.54233020201E+00  0.90007853511E+02  0.90000116377E+02 0.  0.
        -12    1    1    2    0    0  0.85012783619E+00 -0.61311202129E+00 -0.54233020201E+00  0.11801464894E+01  0.00000000000E+00 0.  1.
         11    1    3    3    0    0 -0.66291156771E+01 -0.33115734205E+02  0.65779914161E+01  0.34407368367E+02  0.51100000000E-03 0. -1.
        -11    1    3    3    0    0 -0.47030402397E+01 -0.64882533616E+01  0.83951079824E+01  0.11605768285E+02  0.51100000000E-03 0.  1.
        -12    1    3    3    0    0  0.10482028081E+02  0.40217099588E+02 -0.14430769196E+02  0.43994716859E+02  0.00000000000E+00 0.  1.
</event>
<event>
 7    1  0.2593256E-015  0.9000776E+02  0.7816164E-02  0.1186339E+00
        -11   -1    0    0    0    0  0.00000000000E+00  0.00000000000E+00  0.45593999997E+02  0.45594000000E+02  0.51100000000E-03 0.  1.
         11   -1    0    0    0    0 -0.00000000000E+00 -0.00000000000E+00 -0.45593999997E+02  0.45594000000E+02  0.51100000000E-03 0. -1.
    9900012    2    1    2    0    0  0.10247141917E+01  0.76574556056E-01 -0.58057863169E+00  0.90007756642E+02  0.90000018229E+02 0.  0.
        -12    1    1    2    0    0 -0.10247141917E+01 -0.76574556056E-01  0.58057863169E+00  0.11802433584E+01  0.00000000000E+00 0.  1.
         11    1    3    3    0    0  0.47600013919E+01  0.66342113747E+01  0.46020466837E+01  0.93727908200E+01  0.51100000000E-03 0. -1.
        -11    1    3    3    0    0 -0.36132583201E+02  0.11932344603E+02  0.11529269930E+02  0.39760136845E+02  0.51100000000E-03 0.  1.
         12    1    3    3    0    0  0.32397296001E+02 -0.18489981422E+02 -0.16711895245E+02  0.40874828977E+02  0.00000000000E+00 0. -1.
</event>
<event>
 7    1  0.3068478E-015  0.9000763E+02  0.7816164E-02  0.1186339E+00
        -11   -1    0    0    0    0  0.00000000000E+00  0.00000000000E+00  0.45593999997E+02  0.45594000000E+02  0.51100000000E-03 0. -1.
         11   -1    0    0    0    0 -0.00000000000E+00 -0.00000000000E+00 -0.45593999997E+02  0.45594000000E+02  0.51100000000E-03 0.  1.
    9900012    2    1    2    0    0 -0.50182944546E+00  0.23888893775E+00  0.10413306911E+01  0.90007631276E+02  0.89999891209E+02 0.  0.
        -12    1    1    2    0    0  0.50182944546E+00 -0.23888893775E+00 -0.10413306911E+01  0.11803687242E+01  0.00000000000E+00 0.  1.
         11    1    3    3    0    0  0.28967233212E+02  0.21996098579E+02  0.16718449357E+02  0.40030432196E+02  0.51100000000E-03 0. -1.
        -11    1    3    3    0    0  0.38301766223E+01 -0.75736543496E+01  0.33045216797E+01  0.91077086557E+01  0.51100000000E-03 0.  1.
        -12    1    3    3    0    0 -0.33299239280E+02 -0.14183555291E+02 -0.18981640345E+02  0.40869490424E+02  0.00000000000E+00 0.  1.
</event>
<event>
 7    1  0.2593256E-015  0.9000803E+02  0.7816164E-02  0.1186338E+00
        -11   -1    0    0    0    0  0.00000000000E+00  0.00000000000E+00  0.45593999997E+02  0.45594000000E+02  0.51100000000E-03 0.  1.
         11   -1    0    0    0    0 -0.00000000000E+00 -0.00000000000E+00 -0.45593999997E+02  0.45594000000E+02  0.51100000000E-03 0. -1.
    9900012    2    1    2    0    0 -0.94263466348E+00 -0.10922420251E+00 -0.70131077893E+00  0.90008030999E+02  0.90000296207E+02 0.  0.
        -12    1    1    2    0    0  0.94263466348E+00  0.10922420251E+00  0.70131077893E+00  0.11799690012E+01  0.00000000000E+00 0.  1.
         11    1    3    3    0    0 -0.31419545002E+01  0.45866992381E+01 -0.42992762986E+02  0.43350748061E+02  0.51100000000E-03 0. -1.
        -11    1    3    3    0    0 -0.18131400155E+01  0.57546619264E+01  0.53736526723E+01  0.80795887214E+01  0.51100000000E-03 0.  1.
        -12    1    3    3    0    0  0.40124598522E+01 -0.10450585367E+02  0.36917799535E+02  0.38577694217E+02  0.00000000000E+00 0.  1.
</event>
<event>
 7    1  0.2593256E-015  0.9000769E+02  0.7816164E-02  0.1186339E+00
        -11   -1    0    0    0    0  0.00000000000E+00  0.00000000000E+00  0.45593999997E+02  0.45594000000E+02  0.51100000000E-03 0. -1.
         11   -1    0    0    0    0 -0.00000000000E+00 -0.00000000000E+00 -0.45593999997E+02  0.45594000000E+02  0.51100000000E-03 0.  1.
    9900012    2    1    2    0    0  0.11762579456E+01  0.97083840457E-01  0.10832819607E-01  0.90007692677E+02  0.89999953420E+02 0.  0.
        -12    1    1    2    0    0 -0.11762579456E+01 -0.97083840457E-01 -0.10832819607E-01  0.11803073229E+01  0.00000000000E+00 0.  1.
         11    1    3    3    0    0  0.11919502718E+01  0.25929780769E+01  0.85445980012E+01  0.90085756932E+01  0.51100000000E-03 0. -1.
        -11    1    3    3    0    0  0.35687492275E+02  0.12801109661E+02  0.80594978892E+01  0.38761076094E+02  0.51100000000E-03 0.  1.
         12    1    3    3    0    0 -0.35703184601E+02 -0.15297003897E+02 -0.16593263071E+02  0.42238040890E+02  0.00000000000E+00 0. -1.
</event>
<event>
 7    1  0.2593256E-015  0.9000772E+02  0.7816164E-02  0.1186339E+00
        -11   -1    0    0    0    0  0.00000000000E+00  0.00000000000E+00  0.45593999997E+02  0.45594000000E+02  0.51100000000E-03 0.  1.
         11   -1    0    0    0    0 -0.00000000000E+00 -0.00000000000E+00 -0.45593999997E+02  0.45594000000E+02  0.51100000000E-03 0. -1.
    9900012    2    1    2    0    0  0.11532427191E+01 -0.20259036004E+00  0.14849576151E+00  0.90007719265E+02  0.89999980359E+02 0.  0.
        -12    1    1    2    0    0 -0.11532427191E+01  0.20259036004E+00 -0.14849576151E+00  0.11802807354E+01  0.00000000000E+00 0.  1.
         11    1    3    3    0    0 -0.39841554203E+01  0.10297286699E+02 -0.33964470387E+01  0.11551773046E+02  0.51100000000E-03 0. -1.
        -11    1    3    3    0    0  0.10127654925E+02  0.29178583332E+02  0.18217092110E+02  0.35858354184E+02  0.51100000000E-03 0.  1.
         12    1    3    3    0    0 -0.49902567852E+01 -0.39678460391E+02 -0.14672149310E+02  0.42597592035E+02  0.00000000000E+00 0. -1.
</event>
<event>
 7    1  0.2593256E-015  0.9000778E+02  0.7816164E-02  0.1186339E+00
        -11   -1    0    0    0    0  0.00000000000E+00  0.00000000000E+00  0.45593999997E+02  0.45594000000E+02  0.51100000000E-03 0. -1.
         11   -1    0    0    0    0 -0.00000000000E+00 -0.00000000000E+00 -0.45593999997E+02  0.45594000000E+02  0.51100000000E-03 0.  1.
    9900012    2    1    2    0    0  0.16840190648E+00 -0.68228869371E+00  0.94817926129E+00  0.90007779268E+02  0.90000041155E+02 0.  0.
        -12    1    1    2    0    0 -0.16840190648E+00  0.68228869371E+00 -0.94817926129E+00  0.11802207316E+01  0.00000000000E+00 0.  1.
         11    1    3    3    0    0  0.24580666667E+02 -0.22656532323E+02  0.26182582740E+02  0.42462398306E+02  0.51100000000E-03 0. -1.
        -11    1    3    3    0    0  0.44059065121E+01  0.56715699584E+01 -0.42265391930E+01  0.83332077735E+01  0.51100000000E-03 0.  1.
        -12    1    3    3    0    0 -0.28818171272E+02  0.16302673671E+02 -0.21007864286E+02  0.39212173189E+02  0.00000000000E+00 0.  1.
</event>
<event>
 7    1  0.2593256E-015  0.9000770E+02  0.7816164E-02  0.1186339E+00
        -11   -1    0    0    0    0  0.00000000000E+00  0.00000000000E+00  0.45593999997E+02  0.45594000000E+02  0.51100000000E-03 0.  1.
         11   -1    0    0    0    0 -0.00000000000E+00 -0.00000000000E+00 -0.45593999997E+02  0.45594000000E+02  0.51100000000E-03 0. -1.
    9900012    2    1    2    0    0  0.97072160567E+00  0.66483582291E+00  0.93816631492E-01  0.90007699755E+02  0.89999960592E+02 0.  0.
        -12    1    1    2    0    0 -0.97072160567E+00 -0.66483582291E+00 -0.93816631492E-01  0.11803002446E+01  0.00000000000E+00 0.  1.
         11    1    3    3    0    0 -0.10136495166E+02  0.39471159132E+01 -0.58357409485E+00  0.10893521803E+02  0.51100000000E-03 0. -1.
        -11    1    3    3    0    0  0.97996994513E+01  0.23872790843E+02  0.29701379525E+02  0.39346107786E+02  0.51100000000E-03 0.  1.
         12    1    3    3    0    0  0.13075173204E+01 -0.27155070934E+02 -0.29023988799E+02  0.39768070166E+02  0.00000000000E+00 0. -1.
</event>
<event>
 7    1  0.2593256E-015  0.9000772E+02  0.7816164E-02  0.1186339E+00
        -11   -1    0    0    0    0  0.00000000000E+00  0.00000000000E+00  0.45593999997E+02  0.45594000000E+02  0.51100000000E-03 0.  1.
         11   -1    0    0    0    0 -0.00000000000E+00 -0.00000000000E+00 -0.45593999997E+02  0.45594000000E+02  0.51100000000E-03 0. -1.
    9900012    2    1    2    0    0  0.79774159420E+00  0.57284103995E+00 -0.65461295877E+00  0.90007721798E+02  0.89999982926E+02 0.  0.
        -12    1    1    2    0    0 -0.79774159420E+00 -0.57284103995E+00  0.65461295877E+00  0.11802782019E+01  0.00000000000E+00 0.  1.
         11    1    3    3    0    0  0.12532099546E+02  0.78569918268E+01 -0.49807385721E+01  0.15607485274E+02  0.51100000000E-03 0. -1.
        -11    1    3    3    0    0  0.86915389492E+00  0.18681394342E+02 -0.26329440842E+02  0.32295346079E+02  0.51100000000E-03 0.  1.
         12    1    3    3    0    0 -0.12603511847E+02 -0.25965545129E+02  0.30655566455E+02  0.42104890445E+02  0.00000000000E+00 0. -1.
</event>
<event>
 7    1  0.2593256E-015  0.9000774E+02  0.7816164E-02  0.1186339E+00
        -11   -1    0    0    0    0  0.00000000000E+00  0.00000000000E+00  0.45593999997E+02  0.45594000000E+02  0.51100000000E-03 0.  1.
         11   -1    0    0    0    0 -0.00000000000E+00 -0.00000000000E+00 -0.45593999997E+02  0.45594000000E+02  0.51100000000E-03 0. -1.
    9900012    2    1    2    0    0  0.19821261271E+00 -0.11248486154E+01 -0.29738428645E+00  0.90007741528E+02  0.90000002916E+02 0.  0.
        -12    1    1    2    0    0 -0.19821261271E+00  0.11248486154E+01  0.29738428645E+00  0.11802584722E+01  0.00000000000E+00 0.  1.
         11    1    3    3    0    0 -0.16248324512E+02 -0.15922598161E+02 -0.33582868050E+02  0.40562867359E+02  0.51100000000E-03 0. -1.
        -11    1    3    3    0    0  0.85721461445E+01 -0.18536577017E+01 -0.25664665657E+01  0.91380789716E+01  0.51100000000E-03 0.  1.
        -12    1    3    3    0    0  0.78743909802E+01  0.16651407248E+02  0.35851950329E+02  0.40306795197E+02  0.00000000000E+00 0.  1.
</event>
<event>
 7    1  0.2593256E-015  0.9000775E+02  0.7816164E-02  0.1186339E+00
        -11   -1    0    0    0    0  0.00000000000E+00  0.00000000000E+00  0.45593999997E+02  0.45594000000E+02  0.51100000000E-03 0.  1.
         11   -1    0    0    0    0 -0.00000000000E+00 -0.00000000000E+00 -0.45593999997E+02  0.45594000000E+02  0.51100000000E-03 0. -1.
    9900012    2    1    2    0    0 -0.14322702053E+00 -0.82821956786E+00 -0.82856320664E+00  0.90007754848E+02  0.90000016412E+02 0.  0.
        -12    1    1    2    0    0  0.14322702053E+00  0.82821956786E+00  0.82856320664E+00  0.11802451522E+01  0.00000000000E+00 0.  1.
         11    1    3    3    0    0  0.16680626301E+02  0.34724241863E+01 -0.27901898062E+02  0.32692765855E+02  0.51100000000E-03 0. -1.
        -11    1    3    3    0    0 -0.15837605147E+02  0.16525230170E+02 -0.31820995639E+00  0.22891357033E+02  0.51100000000E-03 0.  1.
        -12    1    3    3    0    0 -0.98624817448E+00 -0.20825873924E+02  0.27391544812E+02  0.34423631960E+02  0.00000000000E+00 0.  1.
</event>
<event>
 7    1  0.2593256E-015  0.9000789E+02  0.7816164E-02  0.1186339E+00
        -11   -1    0    0    0    0  0.00000000000E+00  0.00000000000E+00  0.45593999997E+02  0.45594000000E+02  0.51100000000E-03 0.  1.
         11   -1    0    0    0    0 -0.00000000000E+00 -0.00000000000E+00 -0.45593999997E+02  0.45594000000E+02  0.51100000000E-03 0. -1.
    9900012    2    1    2    0    0 -0.10735800601E+01 -0.45507869234E+00 -0.18162999278E+00  0.90007889744E+02  0.90000153089E+02 0.  0.
        -12    1    1    2    0    0  0.10735800601E+01  0.45507869234E+00  0.18162999278E+00  0.11801102559E+01  0.00000000000E+00 0.  1.
         11    1    3    3    0    0  0.21949395303E+02  0.13436986010E+02 -0.26791892676E+02  0.37150155594E+02  0.51100000000E-03 0. -1.
        -11    1    3    3    0    0  0.10007411625E+02 -0.47563647342E+01  0.92879618365E+01  0.14458130179E+02  0.51100000000E-03 0.  1.
        -12    1    3    3    0    0 -0.33030386989E+02 -0.91356999685E+01  0.17322300847E+02  0.38399603972E+02  0.00000000000E+00 0.  1.
</event>
<event>
 7    1  0.2593256E-015  0.9000774E+02  0.7816164E-02  0.1186339E+00
        -11   -1    0    0    0    0  0.00000000000E+00  0.00000000000E+00  0.45593999997E+02  0.45594000000E+02  0.51100000000E-03 0.  1.
         11   -1    0    0    0    0 -0.00000000000E+00 -0.00000000000E+00 -0.45593999997E+02  0.45594000000E+02  0.51100000000E-03 0. -1.
    9900012    2    1    2    0    0  0.10882364386E+01  0.98346412836E-01  0.44618189136E+00  0.90007742044E+02  0.90000003439E+02 0.  0.
        -12    1    1    2    0    0 -0.10882364386E+01 -0.98346412836E-01 -0.44618189136E+00  0.11802579563E+01  0.00000000000E+00 0.  1.
         11    1    3    3    0    0  0.11954933395E+02  0.13391254734E+01 -0.13164125000E+02  0.17832775352E+02  0.51100000000E-03 0. -1.
        -11    1    3    3    0    0 -0.32776301256E+02  0.20272162783E+02 -0.12050326981E+00  0.38539084437E+02  0.51100000000E-03 0.  1.
         12    1    3    3    0    0  0.21909604300E+02 -0.21512941844E+02  0.13730810161E+02  0.33635882254E+02  0.00000000000E+00 0. -1.
</event>
<event>
 7    1  0.2593256E-015  0.9000774E+02  0.7816164E-02  0.1186339E+00
        -11   -1    0    0    0    0  0.00000000000E+00  0.00000000000E+00  0.45593999997E+02  0.45594000000E+02  0.51100000000E-03 0. -1.
         11   -1    0    0    0    0 -0.00000000000E+00 -0.00000000000E+00 -0.45593999997E+02  0.45594000000E+02  0.51100000000E-03 0.  1.
    9900012    2    1    2    0    0 -0.11776123530E+01  0.77003700621E-01 -0.17931598236E-01  0.90007736484E+02  0.89999997806E+02 0.  0.
        -12    1    1    2    0    0  0.11776123530E+01 -0.77003700621E-01  0.17931598236E-01  0.11802635156E+01  0.00000000000E+00 0.  1.
         11    1    3    3    0    0 -0.61571780992E+00 -0.97899447474E+01  0.98337810164E+00  0.98584562346E+01  0.51100000000E-03 0. -1.
        -11    1    3    3    0    0 -0.23556408572E+02 -0.14723601568E+02 -0.26130920720E+02  0.38138089175E+02  0.51100000000E-03 0.  1.
         12    1    3    3    0    0  0.22994514029E+02  0.24590550016E+02  0.25129611020E+02  0.42011191075E+02  0.00000000000E+00 0. -1.
</event>
<event>
 7    1  0.2593256E-015  0.9000771E+02  0.7816164E-02  0.1186339E+00
        -11   -1    0    0    0    0  0.00000000000E+00  0.00000000000E+00  0.45593999997E+02  0.45594000000E+02  0.51100000000E-03 0.  1.
         11   -1    0    0    0    0 -0.00000000000E+00 -0.00000000000E+00 -0.45593999997E+02  0.45594000000E+02  0.51100000000E-03 0. -1.
    9900012    2    1    2    0    0  0.74784040886E+00 -0.83503012217E+00  0.36950501176E+00  0.90007714214E+02  0.89999975242E+02 0.  0.
        -12    1    1    2    0    0 -0.74784040886E+00  0.83503012217E+00 -0.36950501176E+00  0.11802857856E+01  0.00000000000E+00 0.  1.
         11    1    3    3    0    0  0.22258986793E+02 -0.98226903877E+01 -0.10725291567E+02  0.26589088344E+02  0.51100000000E-03 0. -1.
        -11    1    3    3    0    0 -0.14131824901E+02 -0.24386516637E+02  0.34684652410E+01  0.28397903446E+02  0.51100000000E-03 0.  1.
        -12    1    3    3    0    0 -0.73793214835E+01  0.33374176902E+02  0.76263313378E+01  0.35020722425E+02  0.00000000000E+00 0.  1.
</event>
<event>
 7    1  0.2593256E-015  0.9000774E+02  0.7816164E-02  0.1186339E+00
        -11   -1    0    0    0    0  0.00000000000E+00  0.00000000000E+00  0.45593999997E+02  0.45594000000E+02  0.51100000000E-03 0.  1.
         11   -1    0    0    0    0 -0.00000000000E+00 -0.00000000000E+00 -0.45593999997E+02  0.45594000000E+02  0.51100000000E-03 0. -1.
    9900012    2    1    2    0    0 -0.12614909206E+00 -0.94106002758E+00 -0.70107041895E+00  0.90007742697E+02  0.90000004101E+02 0.  0.
        -12    1    1    2    0    0  0.12614909206E+00  0.94106002758E+00  0.70107041895E+00  0.11802573030E+01  0.00000000000E+00 0.  1.
         11    1    3    3    0    0  0.11708911654E+02  0.16540063230E+02 -0.30910421262E+02  0.36961147799E+02  0.51100000000E-03 0. -1.
        -11    1    3    3    0    0 -0.60958184678E+01  0.52315415521E+01 -0.59257516394E+01  0.99821121290E+01  0.51100000000E-03 0.  1.
        -12    1    3    3    0    0 -0.57392422781E+01 -0.22712664810E+02  0.36135102483E+02  0.43064482769E+02  0.00000000000E+00 0.  1.
</event>
<event>
 7    1  0.2593256E-015  0.9000780E+02  0.7816164E-02  0.1186339E+00
        -11   -1    0    0    0    0  0.00000000000E+00  0.00000000000E+00  0.45593999997E+02  0.45594000000E+02  0.51100000000E-03 0.  1.
         11   -1    0    0    0    0 -0.00000000000E+00 -0.00000000000E+00 -0.45593999997E+02  0.45594000000E+02  0.51100000000E-03 0. -1.
    9900012    2    1    2    0    0  0.11126426088E+01 -0.35752318733E+00 -0.16453073939E+00  0.90007802233E+02  0.90000064423E+02 0.  0.
        -12    1    1    2    0    0 -0.11126426088E+01  0.35752318733E+00  0.16453073939E+00  0.11801977667E+01  0.00000000000E+00 0.  1.
         11    1    3    3    0    0  0.36843071749E+02 -0.38591712193E+01  0.20893991592E+01  0.37103513681E+02  0.51100000000E-03 0. -1.
        -11    1    3    3    0    0  0.50927049459E+01  0.79088671606E+01  0.58145694706E+01  0.11058708868E+02  0.51100000000E-03 0.  1.
        -12    1    3    3    0    0 -0.40823134086E+02 -0.44072191286E+01 -0.80684993692E+01  0.41845579684E+02  0.00000000000E+00 0.  1.
</event>
<event>
 7    1  0.2593256E-015  0.9000780E+02  0.7816164E-02  0.1186339E+00
        -11   -1    0    0    0    0  0.00000000000E+00  0.00000000000E+00  0.45593999997E+02  0.45594000000E+02  0.51100000000E-03 0.  1.
         11   -1    0    0    0    0 -0.00000000000E+00 -0.00000000000E+00 -0.45593999997E+02  0.45594000000E+02  0.51100000000E-03 0. -1.
    9900012    2    1    2    0    0  0.15893142303E+00  0.90916867040E+00 -0.73555172965E+00  0.90007795265E+02  0.90000057363E+02 0.  0.
        -12    1    1    2    0    0 -0.15893142303E+00 -0.90916867040E+00  0.73555172965E+00  0.11802047346E+01  0.00000000000E+00 0.  1.
         11    1    3    3    0    0 -0.27367492510E+01 -0.15075176973E+02 -0.36828047052E+02  0.39888040904E+02  0.51100000000E-03 0. -1.
        -11    1    3    3    0    0 -0.67529278262E+01  0.48123049736E+01 -0.26135469385E+01  0.86943051043E+01  0.51100000000E-03 0.  1.
        -12    1    3    3    0    0  0.96486085002E+01  0.11172040670E+02  0.38706042260E+02  0.41425449258E+02  0.00000000000E+00 0.  1.
</event>
<event>
 7    1  0.2593256E-015  0.9000781E+02  0.7816164E-02  0.1186339E+00
        -11   -1    0    0    0    0  0.00000000000E+00  0.00000000000E+00  0.45593999997E+02  0.45594000000E+02  0.51100000000E-03 0. -1.
         11   -1    0    0    0    0 -0.00000000000E+00 -0.00000000000E+00 -0.45593999997E+02  0.45594000000E+02  0.51100000000E-03 0.  1.
    9900012    2    1    2    0    0 -0.96085355632E+00  0.45587645444E+00  0.51165117919E+00  0.90007809410E+02  0.90000071695E+02 0.  0.
        -12    1    1    2    0    0  0.96085355632E+00 -0.45587645444E+00 -0.51165117919E+00  0.11801905895E+01  0.00000000000E+00 0.  1.
         11    1    3    3    0    0 -0.11314077553E+02  0.40214873706E+02 -0.29370270590E+01  0.41879237652E+02  0.51100000000E-03 0. -1.
        -11    1    3    3    0    0 -0.19408641316E+01 -0.22453573759E+01  0.78641920056E+01  0.84055992936E+01  0.51100000000E-03 0.  1.
        -12    1    3    3    0    0  0.12294088128E+02 -0.37513639876E+02 -0.44155137674E+01  0.39722972465E+02  0.00000000000E+00 0.  1.
</event>
<event>
 7    1  0.2593256E-015  0.9000773E+02  0.7816164E-02  0.1186339E+00
        -11   -1    0    0    0    0  0.00000000000E+00  0.00000000000E+00  0.45593999997E+02  0.45594000000E+02  0.51100000000E-03 0. -1.
         11   -1    0    0    0    0 -0.00000000000E+00 -0.00000000000E+00 -0.45593999997E+02  0.45594000000E+02  0.51100000000E-03 0.  1.
    9900012    2    1    2    0    0 -0.98391286507E+00 -0.22171351389E+00  0.61302247012E+00  0.90007729710E+02  0.89999990942E+02 0.  0.
        -12    1    1    2    0    0  0.98391286507E+00  0.22171351389E+00 -0.61302247012E+00  0.11802702899E+01  0.00000000000E+00 0.  1.
         11    1    3    3    0    0 -0.84520808485E+01 -0.25984161324E+02 -0.25738871354E+02  0.37538031505E+02  0.51100000000E-03 0. -1.
        -11    1    3    3    0    0 -0.44106955522E+01 -0.82228366219E+01  0.45496782281E+01  0.10381177660E+02  0.51100000000E-03 0.  1.
        -12    1    3    3    0    0  0.11878863536E+02  0.33985284432E+02  0.21802215596E+02  0.42088520546E+02  0.00000000000E+00 0.  1.
</event>
<event>
 7    1  0.2593256E-015  0.9000761E+02  0.7816164E-02  0.1186339E+00
        -11   -1    0    0    0    0  0.00000000000E+00  0.00000000000E+00  0.45593999997E+02  0.45594000000E+02  0.51100000000E-03 0.  1.
         11   -1    0    0    0    0 -0.00000000000E+00 -0.00000000000E+00 -0.45593999997E+02  0.45594000000E+02  0.51100000000E-03 0. -1.
    9900012    2    1    2    0    0  0.11257495768E+01 -0.31193048461E-01  0.35360564681E+00  0.90007609357E+02  0.89999869001E+02 0.  0.
        -12    1    1    2    0    0 -0.11257495768E+01  0.31193048461E-01 -0.35360564681E+00  0.11803906427E+01  0.00000000000E+00 0.  1.
         11    1    3    3    0    0  0.43557246524E+01  0.14221633667E+02  0.17437628469E+01  0.14975577135E+02  0.51100000000E-03 0. -1.
        -11    1    3    3    0    0  0.24748252898E+02  0.18633113425E+02  0.50167912205E+01  0.31382114840E+02  0.51100000000E-03 0.  1.
         12    1    3    3    0    0 -0.27978227973E+02 -0.32885940140E+02 -0.64069484206E+01  0.43649917383E+02  0.00000000000E+00 0. -1.
</event>
<event>
 7    1  0.2593256E-015  0.9000736E+02  0.7816164E-02  0.1186340E+00
        -11   -1    0    0    0    0  0.00000000000E+00  0.00000000000E+00  0.45593999997E+02  0.45594000000E+02  0.51100000000E-03 0. -1.
         11   -1    0    0    0    0 -0.00000000000E+00 -0.00000000000E+00 -0.45593999997E+02  0.45594000000E+02  0.51100000000E-03 0.  1.
    9900012    2    1    2    0    0  0.91025012180E+00  0.42215595920E+00  0.62219808436E+00  0.90007363987E+02  0.89999620391E+02 0.  0.
        -12    1    1    2    0    0 -0.91025012180E+00 -0.42215595920E+00 -0.62219808436E+00  0.11806360126E+01  0.00000000000E+00 0.  1.
         11    1    3    3    0    0 -0.16664481014E+02 -0.19282722602E+02  0.28208272176E+02  0.38016245710E+02  0.51100000000E-03 0. -1.
        -11    1    3    3    0    0  0.64850980642E+01  0.68052976201E+01  0.81315461328E+01  0.12429425384E+02  0.51100000000E-03 0.  1.
        -12    1    3    3    0    0  0.11089633072E+02  0.12899580941E+02 -0.35717620225E+02  0.39561692894E+02  0.00000000000E+00 0.  1.
</event>
<event>
 7    1  0.2593256E-015  0.9000784E+02  0.7816164E-02  0.1186339E+00
        -11   -1    0    0    0    0  0.00000000000E+00  0.00000000000E+00  0.45593999997E+02  0.45594000000E+02  0.51100000000E-03 0.  1.
         11   -1    0    0    0    0 -0.00000000000E+00 -0.00000000000E+00 -0.45593999997E+02  0.45594000000E+02  0.51100000000E-03 0. -1.
    9900012    2    1    2    0    0 -0.10605545144E+01  0.17172510290E-01 -0.51740392122E+00  0.90007840015E+02  0.90000102703E+02 0.  0.
        -12    1    1    2    0    0  0.10605545144E+01 -0.17172510290E-01  0.51740392122E+00  0.11801599853E+01  0.00000000000E+00 0.  1.
         11    1    3    3    0    0 -0.47772166555E+01  0.67945012489E+01 -0.30340163227E+01  0.88426410932E+01  0.51100000000E-03 0. -1.
        -11    1    3    3    0    0  0.32787468368E+02  0.18150828298E+02 -0.13252340343E+02  0.39750411000E+02  0.51100000000E-03 0.  1.
         12    1    3    3    0    0 -0.29070806227E+02 -0.24928157036E+02  0.15768952745E+02  0.41414787921E+02  0.00000000000E+00 0. -1.
</event>
<event>
 7    1  0.3002275E-015  0.9000777E+02  0.7816164E-02  0.1186339E+00
        -11   -1    0    0    0    0  0.00000000000E+00  0.00000000000E+00  0.45593999997E+02  0.45594000000E+02  0.51100000000E-03 0. -1.
         11   -1    0    0    0    0 -0.00000000000E+00 -0.00000000000E+00 -0.45593999997E+02  0.45594000000E+02  0.51100000000E-03 0.  1.
    9900012    2    1    2    0    0 -0.54531940644E+00  0.36345152393E+00  0.98157069454E+00  0.90007766424E+02  0.90000028141E+02 0.  0.
        -12    1    1    2    0    0  0.54531940644E+00 -0.36345152393E+00 -0.98157069454E+00  0.11802335759E+01  0.00000000000E+00 0.  1.
         11    1    3    3    0    0  0.31810069741E+02 -0.18732913229E+01  0.20564301464E+02  0.37924665486E+02  0.51100000000E-03 0. -1.
        -11    1    3    3    0    0 -0.16776488891E+01  0.18694881133E+01  0.94896980609E+01  0.98165096215E+01  0.51100000000E-03 0.  1.
        -12    1    3    3    0    0 -0.30677740258E+02  0.36725473350E+00 -0.29072428830E+02  0.42266591316E+02  0.00000000000E+00 0.  1.
</event>
<event>
 7    1  0.2593256E-015  0.9000815E+02  0.7816164E-02  0.1186338E+00
        -11   -1    0    0    0    0  0.00000000000E+00  0.00000000000E+00  0.45593999997E+02  0.45594000000E+02  0.51100000000E-03 0. -1.
         11   -1    0    0    0    0 -0.00000000000E+00 -0.00000000000E+00 -0.45593999997E+02  0.45594000000E+02  0.51100000000E-03 0.  1.
    9900012    2    1    2    0    0 -0.48358426390E+00 -0.10752462541E+01  0.45258637066E-01  0.90008145521E+02  0.90000412241E+02 0.  0.
        -12    1    1    2    0    0  0.48358426390E+00  0.10752462541E+01 -0.45258637066E-01  0.11798544789E+01  0.00000000000E+00 0.  1.
         11    1    3    3    0    0 -0.28992796167E+02 -0.11118511506E+02  0.19872616828E+02  0.36866304772E+02  0.51100000000E-03 0. -1.
        -11    1    3    3    0    0 -0.10073222694E+01 -0.34494780436E+01  0.90266475544E+01  0.97156555755E+01  0.51100000000E-03 0.  1.
        -12    1    3    3    0    0  0.29516534172E+02  0.13492743296E+02 -0.28854005746E+02  0.43426185174E+02  0.00000000000E+00 0.  1.
</event>
<event>
 7    1  0.3924544E-015  0.9000846E+02  0.7816164E-02  0.1186338E+00
        -11   -1    0    0    0    0  0.00000000000E+00  0.00000000000E+00  0.45593999997E+02  0.45594000000E+02  0.51100000000E-03 0. -1.
         11   -1    0    0    0    0 -0.00000000000E+00 -0.00000000000E+00 -0.45593999997E+02  0.45594000000E+02  0.51100000000E-03 0.  1.
    9900012    2    1    2    0    0 -0.10340003985E+01 -0.47995976761E-01  0.56554842462E+00  0.90008463880E+02  0.90000734800E+02 0.  0.
        -12    1    1    2    0    0  0.10340003985E+01  0.47995976761E-01 -0.56554842462E+00  0.11795361200E+01  0.00000000000E+00 0.  1.
         11    1    3    3    0    0 -0.17442540501E+02  0.22448405384E+02  0.22803150646E+02  0.36443885675E+02  0.51100000000E-03 0. -1.
        -11    1    3    3    0    0 -0.43527148461E+01  0.84828478003E+01  0.10593796971E+01  0.95930766149E+01  0.51100000000E-03 0.  1.
        -12    1    3    3    0    0  0.20761254949E+02 -0.30979249161E+02 -0.23296981919E+02  0.43971501591E+02  0.00000000000E+00 0.  1.
</event>
<event>
 7    1  0.2593256E-015  0.9000775E+02  0.7816164E-02  0.1186339E+00
        -11   -1    0    0    0    0  0.00000000000E+00  0.00000000000E+00  0.45593999997E+02  0.45594000000E+02  0.51100000000E-03 0.  1.
         11   -1    0    0    0    0 -0.00000000000E+00 -0.00000000000E+00 -0.45593999997E+02  0.45594000000E+02  0.51100000000E-03 0. -1.
    9900012    2    1    2    0    0  0.11497044015E+01 -0.11117865114E+00  0.24249396582E+00  0.90007752472E+02  0.90000014005E+02 0.  0.
        -12    1    1    2    0    0 -0.11497044015E+01  0.11117865114E+00 -0.24249396582E+00  0.11802475278E+01  0.00000000000E+00 0.  1.
         11    1    3    3    0    0 -0.10251180872E+02  0.13881331065E+02 -0.32734152278E+02  0.37004091490E+02  0.51100000000E-03 0. -1.
        -11    1    3    3    0    0  0.40043232851E+01 -0.10591215746E+02 -0.62553237548E+01  0.12935900877E+02  0.51100000000E-03 0.  1.
        -12    1    3    3    0    0  0.73965619880E+01 -0.34012939705E+01  0.39231969998E+02  0.40067760105E+02  0.00000000000E+00 0.  1.
</event>
<event>
 7    1  0.2593256E-015  0.9000772E+02  0.7816164E-02  0.1186339E+00
        -11   -1    0    0    0    0  0.00000000000E+00  0.00000000000E+00  0.45593999997E+02  0.45594000000E+02  0.51100000000E-03 0. -1.
         11   -1    0    0    0    0 -0.00000000000E+00 -0.00000000000E+00 -0.45593999997E+02  0.45594000000E+02  0.51100000000E-03 0.  1.
    9900012    2    1    2    0    0 -0.80775684238E+00  0.82618558518E+00  0.24086170207E+00  0.90007716942E+02  0.89999978006E+02 0.  0.
        -12    1    1    2    0    0  0.80775684238E+00 -0.82618558518E+00 -0.24086170207E+00  0.11802830580E+01  0.00000000000E+00 0.  1.
         11    1    3    3    0    0  0.22573123728E+02 -0.55139522875E+01  0.34303870119E+02  0.41433139998E+02  0.51100000000E-03 0. -1.
        -11    1    3    3    0    0 -0.53169002835E+01 -0.60271658663E+01  0.54560098947E-01  0.80373586501E+01  0.51100000000E-03 0.  1.
        -12    1    3    3    0    0 -0.18063980287E+02  0.12367303739E+02 -0.34117568516E+02  0.40537218294E+02  0.00000000000E+00 0.  1.
</event>
<event>
 7    1  0.2593256E-015  0.9000776E+02  0.7816164E-02  0.1186339E+00
        -11   -1    0    0    0    0  0.00000000000E+00  0.00000000000E+00  0.45593999997E+02  0.45594000000E+02  0.51100000000E-03 0.  1.
         11   -1    0    0    0    0 -0.00000000000E+00 -0.00000000000E+00 -0.45593999997E+02  0.45594000000E+02  0.51100000000E-03 0. -1.
    9900012    2    1    2    0    0  0.53664260231E+00 -0.93708463040E+00 -0.47629979708E+00  0.90007756642E+02  0.90000018230E+02 0.  0.
        -12    1    1    2    0    0 -0.53664260231E+00  0.93708463040E+00  0.47629979708E+00  0.11802433579E+01  0.00000000000E+00 0.  1.
         11    1    3    3    0    0  0.68215846450E+01 -0.69483617205E+01  0.83524693654E+00  0.97729926519E+01  0.51100000000E-03 0. -1.
        -11    1    3    3    0    0  0.53602587951E+01 -0.32427822541E+02  0.15931583920E+02  0.36525489943E+02  0.51100000000E-03 0.  1.
         12    1    3    3    0    0 -0.11645200838E+02  0.38439099631E+02 -0.17243130654E+02  0.43709274047E+02  0.00000000000E+00 0. -1.
</event>
<event>
 7    1  0.2593256E-015  0.9000720E+02  0.7816164E-02  0.1186340E+00
        -11   -1    0    0    0    0  0.00000000000E+00  0.00000000000E+00  0.45593999997E+02  0.45594000000E+02  0.51100000000E-03 0. -1.
         11   -1    0    0    0    0 -0.00000000000E+00 -0.00000000000E+00 -0.45593999997E+02  0.45594000000E+02  0.51100000000E-03 0.  1.
    9900012    2    1    2    0    0  0.11228594969E+01  0.35305967221E+00 -0.93990085913E-01  0.90007195732E+02  0.89999449914E+02 0.  0.
        -12    1    1    2    0    0 -0.11228594969E+01 -0.35305967221E+00  0.93990085913E-01  0.11808042675E+01  0.00000000000E+00 0.  1.
         11    1    3    3    0    0  0.35211153918E+01 -0.73296338051E+01  0.61050213415E+01  0.10168238351E+02  0.51100000000E-03 0. -1.
        -11    1    3    3    0    0  0.24638743878E+02 -0.22838996263E+02 -0.17008190236E+02  0.37655889122E+02  0.51100000000E-03 0.  1.
         12    1    3    3    0    0 -0.27036999773E+02  0.30521689740E+02  0.10809178809E+02  0.42183068260E+02  0.00000000000E+00 0. -1.
</event>
<event>
 7    1  0.2593256E-015  0.9000769E+02  0.7816164E-02  0.1186339E+00
        -11   -1    0    0    0    0  0.00000000000E+00  0.00000000000E+00  0.45593999997E+02  0.45594000000E+02  0.51100000000E-03 0. -1.
         11   -1    0    0    0    0 -0.00000000000E+00 -0.00000000000E+00 -0.45593999997E+02  0.45594000000E+02  0.51100000000E-03 0.  1.
    9900012    2    1    2    0    0 -0.75891200443E+00 -0.90353014401E+00  0.28719959320E-01  0.90007686911E+02  0.89999947578E+02 0.  0.
        -12    1    1    2    0    0  0.75891200443E+00  0.90353014401E+00 -0.28719959320E-01  0.11803130888E+01  0.00000000000E+00 0.  1.
         11    1    3    3    0    0 -0.34343562167E+02  0.13324912224E+01  0.16094709697E+01  0.34407066022E+02  0.51100000000E-03 0. -1.
        -11    1    3    3    0    0  0.13828854216E+01  0.13535179233E+02 -0.12126632559E+02  0.18225494957E+02  0.51100000000E-03 0.  1.
        -12    1    3    3    0    0  0.32201764741E+02 -0.15771200599E+02  0.10545881549E+02  0.37375125932E+02  0.00000000000E+00 0.  1.
</event>
<event>
 7    1  0.2593256E-015  0.9000773E+02  0.7816164E-02  0.1186339E+00
        -11   -1    0    0    0    0  0.00000000000E+00  0.00000000000E+00  0.45593999997E+02  0.45594000000E+02  0.51100000000E-03 0. -1.
         11   -1    0    0    0    0 -0.00000000000E+00 -0.00000000000E+00 -0.45593999997E+02  0.45594000000E+02  0.51100000000E-03 0.  1.
    9900012    2    1    2    0    0  0.96615719191E+00  0.59829644400E+00  0.31877931828E+00  0.90007729434E+02  0.89999990663E+02 0.  0.
        -12    1    1    2    0    0 -0.96615719191E+00 -0.59829644400E+00 -0.31877931828E+00  0.11802705657E+01  0.00000000000E+00 0.  1.
         11    1    3    3    0    0 -0.92678193183E+01  0.31584021315E+01 -0.49960048024E+00  0.98039573561E+01  0.51100000000E-03 0. -1.
        -11    1    3    3    0    0 -0.10671838257E+02  0.34016513344E+02 -0.93653444927E+01  0.36860832731E+02  0.51100000000E-03 0.  1.
         12    1    3    3    0    0  0.20905814767E+02 -0.36576619032E+02  0.10183724291E+02  0.43342939348E+02  0.00000000000E+00 0. -1.
</event>
<event>
 7    1  0.2593256E-015  0.9000800E+02  0.7816164E-02  0.1186339E+00
        -11   -1    0    0    0    0  0.00000000000E+00  0.00000000000E+00  0.45593999997E+02  0.45594000000E+02  0.51100000000E-03 0. -1.
         11   -1    0    0    0    0 -0.00000000000E+00 -0.00000000000E+00 -0.45593999997E+02  0.45594000000E+02  0.51100000000E-03 0.  1.
    9900012    2    1    2    0    0  0.74104187129E+00  0.80816658827E+00  0.43603217000E+00  0.90007999855E+02  0.90000264652E+02 0.  0.
        -12    1    1    2    0    0 -0.74104187129E+00 -0.80816658827E+00 -0.43603217000E+00  0.11800001452E+01  0.00000000000E+00 0.  1.
         11    1    3    3    0    0  0.22050172744E+01  0.88293479722E+01 -0.34891954147E+01  0.97464850945E+01  0.51100000000E-03 0. -1.
        -11    1    3    3    0    0  0.14375582087E+02  0.12254733084E+02 -0.31349068317E+02  0.36600545459E+02  0.51100000000E-03 0.  1.
         12    1    3    3    0    0 -0.15839557490E+02 -0.20275914468E+02  0.35274295902E+02  0.43660969301E+02  0.00000000000E+00 0. -1.
</event>
<event>
 7    1  0.2593256E-015  0.9000786E+02  0.7816164E-02  0.1186339E+00
        -11   -1    0    0    0    0  0.00000000000E+00  0.00000000000E+00  0.45593999997E+02  0.45594000000E+02  0.51100000000E-03 0.  1.
         11   -1    0    0    0    0 -0.00000000000E+00 -0.00000000000E+00 -0.45593999997E+02  0.45594000000E+02  0.51100000000E-03 0. -1.
    9900012    2    1    2    0    0 -0.32520220813E+00 -0.15629636250E+00 -0.11236309991E+01  0.90007859478E+02  0.90000122423E+02 0.  0.
        -12    1    1    2    0    0  0.32520220813E+00  0.15629636250E+00  0.11236309991E+01  0.11801405219E+01  0.00000000000E+00 0.  1.
         11    1    3    3    0    0  0.50486224568E+01  0.61318865497E+01 -0.30553423972E+01  0.85102137926E+01  0.51100000000E-03 0. -1.
        -11    1    3    3    0    0  0.24317511339E+02 -0.91524835500E+01 -0.28718688704E+02  0.38728186041E+02  0.51100000000E-03 0.  1.
         12    1    3    3    0    0 -0.29691336004E+02  0.28643006378E+01  0.30650400103E+02  0.42769459645E+02  0.00000000000E+00 0. -1.
</event>
<event>
 7    1  0.3090281E-015  0.9000767E+02  0.7816164E-02  0.1186339E+00
        -11   -1    0    0    0    0  0.00000000000E+00  0.00000000000E+00  0.45593999997E+02  0.45594000000E+02  0.51100000000E-03 0. -1.
         11   -1    0    0    0    0 -0.00000000000E+00 -0.00000000000E+00 -0.45593999997E+02  0.45594000000E+02  0.51100000000E-03 0.  1.
    9900012    2    1    2    0    0  0.11734656458E+01 -0.12258159168E+00  0.33642894575E-01  0.90007669659E+02  0.89999930099E+02 0.  0.
        -12    1    1    2    0    0 -0.11734656458E+01  0.12258159168E+00 -0.33642894575E-01  0.11803303406E+01  0.00000000000E+00 0.  1.
         11    1    3    3    0    0 -0.33035427893E+02  0.15381222316E+02  0.43393508242E+01  0.36698112510E+02  0.51100000000E-03 0. -1.
        -11    1    3    3    0    0 -0.55119561629E+01  0.17016989831E+01 -0.80023904858E+01  0.98648717132E+01  0.51100000000E-03 0.  1.
        -12    1    3    3    0    0  0.39720849701E+02 -0.17205502890E+02  0.36966825561E+01  0.43444685436E+02  0.00000000000E+00 0.  1.
</event>
<event>
 7    1  0.2593256E-015  0.9000777E+02  0.7816164E-02  0.1186339E+00
        -11   -1    0    0    0    0  0.00000000000E+00  0.00000000000E+00  0.45593999997E+02  0.45594000000E+02  0.51100000000E-03 0.  1.
         11   -1    0    0    0    0 -0.00000000000E+00 -0.00000000000E+00 -0.45593999997E+02  0.45594000000E+02  0.51100000000E-03 0. -1.
    9900012    2    1    2    0    0 -0.94583037451E-02  0.47397392319E+00 -0.10808370212E+01  0.90007767224E+02  0.90000028951E+02 0.  0.
        -12    1    1    2    0    0  0.94583037451E-02 -0.47397392319E+00  0.10808370212E+01  0.11802327761E+01  0.00000000000E+00 0.  1.
         11    1    3    3    0    0 -0.15995289849E+02 -0.25889397078E+02  0.16304858998E+02  0.34524753520E+02  0.51100000000E-03 0. -1.
        -11    1    3    3    0    0 -0.11153689165E+02 -0.40832841694E+01 -0.32192242543E+01  0.12306152797E+02  0.51100000000E-03 0.  1.
        -12    1    3    3    0    0  0.27139520711E+02  0.30446655171E+02 -0.14166471765E+02  0.43176860907E+02  0.00000000000E+00 0.  1.
</event>
<event>
 7    1  0.2593256E-015  0.9000774E+02  0.7816164E-02  0.1186339E+00
        -11   -1    0    0    0    0  0.00000000000E+00  0.00000000000E+00  0.45593999997E+02  0.45594000000E+02  0.51100000000E-03 0. -1.
         11   -1    0    0    0    0 -0.00000000000E+00 -0.00000000000E+00 -0.45593999997E+02  0.45594000000E+02  0.51100000000E-03 0.  1.
    9900012    2    1    2    0    0 -0.32077631289E+00  0.10970951820E+01 -0.29409333526E+00  0.90007743176E+02  0.90000004586E+02 0.  0.
        -12    1    1    2    0    0  0.32077631289E+00 -0.10970951820E+01  0.29409333526E+00  0.11802568243E+01  0.00000000000E+00 0.  1.
         11    1    3    3    0    0  0.70490081107E+01 -0.40695860176E+01  0.66464745649E+01  0.10508361913E+02  0.51100000000E-03 0. -1.
        -11    1    3    3    0    0 -0.15237541258E+02 -0.86448853572E+00 -0.41146529157E+02  0.43885839014E+02  0.51100000000E-03 0.  1.
         12    1    3    3    0    0  0.78677568345E+01  0.60311697353E+01  0.34205961257E+02  0.35613542249E+02  0.00000000000E+00 0. -1.
</event>
<event>
 7    1  0.2593256E-015  0.9000777E+02  0.7816164E-02  0.1186339E+00
        -11   -1    0    0    0    0  0.00000000000E+00  0.00000000000E+00  0.45593999997E+02  0.45594000000E+02  0.51100000000E-03 0.  1.
         11   -1    0    0    0    0 -0.00000000000E+00 -0.00000000000E+00 -0.45593999997E+02  0.45594000000E+02  0.51100000000E-03 0. -1.
    9900012    2    1    2    0    0 -0.95854189365E+00  0.51851070185E+00 -0.45309755732E+00  0.90007765571E+02  0.90000027277E+02 0.  0.
        -12    1    1    2    0    0  0.95854189365E+00 -0.51851070185E+00  0.45309755732E+00  0.11802344285E+01  0.00000000000E+00 0.  1.
         11    1    3    3    0    0  0.21222004236E+02 -0.25061919255E+02  0.21300051448E+02  0.39142885081E+02  0.51100000000E-03 0. -1.
        -11    1    3    3    0    0  0.69831008360E+01  0.47795743244E+00 -0.62369758202E+01  0.93750737722E+01  0.51100000000E-03 0.  1.
        -12    1    3    3    0    0 -0.29163646966E+02  0.25102472524E+02 -0.15516173185E+02  0.41489806718E+02  0.00000000000E+00 0.  1.
</event>
<event>
 7    1  0.2593256E-015  0.9000780E+02  0.7816164E-02  0.1186339E+00
        -11   -1    0    0    0    0  0.00000000000E+00  0.00000000000E+00  0.45593999997E+02  0.45594000000E+02  0.51100000000E-03 0.  1.
         11   -1    0    0    0    0 -0.00000000000E+00 -0.00000000000E+00 -0.45593999997E+02  0.45594000000E+02  0.51100000000E-03 0. -1.
    9900012    2    1    2    0    0  0.23013805205E+00 -0.67683557675E+00 -0.93904310497E+00  0.90007800070E+02  0.90000062231E+02 0.  0.
        -12    1    1    2    0    0 -0.23013805205E+00  0.67683557675E+00  0.93904310497E+00  0.11801999296E+01  0.00000000000E+00 0.  1.
         11    1    3    3    0    0 -0.51680407749E+01 -0.70935467359E+01 -0.23309195956E+01  0.90807619266E+01  0.51100000000E-03 0. -1.
        -11    1    3    3    0    0 -0.36649676232E+02  0.11172399284E+02  0.40468666870E+01  0.38527891247E+02  0.51100000000E-03 0.  1.
         12    1    3    3    0    0  0.42047855059E+02 -0.47556881249E+01 -0.26549901964E+01  0.42399146897E+02  0.00000000000E+00 0. -1.
</event>
<event>
 7    1  0.2593256E-015  0.9000777E+02  0.7816164E-02  0.1186339E+00
        -11   -1    0    0    0    0  0.00000000000E+00  0.00000000000E+00  0.45593999997E+02  0.45594000000E+02  0.51100000000E-03 0.  1.
         11   -1    0    0    0    0 -0.00000000000E+00 -0.00000000000E+00 -0.45593999997E+02  0.45594000000E+02  0.51100000000E-03 0. -1.
    9900012    2    1    2    0    0 -0.76004418077E+00 -0.25482552256E+00 -0.86621927876E+00  0.90007771614E+02  0.90000033400E+02 0.  0.
        -12    1    1    2    0    0  0.76004418077E+00  0.25482552256E+00  0.86621927876E+00  0.11802283858E+01  0.00000000000E+00 0.  1.
         11    1    3    3    0    0  0.16377856060E+02  0.23752935771E+02 -0.21572886741E+02  0.36025346209E+02  0.51100000000E-03 0. -1.
        -11    1    3    3    0    0 -0.47267463015E+00  0.99903404782E+01 -0.14608009786E+01  0.10107633943E+02  0.51100000000E-03 0.  1.
        -12    1    3    3    0    0 -0.16665225610E+02 -0.33998101772E+02  0.22167468441E+02  0.43874791462E+02  0.00000000000E+00 0.  1.
</event>
<event>
 7    1  0.2593256E-015  0.9000793E+02  0.7816164E-02  0.1186339E+00
        -11   -1    0    0    0    0  0.00000000000E+00  0.00000000000E+00  0.45593999997E+02  0.45594000000E+02  0.51100000000E-03 0.  1.
         11   -1    0    0    0    0 -0.00000000000E+00 -0.00000000000E+00 -0.45593999997E+02  0.45594000000E+02  0.51100000000E-03 0. -1.
    9900012    2    1    2    0    0 -0.59376521664E+00  0.10166956646E+01 -0.79546472671E-01  0.90007934388E+02  0.90000198322E+02 0.  0.
        -12    1    1    2    0    0  0.59376521664E+00 -0.10166956646E+01  0.79546472671E-01  0.11800656119E+01  0.00000000000E+00 0.  1.
         11    1    3    3    0    0 -0.16297195898E+02 -0.19301703456E+02  0.14791585352E+02  0.29273628882E+02  0.51100000000E-03 0.  1.
        -11    1    3    3    0    0  0.68465062955E+01 -0.13240501124E+02 -0.20732646360E+02  0.25534841762E+02  0.51100000000E-03 0. -1.
         12    1    3    3    0    0  0.88569243862E+01  0.33558900244E+02  0.58615145351E+01  0.35199463744E+02  0.00000000000E+00 0. -1.
</event>
<event>
 7    1  0.2593256E-015  0.9000769E+02  0.7816164E-02  0.1186339E+00
        -11   -1    0    0    0    0  0.00000000000E+00  0.00000000000E+00  0.45593999997E+02  0.45594000000E+02  0.51100000000E-03 0.  1.
         11   -1    0    0    0    0 -0.00000000000E+00 -0.00000000000E+00 -0.45593999997E+02  0.45594000000E+02  0.51100000000E-03 0. -1.
    9900012    2    1    2    0    0 -0.97787839938E+00  0.66087465304E+00 -0.11179217399E-01  0.90007692224E+02  0.89999952961E+02 0.  0.
        -12    1    1    2    0    0  0.97787839938E+00 -0.66087465304E+00  0.11179217399E-01  0.11803077759E+01  0.00000000000E+00 0.  1.
         11    1    3    3    0    0  0.75552008488E+01 -0.14268283655E+02 -0.47571054087E+01  0.16831370427E+02  0.51100000000E-03 0. -1.
        -11    1    3    3    0    0 -0.94460857215E+01 -0.25402243105E+02  0.15769345735E+02  0.31355617604E+02  0.51100000000E-03 0.  1.
         12    1    3    3    0    0  0.91300647327E+00  0.40331401413E+02 -0.11023419543E+02  0.41820704192E+02  0.00000000000E+00 0. -1.
</event>
<event>
 7    1  0.2593256E-015  0.9000772E+02  0.7816164E-02  0.1186339E+00
        -11   -1    0    0    0    0  0.00000000000E+00  0.00000000000E+00  0.45593999997E+02  0.45594000000E+02  0.51100000000E-03 0. -1.
         11   -1    0    0    0    0 -0.00000000000E+00 -0.00000000000E+00 -0.45593999997E+02  0.45594000000E+02  0.51100000000E-03 0.  1.
    9900012    2    1    2    0    0 -0.73129930629E+00  0.79309875642E+00  0.47879641276E+00  0.90007724474E+02  0.89999985637E+02 0.  0.
        -12    1    1    2    0    0  0.73129930629E+00 -0.79309875642E+00 -0.47879641276E+00  0.11802755262E+01  0.00000000000E+00 0.  1.
         11    1    3    3    0    0  0.36583769364E+01 -0.11461283544E+02  0.21115632701E+02  0.24302565439E+02  0.51100000000E-03 0. -1.
        -11    1    3    3    0    0  0.34565976981E+01 -0.16019098840E+02 -0.30604834460E+02  0.34716213617E+02  0.51100000000E-03 0.  1.
         12    1    3    3    0    0 -0.78462739407E+01  0.28273481140E+02  0.99679981721E+01  0.30988945418E+02  0.00000000000E+00 0. -1.
</event>
<event>
 7    1  0.2593256E-015  0.9000738E+02  0.7816164E-02  0.1186340E+00
        -11   -1    0    0    0    0  0.00000000000E+00  0.00000000000E+00  0.45593999997E+02  0.45594000000E+02  0.51100000000E-03 0.  1.
         11   -1    0    0    0    0 -0.00000000000E+00 -0.00000000000E+00 -0.45593999997E+02  0.45594000000E+02  0.51100000000E-03 0. -1.
    9900012    2    1    2    0    0 -0.51299431289E+00  0.49943090848E+00 -0.93876426575E+00  0.90007376121E+02  0.89999632685E+02 0.  0.
        -12    1    1    2    0    0  0.51299431289E+00 -0.49943090848E+00  0.93876426575E+00  0.11806238792E+01  0.00000000000E+00 0.  1.
         11    1    3    3    0    0 -0.16755974942E+02  0.13127093908E+02 -0.91797523300E+01  0.23180835702E+02  0.51100000000E-03 0. -1.
        -11    1    3    3    0    0  0.47890126277E+01 -0.33839112567E+01  0.35428502903E+02  0.35910504251E+02  0.51100000000E-03 0.  1.
         12    1    3    3    0    0  0.11453968001E+02 -0.92437517427E+01 -0.27187514839E+02  0.30916036168E+02  0.00000000000E+00 0. -1.
</event>
<event>
 7    1  0.2593256E-015  0.9000777E+02  0.7816164E-02  0.1186339E+00
        -11   -1    0    0    0    0  0.00000000000E+00  0.00000000000E+00  0.45593999997E+02  0.45594000000E+02  0.51100000000E-03 0.  1.
         11   -1    0    0    0    0 -0.00000000000E+00 -0.00000000000E+00 -0.45593999997E+02  0.45594000000E+02  0.51100000000E-03 0. -1.
    9900012    2    1    2    0    0 -0.29311945525E+00  0.10975766807E+01  0.31991132444E+00  0.90007772547E+02  0.90000034345E+02 0.  0.
        -12    1    1    2    0    0  0.29311945525E+00 -0.10975766807E+01 -0.31991132444E+00  0.11802274529E+01  0.00000000000E+00 0.  1.
         11    1    3    3    0    0 -0.81508535715E+01 -0.54350719722E+01  0.31952507147E+01  0.10304661502E+02  0.51100000000E-03 0. -1.
        -11    1    3    3    0    0 -0.49928487362E+01 -0.32688459316E+02 -0.15531665970E+02  0.36533499135E+02  0.51100000000E-03 0.  1.
         12    1    3    3    0    0  0.12850582852E+02  0.39221107969E+02  0.12656326579E+02  0.43169611910E+02  0.00000000000E+00 0. -1.
</event>
<event>
 7    1  0.2593256E-015  0.9000795E+02  0.7816164E-02  0.1186339E+00
        -11   -1    0    0    0    0  0.00000000000E+00  0.00000000000E+00  0.45593999997E+02  0.45594000000E+02  0.51100000000E-03 0. -1.
         11   -1    0    0    0    0 -0.00000000000E+00 -0.00000000000E+00 -0.45593999997E+02  0.45594000000E+02  0.51100000000E-03 0.  1.
    9900012    2    1    2    0    0  0.92522296992E+00 -0.73190267876E+00  0.28110219433E-01  0.90007953704E+02  0.90000217893E+02 0.  0.
        -12    1    1    2    0    0 -0.92522296992E+00  0.73190267876E+00 -0.28110219433E-01  0.11800462956E+01  0.00000000000E+00 0.  1.
         11    1    3    3    0    0  0.79331765220E+01 -0.39782067275E+02  0.37425245888E+00  0.40567083104E+02  0.51100000000E-03 0. -1.
        -11    1    3    3    0    0 -0.25054302024E+01 -0.45688656886E+01 -0.19424941373E+01  0.55610248978E+01  0.51100000000E-03 0.  1.
        -12    1    3    3    0    0 -0.45025233496E+01  0.43619030285E+02  0.15963518979E+01  0.43879845703E+02  0.00000000000E+00 0.  1.
</event>
<event>
 7    1  0.2593256E-015  0.9000799E+02  0.7816164E-02  0.1186339E+00
        -11   -1    0    0    0    0  0.00000000000E+00  0.00000000000E+00  0.45593999997E+02  0.45594000000E+02  0.51100000000E-03 0.  1.
         11   -1    0    0    0    0 -0.00000000000E+00 -0.00000000000E+00 -0.45593999997E+02  0.45594000000E+02  0.51100000000E-03 0. -1.
    9900012    2    1    2    0    0 -0.11419731779E+01  0.29698209239E+00  0.10681292071E-01  0.90007993563E+02  0.90000258277E+02 0.  0.
        -12    1    1    2    0    0  0.11419731779E+01 -0.29698209239E+00 -0.10681292071E-01  0.11800064374E+01  0.00000000000E+00 0.  1.
         11    1    3    3    0    0  0.47933248780E+01 -0.67231849316E+01 -0.39602987880E+01  0.91575731371E+01  0.51100000000E-03 0. -1.
        -11    1    3    3    0    0  0.30687141311E+02  0.17026604627E+02  0.19131727660E+02  0.39970350393E+02  0.51100000000E-03 0.  1.
         12    1    3    3    0    0 -0.36622439367E+02 -0.10006437603E+02 -0.15160747580E+02  0.40880070033E+02  0.00000000000E+00 0. -1.
</event>
<event>
 7    1  0.2593256E-015  0.9000776E+02  0.7816164E-02  0.1186339E+00
        -11   -1    0    0    0    0  0.00000000000E+00  0.00000000000E+00  0.45593999997E+02  0.45594000000E+02  0.51100000000E-03 0. -1.
         11   -1    0    0    0    0 -0.00000000000E+00 -0.00000000000E+00 -0.45593999997E+02  0.45594000000E+02  0.51100000000E-03 0.  1.
    9900012    2    1    2    0    0 -0.69023127014E+00 -0.91501561736E+00 -0.28161000193E+00  0.90007755542E+02  0.90000017116E+02 0.  0.
        -12    1    1    2    0    0  0.69023127014E+00  0.91501561736E+00  0.28161000193E+00  0.11802444575E+01  0.00000000000E+00 0.  1.
         11    1    3    3    0    0  0.57342766131E+01 -0.27317734814E+01 -0.10194145096E+02  0.12011041134E+02  0.51100000000E-03 0. -1.
        -11    1    3    3    0    0  0.17256668080E+02 -0.20253949274E+02  0.29842217603E+02  0.39982158598E+02  0.51100000000E-03 0.  1.
         12    1    3    3    0    0 -0.23681175964E+02  0.22070707138E+02 -0.19929682508E+02  0.38014555810E+02  0.00000000000E+00 0. -1.
</event>
<event>
 7    1  0.2593256E-015  0.9000769E+02  0.7816164E-02  0.1186339E+00
        -11   -1    0    0    0    0  0.00000000000E+00  0.00000000000E+00  0.45593999997E+02  0.45594000000E+02  0.51100000000E-03 0.  1.
         11   -1    0    0    0    0 -0.00000000000E+00 -0.00000000000E+00 -0.45593999997E+02  0.45594000000E+02  0.51100000000E-03 0. -1.
    9900012    2    1    2    0    0  0.89352616591E+00 -0.66634642094E+00 -0.38821866224E+00  0.90007694831E+02  0.89999955603E+02 0.  0.
        -12    1    1    2    0    0 -0.89352616591E+00  0.66634642094E+00  0.38821866224E+00  0.11803051688E+01  0.00000000000E+00 0.  1.
         11    1    3    3    0    0  0.83046690688E+01 -0.11427203963E+02  0.16853369776E+02  0.21990556878E+02  0.51100000000E-03 0. -1.
        -11    1    3    3    0    0  0.13574351211E+02 -0.17763358573E+02  0.88361392412E+01  0.24039078093E+02  0.51100000000E-03 0.  1.
         12    1    3    3    0    0 -0.20985494114E+02  0.28524216115E+02 -0.26077727679E+02  0.43978059860E+02  0.00000000000E+00 0. -1.
</event>
<event>
 7    1  0.2593256E-015  0.9000769E+02  0.7816164E-02  0.1186339E+00
        -11   -1    0    0    0    0  0.00000000000E+00  0.00000000000E+00  0.45593999997E+02  0.45594000000E+02  0.51100000000E-03 0.  1.
         11   -1    0    0    0    0 -0.00000000000E+00 -0.00000000000E+00 -0.45593999997E+02  0.45594000000E+02  0.51100000000E-03 0. -1.
    9900012    2    1    2    0    0  0.38508435389E+00 -0.86257813890E+00 -0.70767877461E+00  0.90007686375E+02  0.89999947035E+02 0.  0.
        -12    1    1    2    0    0 -0.38508435389E+00  0.86257813890E+00  0.70767877461E+00  0.11803136250E+01  0.00000000000E+00 0.  1.
         11    1    3    3    0    0  0.25770914343E+01  0.12299452083E+02 -0.35542907083E+02  0.37699020756E+02  0.51100000000E-03 0. -1.
        -11    1    3    3    0    0 -0.16543199419E+01 -0.79780297854E+01 -0.66378662433E+01  0.10509376873E+02  0.51100000000E-03 0.  1.
        -12    1    3    3    0    0 -0.53768713846E+00 -0.51840004363E+01  0.41473094552E+02  0.41799288746E+02  0.00000000000E+00 0.  1.
</event>
<event>
 7    1  0.2593256E-015  0.9000768E+02  0.7816164E-02  0.1186339E+00
        -11   -1    0    0    0    0  0.00000000000E+00  0.00000000000E+00  0.45593999997E+02  0.45594000000E+02  0.51100000000E-03 0. -1.
         11   -1    0    0    0    0 -0.00000000000E+00 -0.00000000000E+00 -0.45593999997E+02  0.45594000000E+02  0.51100000000E-03 0.  1.
    9900012    2    1    2    0    0  0.63314787979E+00 -0.29553402270E-01  0.99569150069E+00  0.90007681735E+02  0.89999942334E+02 0.  0.
        -12    1    1    2    0    0 -0.63314787979E+00  0.29553402270E-01 -0.99569150069E+00  0.11803182646E+01  0.00000000000E+00 0.  1.
         11    1    3    3    0    0 -0.33752318966E+01 -0.98618800702E+01 -0.17493473009E+01  0.10569251871E+02  0.51100000000E-03 0. -1.
        -11    1    3    3    0    0  0.13889028493E+02 -0.18458571614E+02 -0.28138438874E+02  0.36405984687E+02  0.51100000000E-03 0.  1.
         12    1    3    3    0    0 -0.98806487167E+01  0.28290898282E+02  0.30883477675E+02  0.43032445178E+02  0.00000000000E+00 0. -1.
</event>
<event>
 7    1  0.2593256E-015  0.9000777E+02  0.7816164E-02  0.1186339E+00
        -11   -1    0    0    0    0  0.00000000000E+00  0.00000000000E+00  0.45593999997E+02  0.45594000000E+02  0.51100000000E-03 0. -1.
         11   -1    0    0    0    0 -0.00000000000E+00 -0.00000000000E+00 -0.45593999997E+02  0.45594000000E+02  0.51100000000E-03 0.  1.
    9900012    2    1    2    0    0 -0.88773585164E+00 -0.20927004240E+00  0.74904365732E+00  0.90007773203E+02  0.90000035009E+02 0.  0.
        -12    1    1    2    0    0  0.88773585164E+00  0.20927004240E+00 -0.74904365732E+00  0.11802267975E+01  0.00000000000E+00 0.  1.
         11    1    3    3    0    0  0.71418096780E+01  0.23634525747E+01  0.47422076437E+01  0.88926872849E+01  0.51100000000E-03 0. -1.
        -11    1    3    3    0    0  0.33378423415E+02 -0.12341991352E+02 -0.12518094654E+02  0.37724615229E+02  0.51100000000E-03 0.  1.
         12    1    3    3    0    0 -0.41407968944E+02  0.97692687347E+01  0.85249306673E+01  0.43390470689E+02  0.00000000000E+00 0. -1.
</event>
<event>
 7    1  0.2593256E-015  0.9000767E+02  0.7816164E-02  0.1186339E+00
        -11   -1    0    0    0    0  0.00000000000E+00  0.00000000000E+00  0.45593999997E+02  0.45594000000E+02  0.51100000000E-03 0. -1.
         11   -1    0    0    0    0 -0.00000000000E+00 -0.00000000000E+00 -0.45593999997E+02  0.45594000000E+02  0.51100000000E-03 0.  1.
    9900012    2    1    2    0    0 -0.83522980596E+00  0.40954086115E+00 -0.72652967271E+00  0.90007670423E+02  0.89999930872E+02 0.  0.
        -12    1    1    2    0    0  0.83522980596E+00 -0.40954086115E+00  0.72652967271E+00  0.11803295773E+01  0.00000000000E+00 0.  1.
         11    1    3    3    0    0 -0.16487384085E+00 -0.85340977519E+01 -0.68188185943E+01  0.10924939135E+02  0.51100000000E-03 0. -1.
        -11    1    3    3    0    0 -0.25929044167E+02  0.29793939893E+02 -0.12491668534E+02  0.41425064500E+02  0.51100000000E-03 0.  1.
         12    1    3    3    0    0  0.25258688202E+02 -0.20850301280E+02  0.18583957456E+02  0.37657666788E+02  0.00000000000E+00 0. -1.
</event>
<event>
 7    1  0.2593256E-015  0.9000778E+02  0.7816164E-02  0.1186339E+00
        -11   -1    0    0    0    0  0.00000000000E+00  0.00000000000E+00  0.45593999997E+02  0.45594000000E+02  0.51100000000E-03 0.  1.
         11   -1    0    0    0    0 -0.00000000000E+00 -0.00000000000E+00 -0.45593999997E+02  0.45594000000E+02  0.51100000000E-03 0. -1.
    9900012    2    1    2    0    0  0.32936743922E+00 -0.10598298419E+01 -0.40148311582E+00  0.90007783538E+02  0.90000045481E+02 0.  0.
        -12    1    1    2    0    0 -0.32936743922E+00  0.10598298419E+01  0.40148311582E+00  0.11802164615E+01  0.00000000000E+00 0.  1.
         11    1    3    3    0    0 -0.83476168744E+01 -0.19251981944E+01 -0.27247745378E+01  0.89896324793E+01  0.51100000000E-03 0. -1.
        -11    1    3    3    0    0 -0.86584076526E+01  0.38449684062E+02 -0.15856983241E+01  0.39444399691E+02  0.51100000000E-03 0.  1.
         12    1    3    3    0    0  0.17335391966E+02 -0.37584315710E+02  0.39089897461E+01  0.41573751368E+02  0.00000000000E+00 0. -1.
</event>
<event>
 7    1  0.2593256E-015  0.9000775E+02  0.7816164E-02  0.1186339E+00
        -11   -1    0    0    0    0  0.00000000000E+00  0.00000000000E+00  0.45593999997E+02  0.45594000000E+02  0.51100000000E-03 0.  1.
         11   -1    0    0    0    0 -0.00000000000E+00 -0.00000000000E+00 -0.45593999997E+02  0.45594000000E+02  0.51100000000E-03 0. -1.
    9900012    2    1    2    0    0 -0.27581751930E+00  0.70218053771E+00 -0.90765971570E+00  0.90007754699E+02  0.90000016261E+02 0.  0.
        -12    1    1    2    0    0  0.27581751930E+00 -0.70218053771E+00  0.90765971570E+00  0.11802453012E+01  0.00000000000E+00 0.  1.
         11    1    3    3    0    0  0.92325127911E+01 -0.28308569334E+01 -0.26586086852E-02  0.96567619182E+01  0.51100000000E-03 0. -1.
        -11    1    3    3    0    0  0.16983771187E+02  0.33260292106E+02 -0.11627234304E+02  0.39113783920E+02  0.51100000000E-03 0.  1.
         12    1    3    3    0    0 -0.26492101497E+02 -0.29727254635E+02  0.10722233197E+02  0.41237208861E+02  0.00000000000E+00 0. -1.
</event>
<event>
 7    1  0.2593256E-015  0.9000777E+02  0.7816164E-02  0.1186339E+00
        -11   -1    0    0    0    0  0.00000000000E+00  0.00000000000E+00  0.45593999997E+02  0.45594000000E+02  0.51100000000E-03 0. -1.
         11   -1    0    0    0    0 -0.00000000000E+00 -0.00000000000E+00 -0.45593999997E+02  0.45594000000E+02  0.51100000000E-03 0.  1.
    9900012    2    1    2    0    0  0.54768395032E+00  0.98852690211E+00  0.34030083864E+00  0.90007767901E+02  0.90000029638E+02 0.  0.
        -12    1    1    2    0    0 -0.54768395032E+00 -0.98852690211E+00 -0.34030083864E+00  0.11802320985E+01  0.00000000000E+00 0.  1.
         11    1    3    3    0    0 -0.11035515094E-01  0.23528901660E+02  0.33135828603E+02  0.40639789278E+02  0.51100000000E-03 0. -1.
        -11    1    3    3    0    0 -0.47016084145E+01  0.59788251712E+01 -0.44316198958E+01  0.88028817596E+01  0.51100000000E-03 0.  1.
        -12    1    3    3    0    0  0.52603278799E+01 -0.28519199929E+02 -0.28363907868E+02  0.40565096864E+02  0.00000000000E+00 0.  1.
</event>
<event>
 7    1  0.2593256E-015  0.9000772E+02  0.7816164E-02  0.1186339E+00
        -11   -1    0    0    0    0  0.00000000000E+00  0.00000000000E+00  0.45593999997E+02  0.45594000000E+02  0.51100000000E-03 0. -1.
         11   -1    0    0    0    0 -0.00000000000E+00 -0.00000000000E+00 -0.45593999997E+02  0.45594000000E+02  0.51100000000E-03 0.  1.
    9900012    2    1    2    0    0 -0.74296403197E+00  0.49806385742E+00  0.77005793627E+00  0.90007723598E+02  0.89999984750E+02 0.  0.
        -12    1    1    2    0    0  0.74296403197E+00 -0.49806385742E+00 -0.77005793627E+00  0.11802764016E+01  0.00000000000E+00 0.  1.
         11    1    3    3    0    0  0.29682776018E+01 -0.78289797550E+01  0.18824598307E-01  0.83728101944E+01  0.51100000000E-03 0. -1.
        -11    1    3    3    0    0 -0.86636877616E+01 -0.27050034821E+02 -0.24806868444E+02  0.37711332404E+02  0.51100000000E-03 0.  1.
         12    1    3    3    0    0  0.49524461279E+01  0.35377078434E+02  0.25558101782E+02  0.43923581000E+02  0.00000000000E+00 0. -1.
</event>
<event>
 7    1  0.2593256E-015  0.9000770E+02  0.7816164E-02  0.1186339E+00
        -11   -1    0    0    0    0  0.00000000000E+00  0.00000000000E+00  0.45593999997E+02  0.45594000000E+02  0.51100000000E-03 0.  1.
         11   -1    0    0    0    0 -0.00000000000E+00 -0.00000000000E+00 -0.45593999997E+02  0.45594000000E+02  0.51100000000E-03 0. -1.
    9900012    2    1    2    0    0  0.65459147200E+00  0.87202928696E+00 -0.45187165940E+00  0.90007697891E+02  0.89999958703E+02 0.  0.
        -12    1    1    2    0    0 -0.65459147200E+00 -0.87202928696E+00  0.45187165940E+00  0.11803021093E+01  0.00000000000E+00 0.  1.
         11    1    3    3    0    0 -0.11938761517E+02 -0.12983195381E+02 -0.33586297746E+02  0.37935956366E+02  0.51100000000E-03 0. -1.
        -11    1    3    3    0    0 -0.96268547009E+01 -0.37487188262E+01  0.31330530638E+01  0.10795612351E+02  0.51100000000E-03 0.  1.
        -12    1    3    3    0    0  0.22220207690E+02  0.17603943494E+02  0.30001373023E+02  0.41276129174E+02  0.00000000000E+00 0.  1.
</event>
<event>
 7    1  0.2593256E-015  0.9000787E+02  0.7816164E-02  0.1186339E+00
        -11   -1    0    0    0    0  0.00000000000E+00  0.00000000000E+00  0.45593999997E+02  0.45594000000E+02  0.51100000000E-03 0.  1.
         11   -1    0    0    0    0 -0.00000000000E+00 -0.00000000000E+00 -0.45593999997E+02  0.45594000000E+02  0.51100000000E-03 0. -1.
    9900012    2    1    2    0    0 -0.40816716635E+00 -0.10959889298E+01  0.15782482513E+00  0.90007872530E+02  0.90000135647E+02 0.  0.
        -12    1    1    2    0    0  0.40816716635E+00  0.10959889298E+01 -0.15782482513E+00  0.11801274700E+01  0.00000000000E+00 0.  1.
         11    1    3    3    0    0 -0.33347553488E+02 -0.14127755612E+02  0.23411140069E+02  0.43124636599E+02  0.51100000000E-03 0. -1.
        -11    1    3    3    0    0  0.56929205419E+01 -0.53537607649E+01 -0.51352788556E+01  0.93511062345E+01  0.51100000000E-03 0.  1.
        -12    1    3    3    0    0  0.27246465779E+02  0.18385527447E+02 -0.18118036388E+02  0.37532129696E+02  0.00000000000E+00 0.  1.
</event>
<event>
 7    1  0.2593256E-015  0.9000780E+02  0.7816164E-02  0.1186339E+00
        -11   -1    0    0    0    0  0.00000000000E+00  0.00000000000E+00  0.45593999997E+02  0.45594000000E+02  0.51100000000E-03 0.  1.
         11   -1    0    0    0    0 -0.00000000000E+00 -0.00000000000E+00 -0.45593999997E+02  0.45594000000E+02  0.51100000000E-03 0. -1.
    9900012    2    1    2    0    0  0.66221800919E+00  0.39894230738E+00 -0.89173568136E+00  0.90007796551E+02  0.90000058665E+02 0.  0.
        -12    1    1    2    0    0 -0.66221800919E+00 -0.39894230738E+00  0.89173568136E+00  0.11802034493E+01  0.00000000000E+00 0.  1.
         11    1    3    3    0    0 -0.88554895139E+01 -0.32250534666E+01 -0.19515686239E+01  0.96244108780E+01  0.51100000000E-03 0. -1.
        -11    1    3    3    0    0 -0.32219996962E+02  0.32505291815E+01  0.15910268950E+02  0.36080892485E+02  0.51100000000E-03 0.  1.
         12    1    3    3    0    0  0.41737704486E+02  0.37346659240E+00 -0.14850436007E+02  0.44302493187E+02  0.00000000000E+00 0. -1.
</event>
<event>
 7    1  0.2593256E-015  0.9000778E+02  0.7816164E-02  0.1186339E+00
        -11   -1    0    0    0    0  0.00000000000E+00  0.00000000000E+00  0.45593999997E+02  0.45594000000E+02  0.51100000000E-03 0.  1.
         11   -1    0    0    0    0 -0.00000000000E+00 -0.00000000000E+00 -0.45593999997E+02  0.45594000000E+02  0.51100000000E-03 0. -1.
    9900012    2    1    2    0    0 -0.26588581135E+00  0.68409101121E+00 -0.92424735417E+00  0.90007784364E+02  0.90000046317E+02 0.  0.
        -12    1    1    2    0    0  0.26588581135E+00 -0.68409101121E+00  0.92424735417E+00  0.11802156362E+01  0.00000000000E+00 0.  1.
         11    1    3    3    0    0 -0.63407744564E+01 -0.64131561809E+01  0.46302226982E+01  0.10137699710E+02  0.51100000000E-03 0. -1.
        -11    1    3    3    0    0 -0.17047628110E+02 -0.30841084217E+02 -0.18859235208E+01  0.35289528300E+02  0.51100000000E-03 0.  1.
         12    1    3    3    0    0  0.23122516755E+02  0.37938331409E+02 -0.36685465316E+01  0.44580556354E+02  0.00000000000E+00 0. -1.
</event>
<event>
 7    1  0.2593256E-015  0.9000758E+02  0.7816164E-02  0.1186339E+00
        -11   -1    0    0    0    0  0.00000000000E+00  0.00000000000E+00  0.45593999997E+02  0.45594000000E+02  0.51100000000E-03 0.  1.
         11   -1    0    0    0    0 -0.00000000000E+00 -0.00000000000E+00 -0.45593999997E+02  0.45594000000E+02  0.51100000000E-03 0. -1.
    9900012    2    1    2    0    0  0.62515726965E+00 -0.32621791823E+00 -0.94664678418E+00  0.90007584871E+02  0.89999844192E+02 0.  0.
        -12    1    1    2    0    0 -0.62515726965E+00  0.32621791823E+00  0.94664678418E+00  0.11804151287E+01  0.00000000000E+00 0.  1.
         11    1    3    3    0    0 -0.73081159603E+01  0.98627034998E+01  0.12907042555E+02  0.17812165141E+02  0.51100000000E-03 0. -1.
        -11    1    3    3    0    0  0.28825249174E+02  0.55324349571E+01  0.15245937860E+02  0.33074785683E+02  0.51100000000E-03 0.  1.
         12    1    3    3    0    0 -0.20891975944E+02 -0.15721356375E+02 -0.29099627200E+02  0.39120634047E+02  0.00000000000E+00 0. -1.
</event>
<event>
 7    1  0.2593256E-015  0.9000778E+02  0.7816164E-02  0.1186339E+00
        -11   -1    0    0    0    0  0.00000000000E+00  0.00000000000E+00  0.45593999997E+02  0.45594000000E+02  0.51100000000E-03 0.  1.
         11   -1    0    0    0    0 -0.00000000000E+00 -0.00000000000E+00 -0.45593999997E+02  0.45594000000E+02  0.51100000000E-03 0. -1.
    9900012    2    1    2    0    0  0.17047442646E+00 -0.11236874141E+00 -0.11624226938E+01  0.90007781892E+02  0.90000043813E+02 0.  0.
        -12    1    1    2    0    0 -0.17047442646E+00  0.11236874141E+00  0.11624226938E+01  0.11802181083E+01  0.00000000000E+00 0.  1.
         11    1    3    3    0    0 -0.49895414085E+01  0.20305293504E+01  0.11690553683E+02  0.12871970268E+02  0.51100000000E-03 0. -1.
        -11    1    3    3    0    0  0.88212464157E+01  0.19290216978E+02  0.25426193423E+02  0.33112205780E+02  0.51100000000E-03 0.  1.
         12    1    3    3    0    0 -0.36612305807E+01 -0.21433115069E+02 -0.38279169800E+02  0.44023605844E+02  0.00000000000E+00 0. -1.
</event>
<event>
 7    1  0.2593256E-015  0.9000767E+02  0.7816164E-02  0.1186339E+00
        -11   -1    0    0    0    0  0.00000000000E+00  0.00000000000E+00  0.45593999997E+02  0.45594000000E+02  0.51100000000E-03 0. -1.
         11   -1    0    0    0    0 -0.00000000000E+00 -0.00000000000E+00 -0.45593999997E+02  0.45594000000E+02  0.51100000000E-03 0.  1.
    9900012    2    1    2    0    0 -0.39235258430E+00  0.10707733754E+01  0.30443744132E+00  0.90007670246E+02  0.89999930694E+02 0.  0.
        -12    1    1    2    0    0  0.39235258430E+00 -0.10707733754E+01 -0.30443744132E+00  0.11803297537E+01  0.00000000000E+00 0.  1.
         11    1    3    3    0    0  0.11780940473E+02  0.28072065986E+02 -0.22456687878E+02  0.37830335418E+02  0.51100000000E-03 0. -1.
        -11    1    3    3    0    0 -0.92371606592E+01  0.49734309526E+01 -0.31102057597E+01  0.10942281874E+02  0.51100000000E-03 0.  1.
        -12    1    3    3    0    0 -0.29361323983E+01 -0.31974723563E+02  0.25871331079E+02  0.41235052954E+02  0.00000000000E+00 0.  1.
</event>
<event>
 7    1  0.2593256E-015  0.9000776E+02  0.7816164E-02  0.1186339E+00
        -11   -1    0    0    0    0  0.00000000000E+00  0.00000000000E+00  0.45593999997E+02  0.45594000000E+02  0.51100000000E-03 0.  1.
         11   -1    0    0    0    0 -0.00000000000E+00 -0.00000000000E+00 -0.45593999997E+02  0.45594000000E+02  0.51100000000E-03 0. -1.
    9900012    2    1    2    0    0 -0.89153676412E+00  0.64783374919E+00 -0.42243397259E+00  0.90007755606E+02  0.90000017180E+02 0.  0.
        -12    1    1    2    0    0  0.89153676412E+00 -0.64783374919E+00  0.42243397259E+00  0.11802443940E+01  0.00000000000E+00 0.  1.
         11    1    3    3    0    0 -0.54428787747E+01 -0.31504573453E+00  0.74200177973E+01  0.92076515759E+01  0.51100000000E-03 0. -1.
        -11    1    3    3    0    0 -0.98869893538E+01  0.23330004534E+02  0.26949679590E+02  0.36990902940E+02  0.51100000000E-03 0.  1.
         12    1    3    3    0    0  0.14438331364E+02 -0.22367125050E+02 -0.34792131360E+02  0.43809201090E+02  0.00000000000E+00 0. -1.
</event>
<event>
 7    1  0.2593256E-015  0.9000771E+02  0.7816164E-02  0.1186339E+00
        -11   -1    0    0    0    0  0.00000000000E+00  0.00000000000E+00  0.45593999997E+02  0.45594000000E+02  0.51100000000E-03 0.  1.
         11   -1    0    0    0    0 -0.00000000000E+00 -0.00000000000E+00 -0.45593999997E+02  0.45594000000E+02  0.51100000000E-03 0. -1.
    9900012    2    1    2    0    0  0.11665332669E+01 -0.16756075945E+00  0.64828667950E-01  0.90007712227E+02  0.89999973228E+02 0.  0.
        -12    1    1    2    0    0 -0.11665332669E+01  0.16756075945E+00 -0.64828667950E-01  0.11802877730E+01  0.00000000000E+00 0.  1.
         11    1    3    3    0    0 -0.98873996959E+01  0.52280770415E+01  0.88874189740E+01  0.14285645893E+02  0.51100000000E-03 0. -1.
        -11    1    3    3    0    0  0.34005446316E+02  0.13769033887E+02  0.12763039713E+02  0.38843942338E+02  0.51100000000E-03 0.  1.
         12    1    3    3    0    0 -0.22951513353E+02 -0.19164671688E+02 -0.21585630020E+02  0.36878123996E+02  0.00000000000E+00 0. -1.
</event>
<event>
 7    1  0.2593256E-015  0.9000748E+02  0.7816164E-02  0.1186340E+00
        -11   -1    0    0    0    0  0.00000000000E+00  0.00000000000E+00  0.45593999997E+02  0.45594000000E+02  0.51100000000E-03 0.  1.
         11   -1    0    0    0    0 -0.00000000000E+00 -0.00000000000E+00 -0.45593999997E+02  0.45594000000E+02  0.51100000000E-03 0. -1.
    9900012    2    1    2    0    0  0.24448813792E+00  0.10253393641E+01 -0.53153504691E+00  0.90007481145E+02  0.89999739096E+02 0.  0.
        -12    1    1    2    0    0 -0.24448813792E+00 -0.10253393641E+01  0.53153504691E+00  0.11805188551E+01  0.00000000000E+00 0.  1.
         11    1    3    3    0    0 -0.51738794362E+01 -0.81161301548E+01 -0.38039138598E+01  0.10349413414E+02  0.51100000000E-03 0. -1.
        -11    1    3    3    0    0  0.32574145965E+02 -0.14294704987E+02 -0.15923811718E+02  0.38974111355E+02  0.51100000000E-03 0.  1.
         12    1    3    3    0    0 -0.27155778391E+02  0.23436174506E+02  0.19196190531E+02  0.40683956376E+02  0.00000000000E+00 0. -1.
</event>
<event>
 7    1  0.2593256E-015  0.9000788E+02  0.7816164E-02  0.1186339E+00
        -11   -1    0    0    0    0  0.00000000000E+00  0.00000000000E+00  0.45593999997E+02  0.45594000000E+02  0.51100000000E-03 0.  1.
         11   -1    0    0    0    0 -0.00000000000E+00 -0.00000000000E+00 -0.45593999997E+02  0.45594000000E+02  0.51100000000E-03 0. -1.
    9900012    2    1    2    0    0  0.99452017139E+00 -0.36661246547E+00 -0.51886280660E+00  0.90007875565E+02  0.90000138722E+02 0.  0.
        -12    1    1    2    0    0 -0.99452017139E+00  0.36661246547E+00  0.51886280660E+00  0.11801244355E+01  0.00000000000E+00 0.  1.
         11    1    3    3    0    0 -0.41416597763E+00  0.30740630454E+01 -0.37638982922E+02  0.37766578250E+02  0.51100000000E-03 0. -1.
        -11    1    3    3    0    0 -0.15972635401E+01  0.14292167314E+02  0.46352556640E+01  0.15109695320E+02  0.51100000000E-03 0.  1.
         12    1    3    3    0    0  0.30059496891E+01 -0.17732842825E+02  0.32484864452E+02  0.37131601994E+02  0.00000000000E+00 0. -1.
</event>
<event>
 7    1  0.2593256E-015  0.9000815E+02  0.7816164E-02  0.1186338E+00
        -11   -1    0    0    0    0  0.00000000000E+00  0.00000000000E+00  0.45593999997E+02  0.45594000000E+02  0.51100000000E-03 0. -1.
         11   -1    0    0    0    0 -0.00000000000E+00 -0.00000000000E+00 -0.45593999997E+02  0.45594000000E+02  0.51100000000E-03 0.  1.
    9900012    2    1    2    0    0  0.45680038166E-01 -0.85135162029E+00  0.81557096770E+00  0.90008151598E+02  0.90000418399E+02 0.  0.
        -12    1    1    2    0    0 -0.45680038166E-01  0.85135162029E+00 -0.81557096770E+00  0.11798484015E+01  0.00000000000E+00 0.  1.
         11    1    3    3    0    0  0.15634301533E+01  0.75693822985E+01  0.41738272486E+02  0.42447888670E+02  0.51100000000E-03 0. -1.
        -11    1    3    3    0    0  0.62982785395E+01  0.34388042135E+01 -0.45101166821E+01  0.84755436243E+01  0.51100000000E-03 0.  1.
        -12    1    3    3    0    0 -0.78160286546E+01 -0.11859538132E+02 -0.36412584836E+02  0.39084719304E+02  0.00000000000E+00 0.  1.
</event>
<event>
 7    1  0.2593256E-015  0.9000771E+02  0.7816164E-02  0.1186339E+00
        -11   -1    0    0    0    0  0.00000000000E+00  0.00000000000E+00  0.45593999997E+02  0.45594000000E+02  0.51100000000E-03 0. -1.
         11   -1    0    0    0    0 -0.00000000000E+00 -0.00000000000E+00 -0.45593999997E+02  0.45594000000E+02  0.51100000000E-03 0.  1.
    9900012    2    1    2    0    0 -0.66348526836E+00 -0.78922377389E+00  0.57445653166E+00  0.90007708861E+02  0.89999969818E+02 0.  0.
        -12    1    1    2    0    0  0.66348526836E+00  0.78922377389E+00 -0.57445653166E+00  0.11802911392E+01  0.00000000000E+00 0.  1.
         11    1    3    3    0    0  0.23602498014E+01 -0.30817120899E+02  0.29297579572E+02  0.42586545864E+02  0.51100000000E-03 0. -1.
        -11    1    3    3    0    0 -0.49782911761E+00  0.16456761119E+02 -0.10519334208E+01  0.16497859999E+02  0.51100000000E-03 0.  1.
        -12    1    3    3    0    0 -0.25259059521E+01  0.13571136005E+02 -0.27671189619E+02  0.30923302998E+02  0.00000000000E+00 0.  1.
</event>
<event>
 7    1  0.2593256E-015  0.9000777E+02  0.7816164E-02  0.1186339E+00
        -11   -1    0    0    0    0  0.00000000000E+00  0.00000000000E+00  0.45593999997E+02  0.45594000000E+02  0.51100000000E-03 0. -1.
         11   -1    0    0    0    0 -0.00000000000E+00 -0.00000000000E+00 -0.45593999997E+02  0.45594000000E+02  0.51100000000E-03 0.  1.
    9900012    2    1    2    0    0 -0.97987871910E+00  0.41665395879E-01  0.65654558262E+00  0.90007766798E+02  0.90000028520E+02 0.  0.
        -12    1    1    2    0    0  0.97987871910E+00 -0.41665395879E-01 -0.65654558262E+00  0.11802332021E+01  0.00000000000E+00 0.  1.
         11    1    3    3    0    0  0.49317916767E+01 -0.14651138958E+01 -0.86194749152E+01  0.10038151022E+02  0.51100000000E-03 0. -1.
        -11    1    3    3    0    0  0.21248629858E+02 -0.11701483443E+02  0.33425489783E+02  0.41300028487E+02  0.51100000000E-03 0.  1.
         12    1    3    3    0    0 -0.27160300253E+02  0.13208262734E+02 -0.24149469285E+02  0.38669587288E+02  0.00000000000E+00 0. -1.
</event>
<event>
 7    1  0.2593256E-015  0.9000776E+02  0.7816164E-02  0.1186339E+00
        -11   -1    0    0    0    0  0.00000000000E+00  0.00000000000E+00  0.45593999997E+02  0.45594000000E+02  0.51100000000E-03 0. -1.
         11   -1    0    0    0    0 -0.00000000000E+00 -0.00000000000E+00 -0.45593999997E+02  0.45594000000E+02  0.51100000000E-03 0.  1.
    9900012    2    1    2    0    0  0.32791292741E+00  0.29687165309E+00  0.10942131803E+01  0.90007761825E+02  0.90000023481E+02 0.  0.
        -12    1    1    2    0    0 -0.32791292741E+00 -0.29687165309E+00 -0.10942131803E+01  0.11802381753E+01  0.00000000000E+00 0.  1.
         11    1    3    3    0    0 -0.15978613400E+01 -0.61859742240E+01  0.34503128347E+01  0.72611360599E+01  0.51100000000E-03 0. -1.
        -11    1    3    3    0    0  0.47548381300E+01  0.47587425540E+00 -0.42141197127E+02  0.42411265455E+02  0.51100000000E-03 0.  1.
         12    1    3    3    0    0 -0.28290638626E+01  0.60069716217E+01  0.39785097473E+02  0.40335360310E+02  0.00000000000E+00 0. -1.
</event>
<event>
 7    1  0.2593256E-015  0.9000773E+02  0.7816164E-02  0.1186339E+00
        -11   -1    0    0    0    0  0.00000000000E+00  0.00000000000E+00  0.45593999997E+02  0.45594000000E+02  0.51100000000E-03 0.  1.
         11   -1    0    0    0    0 -0.00000000000E+00 -0.00000000000E+00 -0.45593999997E+02  0.45594000000E+02  0.51100000000E-03 0. -1.
    9900012    2    1    2    0    0  0.60468620152E+00 -0.55392359551E+00 -0.84885654587E+00  0.90007731307E+02  0.89999992560E+02 0.  0.
        -12    1    1    2    0    0 -0.60468620152E+00  0.55392359551E+00  0.84885654587E+00  0.11802686929E+01  0.00000000000E+00 0.  1.
         11    1    3    3    0    0 -0.16462742647E+02  0.30521924210E+02 -0.69965809507E+01  0.35377420740E+02  0.51100000000E-03 0. -1.
        -11    1    3    3    0    0  0.43639944005E+00  0.77538538295E+01 -0.69323718318E+01  0.10410113984E+02  0.51100000000E-03 0.  1.
        -12    1    3    3    0    0  0.16631029409E+02 -0.38829701635E+02  0.13080096237E+02  0.44220196583E+02  0.00000000000E+00 0.  1.
</event>
<event>
 7    1  0.2593256E-015  0.9000770E+02  0.7816164E-02  0.1186339E+00
        -11   -1    0    0    0    0  0.00000000000E+00  0.00000000000E+00  0.45593999997E+02  0.45594000000E+02  0.51100000000E-03 0.  1.
         11   -1    0    0    0    0 -0.00000000000E+00 -0.00000000000E+00 -0.45593999997E+02  0.45594000000E+02  0.51100000000E-03 0. -1.
    9900012    2    1    2    0    0  0.52783062556E+00  0.10540018183E+01 -0.59922429782E-01  0.90007696776E+02  0.89999957574E+02 0.  0.
        -12    1    1    2    0    0 -0.52783062556E+00 -0.10540018183E+01  0.59922429782E-01  0.11803032237E+01  0.00000000000E+00 0.  1.
         11    1    3    3    0    0  0.17493142047E+02  0.13413512038E+02 -0.30210486729E+02  0.37397938881E+02  0.51100000000E-03 0. -1.
        -11    1    3    3    0    0  0.95836196890E+00  0.84326816363E+01 -0.35018009353E+01  0.91810232161E+01  0.51100000000E-03 0.  1.
        -12    1    3    3    0    0 -0.17923673391E+02 -0.20792191856E+02  0.33652365234E+02  0.43428734679E+02  0.00000000000E+00 0.  1.
</event>
<event>
 7    1  0.2593256E-015  0.9000773E+02  0.7816164E-02  0.1186339E+00
        -11   -1    0    0    0    0  0.00000000000E+00  0.00000000000E+00  0.45593999997E+02  0.45594000000E+02  0.51100000000E-03 0.  1.
         11   -1    0    0    0    0 -0.00000000000E+00 -0.00000000000E+00 -0.45593999997E+02  0.45594000000E+02  0.51100000000E-03 0. -1.
    9900012    2    1    2    0    0  0.97200430784E+00 -0.66950034294E+00  0.37436885925E-02  0.90007730074E+02  0.89999991311E+02 0.  0.
        -12    1    1    2    0    0 -0.97200430784E+00  0.66950034294E+00 -0.37436885925E-02  0.11802699263E+01  0.00000000000E+00 0.  1.
         11    1    3    3    0    0  0.27076995625E+01  0.21183036973E+01  0.64431594026E+01  0.73029549378E+01  0.51100000000E-03 0. -1.
        -11    1    3    3    0    0 -0.13259203887E+02  0.30057400158E+01  0.35929716184E+02  0.38415953276E+02  0.51100000000E-03 0.  1.
         12    1    3    3    0    0  0.11523508633E+02 -0.57935440561E+01 -0.42369131898E+02  0.44288821860E+02  0.00000000000E+00 0. -1.
</event>
<event>
 7    1  0.2593256E-015  0.9000775E+02  0.7816164E-02  0.1186339E+00
        -11   -1    0    0    0    0  0.00000000000E+00  0.00000000000E+00  0.45593999997E+02  0.45594000000E+02  0.51100000000E-03 0. -1.
         11   -1    0    0    0    0 -0.00000000000E+00 -0.00000000000E+00 -0.45593999997E+02  0.45594000000E+02  0.51100000000E-03 0.  1.
    9900012    2    1    2    0    0 -0.33625942396E+00  0.91737703310E+00  0.66206824119E+00  0.90007751985E+02  0.90000013511E+02 0.  0.
        -12    1    1    2    0    0  0.33625942396E+00 -0.91737703310E+00 -0.66206824119E+00  0.11802480151E+01  0.00000000000E+00 0.  1.
         11    1    3    3    0    0  0.18110768652E+02 -0.44819666338E+01  0.37235452726E+02  0.41648132084E+02  0.51100000000E-03 0. -1.
        -11    1    3    3    0    0  0.22258210929E+01 -0.71243597307E+01 -0.89907830087E+01  0.11685245418E+02  0.51100000000E-03 0.  1.
        -12    1    3    3    0    0 -0.20672849169E+02  0.12523703398E+02 -0.27582601476E+02  0.36674374483E+02  0.00000000000E+00 0.  1.
</event>
<event>
 7    1  0.2593256E-015  0.9000776E+02  0.7816164E-02  0.1186339E+00
        -11   -1    0    0    0    0  0.00000000000E+00  0.00000000000E+00  0.45593999997E+02  0.45594000000E+02  0.51100000000E-03 0. -1.
         11   -1    0    0    0    0 -0.00000000000E+00 -0.00000000000E+00 -0.45593999997E+02  0.45594000000E+02  0.51100000000E-03 0.  1.
    9900012    2    1    2    0    0 -0.41919700421E-01  0.10103299257E+01 -0.60863703836E+00  0.90007761522E+02  0.90000023174E+02 0.  0.
        -12    1    1    2    0    0  0.41919700421E-01 -0.10103299257E+01  0.60863703836E+00  0.11802384778E+01  0.00000000000E+00 0.  1.
         11    1    3    3    0    0 -0.38741789056E+01  0.49061219687E+01 -0.86687239297E+01  0.10687659697E+02  0.51100000000E-03 0. -1.
        -11    1    3    3    0    0 -0.15338114956E+02 -0.28956321752E+02 -0.18892011455E+02  0.37823728490E+02  0.51100000000E-03 0.  1.
         12    1    3    3    0    0  0.19170374161E+02  0.25060529709E+02  0.26952098346E+02  0.41496373336E+02  0.00000000000E+00 0. -1.
</event>
<event>
 7    1  0.2593256E-015  0.9000773E+02  0.7816164E-02  0.1186339E+00
        -11   -1    0    0    0    0  0.00000000000E+00  0.00000000000E+00  0.45593999997E+02  0.45594000000E+02  0.51100000000E-03 0.  1.
         11   -1    0    0    0    0 -0.00000000000E+00 -0.00000000000E+00 -0.45593999997E+02  0.45594000000E+02  0.51100000000E-03 0. -1.
    9900012    2    1    2    0    0  0.32206637231E+00  0.31302705260E+00 -0.10914743675E+01  0.90007733514E+02  0.89999994796E+02 0.  0.
        -12    1    1    2    0    0 -0.32206637231E+00 -0.31302705260E+00  0.10914743675E+01  0.11802664864E+01  0.00000000000E+00 0.  1.
         11    1    3    3    0    0  0.72347858798E+01 -0.51094739989E+01  0.76403817096E+00  0.88900284510E+01  0.51100000000E-03 0. -1.
        -11    1    3    3    0    0  0.34899365529E+02  0.15049368083E+02  0.18578391432E+01  0.38051291181E+02  0.51100000000E-03 0.  1.
         12    1    3    3    0    0 -0.41812085036E+02 -0.96268670311E+01 -0.37133516817E+01  0.43066413882E+02  0.00000000000E+00 0. -1.
</event>
<event>
 7    1  0.2593256E-015  0.9000775E+02  0.7816164E-02  0.1186339E+00
        -11   -1    0    0    0    0  0.00000000000E+00  0.00000000000E+00  0.45593999997E+02  0.45594000000E+02  0.51100000000E-03 0. -1.
         11   -1    0    0    0    0 -0.00000000000E+00 -0.00000000000E+00 -0.45593999997E+02  0.45594000000E+02  0.51100000000E-03 0.  1.
    9900012    2    1    2    0    0  0.84206703717E+00 -0.71967711965E+00  0.40740530065E+00  0.90007749547E+02  0.90000011042E+02 0.  0.
        -12    1    1    2    0    0 -0.84206703717E+00  0.71967711965E+00 -0.40740530065E+00  0.11802504525E+01  0.00000000000E+00 0.  1.
         11    1    3    3    0    0 -0.33591287200E+02  0.56707075403E+01  0.84864125107E+01  0.35107701396E+02  0.51100000000E-03 0. -1.
        -11    1    3    3    0    0 -0.24800923179E+01  0.28096446927E+01  0.11513856425E+02  0.12108420674E+02  0.51100000000E-03 0.  1.
        -12    1    3    3    0    0  0.36913446555E+02 -0.92000293526E+01 -0.19592863635E+02  0.42791627477E+02  0.00000000000E+00 0.  1.
</event>
<event>
 7    1  0.2593256E-015  0.9000772E+02  0.7816164E-02  0.1186339E+00
        -11   -1    0    0    0    0  0.00000000000E+00  0.00000000000E+00  0.45593999997E+02  0.45594000000E+02  0.51100000000E-03 0.  1.
         11   -1    0    0    0    0 -0.00000000000E+00 -0.00000000000E+00 -0.45593999997E+02  0.45594000000E+02  0.51100000000E-03 0. -1.
    9900012    2    1    2    0    0  0.10317921281E+01  0.54150113978E+00  0.18772556732E+00  0.90007720640E+02  0.89999981752E+02 0.  0.
        -12    1    1    2    0    0 -0.10317921281E+01 -0.54150113978E+00 -0.18772556732E+00  0.11802793604E+01  0.00000000000E+00 0.  1.
         11    1    3    3    0    0 -0.12661774885E+01 -0.23477388255E+02 -0.23265012360E+02  0.33076453332E+02  0.51100000000E-03 0.  1.
        -11    1    3    3    0    0  0.20375002962E+02  0.13547460086E+01  0.13285435784E+01  0.20463164730E+02  0.51100000000E-03 0. -1.
        -12    1    3    3    0    0 -0.18077033346E+02  0.22664143386E+02  0.22124194349E+02  0.36468102577E+02  0.00000000000E+00 0.  1.
</event>
<event>
 7    1  0.2593256E-015  0.9000774E+02  0.7816164E-02  0.1186339E+00
        -11   -1    0    0    0    0  0.00000000000E+00  0.00000000000E+00  0.45593999997E+02  0.45594000000E+02  0.51100000000E-03 0.  1.
         11   -1    0    0    0    0 -0.00000000000E+00 -0.00000000000E+00 -0.45593999997E+02  0.45594000000E+02  0.51100000000E-03 0. -1.
    9900012    2    1    2    0    0  0.11415792796E+01  0.13950193444E+00 -0.26521819353E+00  0.90007743786E+02  0.90000005204E+02 0.  0.
        -12    1    1    2    0    0 -0.11415792796E+01 -0.13950193444E+00  0.26521819353E+00  0.11802562144E+01  0.00000000000E+00 0.  1.
         11    1    3    3    0    0 -0.89236563799E+01 -0.26576703843E+02  0.28513027520E+02  0.39986817440E+02  0.51100000000E-03 0. -1.
        -11    1    3    3    0    0 -0.82353619705E+01 -0.32937752442E+00 -0.52443903486E+01  0.97689972222E+01  0.51100000000E-03 0.  1.
        -12    1    3    3    0    0  0.18300597630E+02  0.27045583302E+02 -0.23533855365E+02  0.40251929123E+02  0.00000000000E+00 0.  1.
</event>
<event>
 7    1  0.2593256E-015  0.9000758E+02  0.7816164E-02  0.1186339E+00
        -11   -1    0    0    0    0  0.00000000000E+00  0.00000000000E+00  0.45593999997E+02  0.45594000000E+02  0.51100000000E-03 0. -1.
         11   -1    0    0    0    0 -0.00000000000E+00 -0.00000000000E+00 -0.45593999997E+02  0.45594000000E+02  0.51100000000E-03 0.  1.
    9900012    2    1    2    0    0  0.10600651674E+01  0.48684624818E+00  0.18064581929E+00  0.90007580439E+02  0.89999839700E+02 0.  0.
        -12    1    1    2    0    0 -0.10600651674E+01 -0.48684624818E+00 -0.18064581929E+00  0.11804195612E+01  0.00000000000E+00 0.  1.
         11    1    3    3    0    0  0.17481708449E+01  0.16106464524E+02 -0.10242989642E+02  0.19167502128E+02  0.51100000000E-03 0. -1.
        -11    1    3    3    0    0  0.41781610611E+01 -0.17681740094E+02 -0.27275232887E+02  0.32772538685E+02  0.51100000000E-03 0.  1.
         12    1    3    3    0    0 -0.48662667387E+01  0.20621218181E+01  0.37698868348E+02  0.38067539625E+02  0.00000000000E+00 0. -1.
</event>
<event>
 7    1  0.2593256E-015  0.9000772E+02  0.7816164E-02  0.1186339E+00
        -11   -1    0    0    0    0  0.00000000000E+00  0.00000000000E+00  0.45593999997E+02  0.45594000000E+02  0.51100000000E-03 0.  1.
         11   -1    0    0    0    0 -0.00000000000E+00 -0.00000000000E+00 -0.45593999997E+02  0.45594000000E+02  0.51100000000E-03 0. -1.
    9900012    2    1    2    0    0 -0.30207854409E-01 -0.10445316805E+01 -0.54871777902E+00  0.90007724546E+02  0.89999985710E+02 0.  0.
        -12    1    1    2    0    0  0.30207854409E-01  0.10445316805E+01  0.54871777902E+00  0.11802754539E+01  0.00000000000E+00 0.  1.
         11    1    3    3    0    0 -0.14134955608E+02  0.31253438986E+02 -0.18179973396E+02  0.38821203632E+02  0.51100000000E-03 0. -1.
        -11    1    3    3    0    0 -0.13937434155E+01 -0.42884518786E+01 -0.86591068381E+01  0.97628618610E+01  0.51100000000E-03 0.  1.
        -12    1    3    3    0    0  0.15498491169E+02 -0.28009518788E+02  0.26290362455E+02  0.41423659053E+02  0.00000000000E+00 0.  1.
</event>
<event>
 7    1  0.2593256E-015  0.9000775E+02  0.7816164E-02  0.1186339E+00
        -11   -1    0    0    0    0  0.00000000000E+00  0.00000000000E+00  0.45593999997E+02  0.45594000000E+02  0.51100000000E-03 0.  1.
         11   -1    0    0    0    0 -0.00000000000E+00 -0.00000000000E+00 -0.45593999997E+02  0.45594000000E+02  0.51100000000E-03 0. -1.
    9900012    2    1    2    0    0 -0.34407649030E+00  0.11215569896E+01 -0.12928914700E+00  0.90007748164E+02  0.90000009640E+02 0.  0.
        -12    1    1    2    0    0  0.34407649030E+00 -0.11215569896E+01  0.12928914700E+00  0.11802518357E+01  0.00000000000E+00 0.  1.
         11    1    3    3    0    0  0.30350850616E+02 -0.16016633077E+02  0.15004834822E+02  0.37454662414E+02  0.51100000000E-03 0. -1.
        -11    1    3    3    0    0 -0.11612834503E+01 -0.96768897148E+01  0.37453969634E+00  0.97535149587E+01  0.51100000000E-03 0.  1.
        -12    1    3    3    0    0 -0.29533643656E+02  0.26815079781E+02 -0.15508663666E+02  0.42799570792E+02  0.00000000000E+00 0.  1.
</event>
<event>
 7    1  0.2593256E-015  0.9000771E+02  0.7816164E-02  0.1186339E+00
        -11   -1    0    0    0    0  0.00000000000E+00  0.00000000000E+00  0.45593999997E+02  0.45594000000E+02  0.51100000000E-03 0.  1.
         11   -1    0    0    0    0 -0.00000000000E+00 -0.00000000000E+00 -0.45593999997E+02  0.45594000000E+02  0.51100000000E-03 0. -1.
    9900012    2    1    2    0    0 -0.62914710422E+00  0.63074243702E+00 -0.77422697275E+00  0.90007707873E+02  0.89999968817E+02 0.  0.
        -12    1    1    2    0    0  0.62914710422E+00 -0.63074243702E+00  0.77422697275E+00  0.11802921274E+01  0.00000000000E+00 0.  1.
         11    1    3    3    0    0 -0.28240183866E+02 -0.12540805558E+02 -0.16743135505E+02  0.35144165599E+02  0.51100000000E-03 0. -1.
        -11    1    3    3    0    0 -0.10285784071E+02  0.89413005113E+00 -0.29862420757E+01  0.10747765559E+02  0.51100000000E-03 0.  1.
        -12    1    3    3    0    0  0.37896820833E+02  0.12277417944E+02  0.18955150608E+02  0.44115776715E+02  0.00000000000E+00 0.  1.
</event>
<event>
 7    1  0.2593256E-015  0.9000780E+02  0.7816164E-02  0.1186339E+00
        -11   -1    0    0    0    0  0.00000000000E+00  0.00000000000E+00  0.45593999997E+02  0.45594000000E+02  0.51100000000E-03 0. -1.
         11   -1    0    0    0    0 -0.00000000000E+00 -0.00000000000E+00 -0.45593999997E+02  0.45594000000E+02  0.51100000000E-03 0.  1.
    9900012    2    1    2    0    0 -0.34428739085E+00 -0.99973880835E+00  0.52427616450E+00  0.90007797903E+02  0.90000060036E+02 0.  0.
        -12    1    1    2    0    0  0.34428739085E+00  0.99973880835E+00 -0.52427616450E+00  0.11802020967E+01  0.00000000000E+00 0.  1.
         11    1    3    3    0    0  0.10347644163E+02 -0.15238401754E+02  0.20787970100E+02  0.27774490615E+02  0.51100000000E-03 0. -1.
        -11    1    3    3    0    0 -0.63714575153E+01 -0.14473511390E+02  0.11231398050E+02  0.19396450842E+02  0.51100000000E-03 0.  1.
        -12    1    3    3    0    0 -0.43204740388E+01  0.28712174336E+02 -0.31495091986E+02  0.42836856447E+02  0.00000000000E+00 0.  1.
</event>
<event>
 7    1  0.2593256E-015  0.9000779E+02  0.7816164E-02  0.1186339E+00
        -11   -1    0    0    0    0  0.00000000000E+00  0.00000000000E+00  0.45593999997E+02  0.45594000000E+02  0.51100000000E-03 0. -1.
         11   -1    0    0    0    0 -0.00000000000E+00 -0.00000000000E+00 -0.45593999997E+02  0.45594000000E+02  0.51100000000E-03 0.  1.
    9900012    2    1    2    0    0 -0.57183621331E+00 -0.39659559005E+00 -0.95321567045E+00  0.90007786108E+02  0.90000048084E+02 0.  0.
        -12    1    1    2    0    0  0.57183621331E+00  0.39659559005E+00  0.95321567045E+00  0.11802138922E+01  0.00000000000E+00 0.  1.
         11    1    3    3    0    0  0.11639360948E+02  0.38194479911E+02 -0.41533641753E+01  0.40144033843E+02  0.51100000000E-03 0. -1.
        -11    1    3    3    0    0 -0.89820540228E+01  0.12100956549E+01  0.40402522849E+01  0.99229665297E+01  0.51100000000E-03 0.  1.
        -12    1    3    3    0    0 -0.32291431385E+01 -0.39801171156E+02 -0.84010378010E+00  0.39940785735E+02  0.00000000000E+00 0.  1.
</event>
<event>
 7    1  0.2593256E-015  0.9000735E+02  0.7816164E-02  0.1186340E+00
        -11   -1    0    0    0    0  0.00000000000E+00  0.00000000000E+00  0.45593999997E+02  0.45594000000E+02  0.51100000000E-03 0.  1.
         11   -1    0    0    0    0 -0.00000000000E+00 -0.00000000000E+00 -0.45593999997E+02  0.45594000000E+02  0.51100000000E-03 0. -1.
    9900012    2    1    2    0    0  0.48921893240E+00  0.30385998985E-01 -0.10740914767E+01  0.90007351461E+02  0.89999607699E+02 0.  0.
        -12    1    1    2    0    0 -0.48921893240E+00 -0.30385998985E-01  0.10740914767E+01  0.11806485392E+01  0.00000000000E+00 0.  1.
         11    1    3    3    0    0  0.78870926780E+01 -0.49522402979E+00 -0.57414667047E+01  0.97681071827E+01  0.51100000000E-03 0. -1.
        -11    1    3    3    0    0 -0.17701972490E+02 -0.22802045600E+02  0.31837449929E+02  0.42975764471E+02  0.51100000000E-03 0.  1.
         12    1    3    3    0    0  0.10304098744E+02  0.23327655629E+02 -0.27170074701E+02  0.37263479807E+02  0.00000000000E+00 0. -1.
</event>
<event>
 7    1  0.2593256E-015  0.9000812E+02  0.7816164E-02  0.1186338E+00
        -11   -1    0    0    0    0  0.00000000000E+00  0.00000000000E+00  0.45593999997E+02  0.45594000000E+02  0.51100000000E-03 0.  1.
         11   -1    0    0    0    0 -0.00000000000E+00 -0.00000000000E+00 -0.45593999997E+02  0.45594000000E+02  0.51100000000E-03 0. -1.
    9900012    2    1    2    0    0 -0.21159061464E+00  0.66949276620E+00  0.94822304303E+00  0.90008119459E+02  0.90000385835E+02 0.  0.
        -12    1    1    2    0    0  0.21159061464E+00 -0.66949276620E+00 -0.94822304303E+00  0.11798805412E+01  0.00000000000E+00 0.  1.
         11    1    3    3    0    0 -0.19212420336E+02  0.24700334595E+02 -0.24031800074E+02  0.39455684500E+02  0.51100000000E-03 0. -1.
        -11    1    3    3    0    0  0.32876265358E+01 -0.37355141559E+01 -0.75951845739E+01  0.90801642727E+01  0.51100000000E-03 0.  1.
        -12    1    3    3    0    0  0.15713203186E+02 -0.20295327673E+02  0.32575207691E+02  0.41472270686E+02  0.00000000000E+00 0.  1.
</event>
<event>
 7    1  0.2593256E-015  0.9000776E+02  0.7816164E-02  0.1186339E+00
        -11   -1    0    0    0    0  0.00000000000E+00  0.00000000000E+00  0.45593999997E+02  0.45594000000E+02  0.51100000000E-03 0.  1.
         11   -1    0    0    0    0 -0.00000000000E+00 -0.00000000000E+00 -0.45593999997E+02  0.45594000000E+02  0.51100000000E-03 0. -1.
    9900012    2    1    2    0    0  0.17391278830E+00  0.76944732389E-01 -0.11648181336E+01  0.90007759586E+02  0.90000021213E+02 0.  0.
        -12    1    1    2    0    0 -0.17391278830E+00 -0.76944732389E-01  0.11648181336E+01  0.11802404137E+01  0.00000000000E+00 0.  1.
         11    1    3    3    0    0  0.89033663307E+01  0.33092956059E+02  0.11838941530E+02  0.36257057376E+02  0.51100000000E-03 0. -1.
        -11    1    3    3    0    0  0.22623586387E+01  0.85591084849E+01 -0.44346040660E+01  0.99016320952E+01  0.51100000000E-03 0.  1.
        -12    1    3    3    0    0 -0.10991812181E+02 -0.41575119811E+02 -0.85691555979E+01  0.43849070116E+02  0.00000000000E+00 0.  1.
</event>
<event>
 7    1  0.2593256E-015  0.9000773E+02  0.7816164E-02  0.1186339E+00
        -11   -1    0    0    0    0  0.00000000000E+00  0.00000000000E+00  0.45593999997E+02  0.45594000000E+02  0.51100000000E-03 0.  1.
         11   -1    0    0    0    0 -0.00000000000E+00 -0.00000000000E+00 -0.45593999997E+02  0.45594000000E+02  0.51100000000E-03 0. -1.
    9900012    2    1    2    0    0 -0.95897505514E+00  0.34144552752E+00 -0.59733438975E+00  0.90007734531E+02  0.89999995827E+02 0.  0.
        -12    1    1    2    0    0  0.95897505514E+00 -0.34144552752E+00  0.59733438975E+00  0.11802654692E+01  0.00000000000E+00 0.  1.
         11    1    3    3    0    0  0.26427864245E+02  0.23051256697E+02 -0.94489176501E+01  0.36319065089E+02  0.51100000000E-03 0. -1.
        -11    1    3    3    0    0  0.27028288191E+01  0.63865023933E+01 -0.61057670686E+01  0.92397558519E+01  0.51100000000E-03 0.  1.
        -12    1    3    3    0    0 -0.30089668119E+02 -0.29096313563E+02  0.14957350329E+02  0.44448913590E+02  0.00000000000E+00 0.  1.
</event>
<event>
 7    1  0.2593256E-015  0.9000791E+02  0.7816164E-02  0.1186339E+00
        -11   -1    0    0    0    0  0.00000000000E+00  0.00000000000E+00  0.45593999997E+02  0.45594000000E+02  0.51100000000E-03 0.  1.
         11   -1    0    0    0    0 -0.00000000000E+00 -0.00000000000E+00 -0.45593999997E+02  0.45594000000E+02  0.51100000000E-03 0. -1.
    9900012    2    1    2    0    0  0.67005992455E+00  0.88534403025E+00  0.39974220161E+00  0.90007911791E+02  0.90000175426E+02 0.  0.
        -12    1    1    2    0    0 -0.67005992455E+00 -0.88534403025E+00 -0.39974220161E+00  0.11800882095E+01  0.00000000000E+00 0.  1.
         11    1    3    3    0    0 -0.16973736893E+01 -0.38470200261E+01  0.95556380292E+01  0.10439868722E+02  0.51100000000E-03 0. -1.
        -11    1    3    3    0    0 -0.33923970886E+02  0.19696768659E+02 -0.92886611781E+01  0.40312252766E+02  0.51100000000E-03 0.  1.
         12    1    3    3    0    0  0.36291404500E+02 -0.14964404603E+02  0.13276535048E+00  0.39255790303E+02  0.00000000000E+00 0. -1.
</event>
<event>
 7    1  0.2871083E-015  0.9000776E+02  0.7816164E-02  0.1186339E+00
        -11   -1    0    0    0    0  0.00000000000E+00  0.00000000000E+00  0.45593999997E+02  0.45594000000E+02  0.51100000000E-03 0.  1.
         11   -1    0    0    0    0 -0.00000000000E+00 -0.00000000000E+00 -0.45593999997E+02  0.45594000000E+02  0.51100000000E-03 0. -1.
    9900012    2    1    2    0    0  0.87861270539E+00  0.26387958030E-01 -0.78759659861E+00  0.90007760612E+02  0.90000022252E+02 0.  0.
        -12    1    1    2    0    0 -0.87861270539E+00 -0.26387958030E-01  0.78759659861E+00  0.11802393878E+01  0.00000000000E+00 0.  1.
         11    1    3    3    0    0  0.64634988690E+01 -0.11790122890E+02 -0.34626713538E+02  0.37145566439E+02  0.51100000000E-03 0. -1.
        -11    1    3    3    0    0 -0.59890502324E+01 -0.26099604303E+01 -0.69838632629E+01  0.95632087957E+01  0.51100000000E-03 0.  1.
        -12    1    3    3    0    0  0.40416406878E+00  0.14426471278E+02  0.40822980202E+02  0.43298985377E+02  0.00000000000E+00 0.  1.
</event>
<event>
 7    1  0.2593256E-015  0.9000772E+02  0.7816164E-02  0.1186339E+00
        -11   -1    0    0    0    0  0.00000000000E+00  0.00000000000E+00  0.45593999997E+02  0.45594000000E+02  0.51100000000E-03 0.  1.
         11   -1    0    0    0    0 -0.00000000000E+00 -0.00000000000E+00 -0.45593999997E+02  0.45594000000E+02  0.51100000000E-03 0. -1.
    9900012    2    1    2    0    0 -0.10420159220E+01 -0.27324370667E+00 -0.48228209580E+00  0.90007722353E+02  0.89999983488E+02 0.  0.
        -12    1    1    2    0    0  0.10420159220E+01  0.27324370667E+00  0.48228209580E+00  0.11802776474E+01  0.00000000000E+00 0.  1.
         11    1    3    3    0    0 -0.27114916426E+02 -0.19521276958E+02 -0.15011040557E+02  0.36628271673E+02  0.51100000000E-03 0. -1.
        -11    1    3    3    0    0 -0.58401177512E+01 -0.48385578616E+01 -0.47943129140E+01  0.89724051461E+01  0.51100000000E-03 0.  1.
        -12    1    3    3    0    0  0.31913018255E+02  0.24086591113E+02  0.19323071375E+02  0.44407045533E+02  0.00000000000E+00 0.  1.
</event>
<event>
 7    1  0.2593256E-015  0.9000776E+02  0.7816164E-02  0.1186339E+00
        -11   -1    0    0    0    0  0.00000000000E+00  0.00000000000E+00  0.45593999997E+02  0.45594000000E+02  0.51100000000E-03 0.  1.
         11   -1    0    0    0    0 -0.00000000000E+00 -0.00000000000E+00 -0.45593999997E+02  0.45594000000E+02  0.51100000000E-03 0. -1.
    9900012    2    1    2    0    0  0.57578732484E+00 -0.93264271965E+00 -0.43773084581E+00  0.90007761982E+02  0.90000023640E+02 0.  0.
        -12    1    1    2    0    0 -0.57578732484E+00  0.93264271965E+00  0.43773084581E+00  0.11802380181E+01  0.00000000000E+00 0.  1.
         11    1    3    3    0    0 -0.34755650038E+02  0.14257292428E+02 -0.18518237743E+02  0.41882582613E+02  0.51100000000E-03 0. -1.
        -11    1    3    3    0    0  0.72897344967E+01  0.13202873848E+01 -0.43605527651E+01  0.85963834541E+01  0.51100000000E-03 0.  1.
        -12    1    3    3    0    0  0.28041702866E+02 -0.16510222533E+02  0.22441059662E+02  0.39528795915E+02  0.00000000000E+00 0.  1.
</event>
<event>
 7    1  0.2593256E-015  0.9000763E+02  0.7816164E-02  0.1186339E+00
        -11   -1    0    0    0    0  0.00000000000E+00  0.00000000000E+00  0.45593999997E+02  0.45594000000E+02  0.51100000000E-03 0. -1.
         11   -1    0    0    0    0 -0.00000000000E+00 -0.00000000000E+00 -0.45593999997E+02  0.45594000000E+02  0.51100000000E-03 0.  1.
    9900012    2    1    2    0    0  0.10321502651E+01  0.25007786822E+00  0.51516028842E+00  0.90007634280E+02  0.89999894253E+02 0.  0.
        -12    1    1    2    0    0 -0.10321502651E+01 -0.25007786822E+00 -0.51516028842E+00  0.11803657199E+01  0.00000000000E+00 0.  1.
         11    1    3    3    0    0 -0.38135918569E+01  0.66962574587E+01  0.45943102479E+01  0.89716795372E+01  0.51100000000E-03 0. -1.
        -11    1    3    3    0    0  0.27662739754E+02  0.23191788581E+02 -0.18967626487E+02  0.40778144674E+02  0.51100000000E-03 0.  1.
         12    1    3    3    0    0 -0.22816997632E+02 -0.29637968171E+02  0.14888476527E+02  0.40257810069E+02  0.00000000000E+00 0. -1.
</event>
<event>
 7    1  0.2593256E-015  0.9000769E+02  0.7816164E-02  0.1186339E+00
        -11   -1    0    0    0    0  0.00000000000E+00  0.00000000000E+00  0.45593999997E+02  0.45594000000E+02  0.51100000000E-03 0.  1.
         11   -1    0    0    0    0 -0.00000000000E+00 -0.00000000000E+00 -0.45593999997E+02  0.45594000000E+02  0.51100000000E-03 0. -1.
    9900012    2    1    2    0    0 -0.10912350930E+01 -0.25908449037E+00 -0.36772226142E+00  0.90007687133E+02  0.89999947804E+02 0.  0.
        -12    1    1    2    0    0  0.10912350930E+01  0.25908449037E+00  0.36772226142E+00  0.11803128666E+01  0.00000000000E+00 0.  1.
         11    1    3    3    0    0  0.35293835312E+01  0.82982687560E+01 -0.12867133210E+01  0.91089760066E+01  0.51100000000E-03 0. -1.
        -11    1    3    3    0    0 -0.19906816404E+02  0.31921418584E+02 -0.56717611218E-02  0.37619919407E+02  0.51100000000E-03 0.  1.
         12    1    3    3    0    0  0.15286197780E+02 -0.40478771830E+02  0.92466282070E+00  0.43278791720E+02  0.00000000000E+00 0. -1.
</event>
<event>
 7    1  0.2593256E-015  0.9000763E+02  0.7816164E-02  0.1186339E+00
        -11   -1    0    0    0    0  0.00000000000E+00  0.00000000000E+00  0.45593999997E+02  0.45594000000E+02  0.51100000000E-03 0.  1.
         11   -1    0    0    0    0 -0.00000000000E+00 -0.00000000000E+00 -0.45593999997E+02  0.45594000000E+02  0.51100000000E-03 0. -1.
    9900012    2    1    2    0    0  0.11450095979E+01 -0.27433241755E+00  0.83531733082E-01  0.90007625989E+02  0.89999885852E+02 0.  0.
        -12    1    1    2    0    0 -0.11450095979E+01  0.27433241755E+00 -0.83531733082E-01  0.11803740107E+01  0.00000000000E+00 0.  1.
         11    1    3    3    0    0  0.16992239853E+02  0.18683712532E+02 -0.31863069490E+02  0.40657994623E+02  0.51100000000E-03 0. -1.
        -11    1    3    3    0    0 -0.90643864867E+01 -0.28918040771E+01 -0.32624613806E+01  0.10058294474E+02  0.51100000000E-03 0.  1.
        -12    1    3    3    0    0 -0.67828437684E+01 -0.16066240872E+02  0.35209062604E+02  0.39291336892E+02  0.00000000000E+00 0.  1.
</event>
<event>
 7    1  0.2593256E-015  0.9000782E+02  0.7816164E-02  0.1186339E+00
        -11   -1    0    0    0    0  0.00000000000E+00  0.00000000000E+00  0.45593999997E+02  0.45594000000E+02  0.51100000000E-03 0.  1.
         11   -1    0    0    0    0 -0.00000000000E+00 -0.00000000000E+00 -0.45593999997E+02  0.45594000000E+02  0.51100000000E-03 0. -1.
    9900012    2    1    2    0    0  0.97340453831E+00 -0.28822973261E+00 -0.60185625033E+00  0.90007820471E+02  0.90000082901E+02 0.  0.
        -12    1    1    2    0    0 -0.97340453831E+00  0.28822973261E+00  0.60185625033E+00  0.11801795287E+01  0.00000000000E+00 0.  1.
         11    1    3    3    0    0 -0.20530136350E+02  0.31181567201E+02 -0.12044808056E+02  0.39228230052E+02  0.51100000000E-03 0. -1.
        -11    1    3    3    0    0 -0.48104585569E+01 -0.40107358729E+01 -0.62371237638E+01  0.88390173026E+01  0.51100000000E-03 0.  1.
        -12    1    3    3    0    0  0.26313999446E+02 -0.27459061061E+02  0.17680075570E+02  0.41940573116E+02  0.00000000000E+00 0.  1.
</event>
<event>
 7    1  0.2593256E-015  0.9000780E+02  0.7816164E-02  0.1186339E+00
        -11   -1    0    0    0    0  0.00000000000E+00  0.00000000000E+00  0.45593999997E+02  0.45594000000E+02  0.51100000000E-03 0. -1.
         11   -1    0    0    0    0 -0.00000000000E+00 -0.00000000000E+00 -0.45593999997E+02  0.45594000000E+02  0.51100000000E-03 0.  1.
    9900012    2    1    2    0    0  0.32854044887E-01 -0.97698595607E+00  0.66128700857E+00  0.90007796012E+02  0.90000058119E+02 0.  0.
        -12    1    1    2    0    0 -0.32854044887E-01  0.97698595607E+00 -0.66128700857E+00  0.11802039884E+01  0.00000000000E+00 0.  1.
         11    1    3    3    0    0 -0.31143901650E+02  0.48044912487E+01 -0.16110646307E+02  0.35391788183E+02  0.51100000000E-03 0. -1.
        -11    1    3    3    0    0 -0.31583979044E+01 -0.88602880734E+01 -0.78511417716E+01  0.12252371585E+02  0.51100000000E-03 0.  1.
        -12    1    3    3    0    0  0.34335153599E+02  0.30788108686E+01  0.24623075087E+02  0.42363636244E+02  0.00000000000E+00 0.  1.
</event>
<event>
 7    1  0.2593256E-015  0.9000773E+02  0.7816164E-02  0.1186339E+00
        -11   -1    0    0    0    0  0.00000000000E+00  0.00000000000E+00  0.45593999997E+02  0.45594000000E+02  0.51100000000E-03 0.  1.
         11   -1    0    0    0    0 -0.00000000000E+00 -0.00000000000E+00 -0.45593999997E+02  0.45594000000E+02  0.51100000000E-03 0. -1.
    9900012    2    1    2    0    0 -0.10305400699E+01 -0.38086609207E+00 -0.43124200562E+00  0.90007728216E+02  0.89999989429E+02 0.  0.
        -12    1    1    2    0    0  0.10305400699E+01  0.38086609207E+00  0.43124200562E+00  0.11802717836E+01  0.00000000000E+00 0.  1.
         11    1    3    3    0    0  0.48305805642E+01  0.82305948584E+01  0.33659911883E+01  0.10119639186E+02  0.51100000000E-03 0. -1.
        -11    1    3    3    0    0  0.29465026038E+02  0.14086765579E+01  0.20442063924E+02  0.35889414969E+02  0.51100000000E-03 0.  1.
         12    1    3    3    0    0 -0.35326146672E+02 -0.10020137508E+02 -0.24239297118E+02  0.43998674062E+02  0.00000000000E+00 0. -1.
</event>
<event>
 7    1  0.2593256E-015  0.9000772E+02  0.7816164E-02  0.1186339E+00
        -11   -1    0    0    0    0  0.00000000000E+00  0.00000000000E+00  0.45593999997E+02  0.45594000000E+02  0.51100000000E-03 0.  1.
         11   -1    0    0    0    0 -0.00000000000E+00 -0.00000000000E+00 -0.45593999997E+02  0.45594000000E+02  0.51100000000E-03 0. -1.
    9900012    2    1    2    0    0 -0.77552751097E+00  0.17808535177E+00 -0.87172721031E+00  0.90007717982E+02  0.89999979059E+02 0.  0.
        -12    1    1    2    0    0  0.77552751097E+00 -0.17808535177E+00  0.87172721031E+00  0.11802820180E+01  0.00000000000E+00 0.  1.
         11    1    3    3    0    0 -0.33183020215E+02 -0.46469326841E+01 -0.20346866593E+02  0.39200788186E+02  0.51100000000E-03 0. -1.
        -11    1    3    3    0    0  0.84410097780E+01  0.46371931869E+01 -0.92792158725E+01  0.13373782344E+02  0.51100000000E-03 0.  1.
        -12    1    3    3    0    0  0.23966482926E+02  0.18782484897E+00  0.28754355256E+02  0.37433147452E+02  0.00000000000E+00 0.  1.
</event>
<event>
 7    1  0.2593256E-015  0.9000738E+02  0.7816164E-02  0.1186340E+00
        -11   -1    0    0    0    0  0.00000000000E+00  0.00000000000E+00  0.45593999997E+02  0.45594000000E+02  0.51100000000E-03 0.  1.
         11   -1    0    0    0    0 -0.00000000000E+00 -0.00000000000E+00 -0.45593999997E+02  0.45594000000E+02  0.51100000000E-03 0. -1.
    9900012    2    1    2    0    0 -0.22405392740E+00  0.58632013766E+00  0.99994340299E+00  0.90007382248E+02  0.89999638893E+02 0.  0.
        -12    1    1    2    0    0  0.22405392740E+00 -0.58632013766E+00 -0.99994340299E+00  0.11806177516E+01  0.00000000000E+00 0.  1.
         11    1    3    3    0    0  0.35234307669E+02 -0.91411861947E+01 -0.93318917494E+01  0.37577944673E+02  0.51100000000E-03 0. -1.
        -11    1    3    3    0    0  0.32246000321E+01  0.92027207275E+01 -0.48250120311E+01  0.10879745195E+02  0.51100000000E-03 0.  1.
        -12    1    3    3    0    0 -0.38682961629E+02  0.52478560479E+00  0.15156847184E+02  0.41549692380E+02  0.00000000000E+00 0.  1.
</event>
<event>
 7    1  0.2593256E-015  0.9000798E+02  0.7816164E-02  0.1186339E+00
        -11   -1    0    0    0    0  0.00000000000E+00  0.00000000000E+00  0.45593999997E+02  0.45594000000E+02  0.51100000000E-03 0.  1.
         11   -1    0    0    0    0 -0.00000000000E+00 -0.00000000000E+00 -0.45593999997E+02  0.45594000000E+02  0.51100000000E-03 0. -1.
    9900012    2    1    2    0    0  0.10324257322E+01 -0.27197166049E+00  0.50255876369E+00  0.90007984412E+02  0.90000249006E+02 0.  0.
        -12    1    1    2    0    0 -0.10324257322E+01  0.27197166049E+00 -0.50255876369E+00  0.11800155878E+01  0.00000000000E+00 0.  1.
         11    1    3    3    0    0  0.63988352058E+01  0.45687979728E+01  0.12353017415E+02  0.14642952108E+02  0.51100000000E-03 0. -1.
        -11    1    3    3    0    0  0.24438688262E+02 -0.36336770821E+01  0.19955583111E+02  0.31759697585E+02  0.51100000000E-03 0.  1.
         12    1    3    3    0    0 -0.29805097736E+02 -0.12070925511E+01 -0.31806041762E+02  0.43605334720E+02  0.00000000000E+00 0. -1.
</event>
<event>
 7    1  0.2593256E-015  0.9000803E+02  0.7816164E-02  0.1186338E+00
        -11   -1    0    0    0    0  0.00000000000E+00  0.00000000000E+00  0.45593999997E+02  0.45594000000E+02  0.51100000000E-03 0. -1.
         11   -1    0    0    0    0 -0.00000000000E+00 -0.00000000000E+00 -0.45593999997E+02  0.45594000000E+02  0.51100000000E-03 0.  1.
    9900012    2    1    2    0    0  0.63539242302E+00 -0.22319041264E+00 -0.96890755617E+00  0.90008034177E+02  0.90000299427E+02 0.  0.
        -12    1    1    2    0    0 -0.63539242302E+00  0.22319041264E+00  0.96890755617E+00  0.11799658232E+01  0.00000000000E+00 0.  1.
         11    1    3    3    0    0 -0.26268385298E+02 -0.26943865693E+02 -0.75623712736E+01  0.38382149812E+02  0.51100000000E-03 0. -1.
        -11    1    3    3    0    0  0.54388518205E+00 -0.29690829620E+01 -0.86005790732E+01  0.91148903110E+01  0.51100000000E-03 0.  1.
        -12    1    3    3    0    0  0.26359892539E+02  0.29689758242E+02  0.15194042791E+02  0.42510994054E+02  0.00000000000E+00 0.  1.
</event>
<event>
 7    1  0.2593256E-015  0.9000729E+02  0.7816164E-02  0.1186340E+00
        -11   -1    0    0    0    0  0.00000000000E+00  0.00000000000E+00  0.45593999997E+02  0.45594000000E+02  0.51100000000E-03 0.  1.
         11   -1    0    0    0    0 -0.00000000000E+00 -0.00000000000E+00 -0.45593999997E+02  0.45594000000E+02  0.51100000000E-03 0. -1.
    9900012    2    1    2    0    0 -0.95312113329E+00 -0.66385290456E+00 -0.21197829830E+00  0.90007290310E+02  0.89999545741E+02 0.  0.
        -12    1    1    2    0    0  0.95312113329E+00  0.66385290456E+00  0.21197829830E+00  0.11807096902E+01  0.00000000000E+00 0.  1.
         11    1    3    3    0    0 -0.43301730018E+00  0.41200595813E+01  0.61881967245E+01  0.74468902166E+01  0.51100000000E-03 0. -1.
        -11    1    3    3    0    0  0.85131340335E+00  0.32050573029E+02  0.19485819383E+02  0.37518810259E+02  0.51100000000E-03 0.  1.
         12    1    3    3    0    0 -0.13714172365E+01 -0.36834485515E+02 -0.25885994406E+02  0.45041589834E+02  0.00000000000E+00 0. -1.
</event>
<event>
 7    1  0.2593256E-015  0.9000775E+02  0.7816164E-02  0.1186339E+00
        -11   -1    0    0    0    0  0.00000000000E+00  0.00000000000E+00  0.45593999997E+02  0.45594000000E+02  0.51100000000E-03 0.  1.
         11   -1    0    0    0    0 -0.00000000000E+00 -0.00000000000E+00 -0.45593999997E+02  0.45594000000E+02  0.51100000000E-03 0. -1.
    9900012    2    1    2    0    0 -0.11350541130E+01  0.27025482015E+00  0.17778273749E+00  0.90007749091E+02  0.90000010579E+02 0.  0.
        -12    1    1    2    0    0  0.11350541130E+01 -0.27025482015E+00 -0.17778273749E+00  0.11802509093E+01  0.00000000000E+00 0.  1.
         11    1    3    3    0    0 -0.56337770820E+01 -0.13150195997E+02 -0.98142033212E+01  0.17348939047E+02  0.51100000000E-03 0. -1.
        -11    1    3    3    0    0 -0.27815915147E+02 -0.77443332277E+01  0.16842786002E+02  0.33427223534E+02  0.51100000000E-03 0.  1.
         12    1    3    3    0    0  0.32314638116E+02  0.21164784045E+02 -0.68507999428E+01  0.39231586510E+02  0.00000000000E+00 0. -1.
</event>
<event>
 7    1  0.2593256E-015  0.9000775E+02  0.7816164E-02  0.1186339E+00
        -11   -1    0    0    0    0  0.00000000000E+00  0.00000000000E+00  0.45593999997E+02  0.45594000000E+02  0.51100000000E-03 0.  1.
         11   -1    0    0    0    0 -0.00000000000E+00 -0.00000000000E+00 -0.45593999997E+02  0.45594000000E+02  0.51100000000E-03 0. -1.
    9900012    2    1    2    0    0  0.10150189072E+01  0.36359323442E+00 -0.48013346062E+00  0.90007749365E+02  0.90000010856E+02 0.  0.
        -12    1    1    2    0    0 -0.10150189072E+01 -0.36359323442E+00  0.48013346062E+00  0.11802506353E+01  0.00000000000E+00 0.  1.
         11    1    3    3    0    0 -0.17842156225E+02  0.12296192267E+02 -0.37170556130E+02  0.43025447427E+02  0.51100000000E-03 0. -1.
        -11    1    3    3    0    0  0.94110704143E+01  0.29961426820E+01  0.59590388391E+01  0.11534958234E+02  0.51100000000E-03 0.  1.
        -12    1    3    3    0    0  0.94461047182E+01 -0.14928741715E+02  0.30731383830E+02  0.35447343704E+02  0.00000000000E+00 0.  1.
</event>
<event>
 7    1  0.2593256E-015  0.9000779E+02  0.7816164E-02  0.1186339E+00
        -11   -1    0    0    0    0  0.00000000000E+00  0.00000000000E+00  0.45593999997E+02  0.45594000000E+02  0.51100000000E-03 0.  1.
         11   -1    0    0    0    0 -0.00000000000E+00 -0.00000000000E+00 -0.45593999997E+02  0.45594000000E+02  0.51100000000E-03 0. -1.
    9900012    2    1    2    0    0  0.75154937903E+00  0.39251503011E+00 -0.82097738361E+00  0.90007788840E+02  0.90000050853E+02 0.  0.
        -12    1    1    2    0    0 -0.75154937903E+00 -0.39251503011E+00  0.82097738361E+00  0.11802111601E+01  0.00000000000E+00 0.  1.
         11    1    3    3    0    0  0.10210972148E+01 -0.13318775003E+02 -0.36892714381E+02  0.39236523569E+02  0.51100000000E-03 0. -1.
        -11    1    3    3    0    0  0.86122959859E+01 -0.47824721987E+00 -0.22829633873E+01  0.89225716383E+01  0.51100000000E-03 0.  1.
        -12    1    3    3    0    0 -0.88818438217E+01  0.14189537253E+02  0.38354700385E+02  0.41848693633E+02  0.00000000000E+00 0.  1.
</event>
<event>
 7    1  0.2593256E-015  0.9000777E+02  0.7816164E-02  0.1186339E+00
        -11   -1    0    0    0    0  0.00000000000E+00  0.00000000000E+00  0.45593999997E+02  0.45594000000E+02  0.51100000000E-03 0.  1.
         11   -1    0    0    0    0 -0.00000000000E+00 -0.00000000000E+00 -0.45593999997E+02  0.45594000000E+02  0.51100000000E-03 0. -1.
    9900012    2    1    2    0    0  0.11091774133E+01 -0.26136541595E+00  0.30717049782E+00  0.90007771154E+02  0.90000032933E+02 0.  0.
        -12    1    1    2    0    0 -0.11091774133E+01  0.26136541595E+00 -0.30717049782E+00  0.11802288463E+01  0.00000000000E+00 0.  1.
         11    1    3    3    0    0 -0.21278501975E+02 -0.18194441672E+02 -0.31680492254E+02  0.42278433554E+02  0.51100000000E-03 0. -1.
        -11    1    3    3    0    0 -0.38439575098E+01  0.11645311525E+01  0.19377543755E+01  0.44594881347E+01  0.51100000000E-03 0.  1.
        -12    1    3    3    0    0  0.26231636898E+02  0.16768545103E+02  0.30049908377E+02  0.43269849465E+02  0.00000000000E+00 0.  1.
</event>
<event>
 7    1  0.2593256E-015  0.9000777E+02  0.7816164E-02  0.1186339E+00
        -11   -1    0    0    0    0  0.00000000000E+00  0.00000000000E+00  0.45593999997E+02  0.45594000000E+02  0.51100000000E-03 0.  1.
         11   -1    0    0    0    0 -0.00000000000E+00 -0.00000000000E+00 -0.45593999997E+02  0.45594000000E+02  0.51100000000E-03 0. -1.
    9900012    2    1    2    0    0 -0.34028668402E-01 -0.22671020710E+00 -0.11577534518E+01  0.90007767598E+02  0.90000029330E+02 0.  0.
        -12    1    1    2    0    0  0.34028668402E-01  0.22671020710E+00  0.11577534518E+01  0.11802324023E+01  0.00000000000E+00 0.  1.
         11    1    3    3    0    0  0.11623747379E+02 -0.12463504930E+01 -0.30018550763E+01  0.12069632423E+02  0.51100000000E-03 0. -1.
        -11    1    3    3    0    0 -0.59028043174E+01 -0.36366736455E+02 -0.10220506460E+02  0.38234034207E+02  0.51100000000E-03 0.  1.
         12    1    3    3    0    0 -0.57549717297E+01  0.37386376740E+02  0.12064608085E+02  0.39704100967E+02  0.00000000000E+00 0. -1.
</event>
<event>
 7    1  0.2593256E-015  0.9000808E+02  0.7816164E-02  0.1186338E+00
        -11   -1    0    0    0    0  0.00000000000E+00  0.00000000000E+00  0.45593999997E+02  0.45594000000E+02  0.51100000000E-03 0.  1.
         11   -1    0    0    0    0 -0.00000000000E+00 -0.00000000000E+00 -0.45593999997E+02  0.45594000000E+02  0.51100000000E-03 0. -1.
    9900012    2    1    2    0    0 -0.11302588436E+01  0.10210557922E+00 -0.32295740984E+00  0.90008079625E+02  0.90000345475E+02 0.  0.
        -12    1    1    2    0    0  0.11302588436E+01 -0.10210557922E+00  0.32295740984E+00  0.11799203750E+01  0.00000000000E+00 0.  1.
         11    1    3    3    0    0 -0.87934260120E+01  0.66054767911E+01 -0.50434848813E+01  0.12099314223E+02  0.51100000000E-03 0. -1.
        -11    1    3    3    0    0  0.16548910619E+01  0.34242944687E+02  0.11515214387E+02  0.36165150185E+02  0.51100000000E-03 0.  1.
         12    1    3    3    0    0  0.60082761066E+01 -0.40746315899E+02 -0.67946869154E+01  0.41743615217E+02  0.00000000000E+00 0. -1.
</event>
<event>
 7    1  0.2593256E-015  0.9000775E+02  0.7816164E-02  0.1186339E+00
        -11   -1    0    0    0    0  0.00000000000E+00  0.00000000000E+00  0.45593999997E+02  0.45594000000E+02  0.51100000000E-03 0. -1.
         11   -1    0    0    0    0 -0.00000000000E+00 -0.00000000000E+00 -0.45593999997E+02  0.45594000000E+02  0.51100000000E-03 0.  1.
    9900012    2    1    2    0    0 -0.89584625410E+00  0.70113230390E+00  0.31443146497E+00  0.90007748262E+02  0.90000009739E+02 0.  0.
        -12    1    1    2    0    0  0.89584625410E+00 -0.70113230390E+00 -0.31443146497E+00  0.11802517379E+01  0.00000000000E+00 0.  1.
         11    1    3    3    0    0 -0.21483395997E+02  0.66385133069E+00 -0.44587909916E+00  0.21498274595E+02  0.51100000000E-03 0.  1.
        -11    1    3    3    0    0  0.16597995808E+02 -0.10695367882E+01 -0.31693481710E+02  0.35792655070E+02  0.51100000000E-03 0. -1.
         12    1    3    3    0    0  0.39895539346E+01  0.11068177614E+01  0.32453792274E+02  0.32716818597E+02  0.00000000000E+00 0. -1.
</event>
<event>
 7    1  0.2593256E-015  0.9000773E+02  0.7816164E-02  0.1186339E+00
        -11   -1    0    0    0    0  0.00000000000E+00  0.00000000000E+00  0.45593999997E+02  0.45594000000E+02  0.51100000000E-03 0.  1.
         11   -1    0    0    0    0 -0.00000000000E+00 -0.00000000000E+00 -0.45593999997E+02  0.45594000000E+02  0.51100000000E-03 0. -1.
    9900012    2    1    2    0    0  0.19901028325E+00  0.96838096955E+00 -0.64473234316E+00  0.90007726053E+02  0.89999987237E+02 0.  0.
        -12    1    1    2    0    0 -0.19901028325E+00 -0.96838096955E+00  0.64473234316E+00  0.11802739467E+01  0.00000000000E+00 0.  1.
         11    1    3    3    0    0 -0.16757688340E+02 -0.20203330804E+02 -0.30014103409E+02  0.39872811511E+02  0.51100000000E-03 0. -1.
        -11    1    3    3    0    0  0.13702114177E+02 -0.39486580509E+01  0.16213006141E+02  0.21591697518E+02  0.51100000000E-03 0.  1.
        -12    1    3    3    0    0  0.32545844466E+01  0.25120369825E+02  0.13156364925E+02  0.28543217024E+02  0.00000000000E+00 0.  1.
</event>
<event>
 7    1  0.2593256E-015  0.9000776E+02  0.7816164E-02  0.1186339E+00
        -11   -1    0    0    0    0  0.00000000000E+00  0.00000000000E+00  0.45593999997E+02  0.45594000000E+02  0.51100000000E-03 0. -1.
         11   -1    0    0    0    0 -0.00000000000E+00 -0.00000000000E+00 -0.45593999997E+02  0.45594000000E+02  0.51100000000E-03 0.  1.
    9900012    2    1    2    0    0 -0.22420831704E+00  0.37295357223E+00  0.10970877516E+01  0.90007760503E+02  0.90000022141E+02 0.  0.
        -12    1    1    2    0    0  0.22420831704E+00 -0.37295357223E+00 -0.10970877516E+01  0.11802394974E+01  0.00000000000E+00 0.  1.
         11    1    3    3    0    0  0.37785792537E+02  0.46438547464E+01 -0.26851806912E+01  0.38164665598E+02  0.51100000000E-03 0. -1.
        -11    1    3    3    0    0  0.31714068795E+01  0.64689396048E+01  0.57813312079E+01  0.92373584970E+01  0.51100000000E-03 0.  1.
        -12    1    3    3    0    0 -0.41181407734E+02 -0.10739840779E+02 -0.19990627651E+01  0.42605736408E+02  0.00000000000E+00 0.  1.
</event>
<event>
 7    1  0.2593256E-015  0.9000769E+02  0.7816164E-02  0.1186339E+00
        -11   -1    0    0    0    0  0.00000000000E+00  0.00000000000E+00  0.45593999997E+02  0.45594000000E+02  0.51100000000E-03 0.  1.
         11   -1    0    0    0    0 -0.00000000000E+00 -0.00000000000E+00 -0.45593999997E+02  0.45594000000E+02  0.51100000000E-03 0. -1.
    9900012    2    1    2    0    0 -0.73710681449E+00  0.67546608785E+00  0.62734454128E+00  0.90007685607E+02  0.89999946257E+02 0.  0.
        -12    1    1    2    0    0  0.73710681449E+00 -0.67546608785E+00 -0.62734454128E+00  0.11803143926E+01  0.00000000000E+00 0.  1.
         11    1    3    3    0    0 -0.36612274647E+01 -0.58799031377E+01  0.69696627088E+01  0.98261918357E+01  0.51100000000E-03 0. -1.
        -11    1    3    3    0    0  0.37504262682E+02 -0.13209965985E+02  0.51033489311E+00  0.39765982481E+02  0.51100000000E-03 0.  1.
         12    1    3    3    0    0 -0.34580142032E+02  0.19765335211E+02 -0.68526530606E+01  0.40415511291E+02  0.00000000000E+00 0. -1.
</event>
<event>
 7    1  0.2593256E-015  0.9000765E+02  0.7816164E-02  0.1186339E+00
        -11   -1    0    0    0    0  0.00000000000E+00  0.00000000000E+00  0.45593999997E+02  0.45594000000E+02  0.51100000000E-03 0. -1.
         11   -1    0    0    0    0 -0.00000000000E+00 -0.00000000000E+00 -0.45593999997E+02  0.45594000000E+02  0.51100000000E-03 0.  1.
    9900012    2    1    2    0    0 -0.10811786420E+00 -0.11018997749E+01  0.40909926627E+00  0.90007646326E+02  0.89999906457E+02 0.  0.
        -12    1    1    2    0    0  0.10811786420E+00  0.11018997749E+01 -0.40909926627E+00  0.11803536742E+01  0.00000000000E+00 0.  1.
         11    1    3    3    0    0 -0.44603944536E+01 -0.11588744279E+02  0.30697270984E+01  0.12791299283E+02  0.51100000000E-03 0. -1.
        -11    1    3    3    0    0  0.58437168516E+01 -0.24516268255E+02 -0.25133485077E+02  0.35593377307E+02  0.51100000000E-03 0.  1.
         12    1    3    3    0    0 -0.14914402621E+01  0.35003112758E+02  0.22472857245E+02  0.41622969735E+02  0.00000000000E+00 0. -1.
</event>
<event>
 7    1  0.2593256E-015  0.9000774E+02  0.7816164E-02  0.1186339E+00
        -11   -1    0    0    0    0  0.00000000000E+00  0.00000000000E+00  0.45593999997E+02  0.45594000000E+02  0.51100000000E-03 0.  1.
         11   -1    0    0    0    0 -0.00000000000E+00 -0.00000000000E+00 -0.45593999997E+02  0.45594000000E+02  0.51100000000E-03 0. -1.
    9900012    2    1    2    0    0  0.39367405092E+00 -0.82984855394E+00 -0.74120417424E+00  0.90007740915E+02  0.90000002295E+02 0.  0.
        -12    1    1    2    0    0 -0.39367405092E+00  0.82984855394E+00  0.74120417424E+00  0.11802590854E+01  0.00000000000E+00 0.  1.
         11    1    3    3    0    0  0.88364127796E+01  0.54803076874E+01 -0.21021424244E+01  0.10608249912E+02  0.51100000000E-03 0. -1.
        -11    1    3    3    0    0  0.24337804121E+02 -0.22888795444E+02  0.19230669614E+02  0.38549245393E+02  0.51100000000E-03 0.  1.
         12    1    3    3    0    0 -0.32780542850E+02  0.16578639203E+02 -0.17869731364E+02  0.40850245609E+02  0.00000000000E+00 0. -1.
</event>
<event>
 7    1  0.2593256E-015  0.9000775E+02  0.7816164E-02  0.1186339E+00
        -11   -1    0    0    0    0  0.00000000000E+00  0.00000000000E+00  0.45593999997E+02  0.45594000000E+02  0.51100000000E-03 0.  1.
         11   -1    0    0    0    0 -0.00000000000E+00 -0.00000000000E+00 -0.45593999997E+02  0.45594000000E+02  0.51100000000E-03 0. -1.
    9900012    2    1    2    0    0  0.48914774734E+00  0.93880682979E+00  0.52189260887E+00  0.90007747621E+02  0.90000009090E+02 0.  0.
        -12    1    1    2    0    0 -0.48914774734E+00 -0.93880682979E+00 -0.52189260887E+00  0.11802523788E+01  0.00000000000E+00 0.  1.
         11    1    3    3    0    0  0.32975513551E+02  0.11069338980E+02 -0.25554878259E+02  0.43162096364E+02  0.51100000000E-03 0. -1.
        -11    1    3    3    0    0 -0.76598775378E+01 -0.56770906369E+01 -0.12982333655E+01  0.96222914177E+01  0.51100000000E-03 0.  1.
        -12    1    3    3    0    0 -0.24826488266E+02 -0.44534415129E+01  0.27375004234E+02  0.37223359840E+02  0.00000000000E+00 0.  1.
</event>
<event>
 7    1  0.2593256E-015  0.9000673E+02  0.7816164E-02  0.1186341E+00
        -11   -1    0    0    0    0  0.00000000000E+00  0.00000000000E+00  0.45593999997E+02  0.45594000000E+02  0.51100000000E-03 0. -1.
         11   -1    0    0    0    0 -0.00000000000E+00 -0.00000000000E+00 -0.45593999997E+02  0.45594000000E+02  0.51100000000E-03 0.  1.
    9900012    2    1    2    0    0  0.67185672711E+00 -0.22813538262E+00  0.94443362438E+00  0.90006732848E+02  0.89998980915E+02 0.  0.
        -12    1    1    2    0    0 -0.67185672711E+00  0.22813538262E+00 -0.94443362438E+00  0.11812671524E+01  0.00000000000E+00 0.  1.
         11    1    3    3    0    0  0.12444215936E+02  0.20433233581E+02  0.29312056382E+02  0.37836122878E+02  0.51100000000E-03 0. -1.
        -11    1    3    3    0    0  0.10553250255E+02  0.31261724329E+01 -0.53030910576E+01  0.12217480102E+02  0.51100000000E-03 0.  1.
        -12    1    3    3    0    0 -0.22325609464E+02 -0.23787541397E+02 -0.23064531700E+02  0.39953129867E+02  0.00000000000E+00 0.  1.
</event>
<event>
 7    1  0.2593256E-015  0.9000784E+02  0.7816164E-02  0.1186339E+00
        -11   -1    0    0    0    0  0.00000000000E+00  0.00000000000E+00  0.45593999997E+02  0.45594000000E+02  0.51100000000E-03 0.  1.
         11   -1    0    0    0    0 -0.00000000000E+00 -0.00000000000E+00 -0.45593999997E+02  0.45594000000E+02  0.51100000000E-03 0. -1.
    9900012    2    1    2    0    0  0.41448334614E+00  0.62781947161E+00 -0.90929571369E+00  0.90007842202E+02  0.90000104919E+02 0.  0.
        -12    1    1    2    0    0 -0.41448334614E+00 -0.62781947161E+00  0.90929571369E+00  0.11801577980E+01  0.00000000000E+00 0.  1.
         11    1    3    3    0    0 -0.22697901537E+02  0.22618096571E+01 -0.23462858148E+02  0.32723328526E+02  0.51100000000E-03 0. -1.
        -11    1    3    3    0    0  0.10506425957E+02  0.65434703296E+00 -0.14591289644E+02  0.17992189699E+02  0.51100000000E-03 0.  1.
        -12    1    3    3    0    0  0.12605958926E+02 -0.22883372184E+01  0.37144852078E+02  0.39292323977E+02  0.00000000000E+00 0.  1.
</event>
<event>
 7    1  0.2593256E-015  0.9000778E+02  0.7816164E-02  0.1186339E+00
        -11   -1    0    0    0    0  0.00000000000E+00  0.00000000000E+00  0.45593999997E+02  0.45594000000E+02  0.51100000000E-03 0.  1.
         11   -1    0    0    0    0 -0.00000000000E+00 -0.00000000000E+00 -0.45593999997E+02  0.45594000000E+02  0.51100000000E-03 0. -1.
    9900012    2    1    2    0    0  0.11792291488E+01 -0.25871527367E-01 -0.40974424284E-01  0.90007775604E+02  0.90000037442E+02 0.  0.
        -12    1    1    2    0    0 -0.11792291488E+01  0.25871527367E-01  0.40974424284E-01  0.11802243959E+01  0.00000000000E+00 0.  1.
         11    1    3    3    0    0 -0.38105516382E+02 -0.10955956246E+01 -0.14894846733E+02  0.40927828772E+02  0.51100000000E-03 0. -1.
        -11    1    3    3    0    0  0.22609219758E+01  0.86289814970E+01  0.39090883269E+01  0.97392023115E+01  0.51100000000E-03 0.  1.
        -12    1    3    3    0    0  0.37023823555E+02 -0.75592573997E+01  0.10944783982E+02  0.39340744521E+02  0.00000000000E+00 0.  1.
</event>
<event>
 7    1  0.2593256E-015  0.9000771E+02  0.7816164E-02  0.1186339E+00
        -11   -1    0    0    0    0  0.00000000000E+00  0.00000000000E+00  0.45593999997E+02  0.45594000000E+02  0.51100000000E-03 0. -1.
         11   -1    0    0    0    0 -0.00000000000E+00 -0.00000000000E+00 -0.45593999997E+02  0.45594000000E+02  0.51100000000E-03 0.  1.
    9900012    2    1    2    0    0  0.21427293044E+00  0.62452462023E+00  0.97832983007E+00  0.90007714803E+02  0.89999975838E+02 0.  0.
        -12    1    1    2    0    0 -0.21427293044E+00 -0.62452462023E+00 -0.97832983007E+00  0.11802851971E+01  0.00000000000E+00 0.  1.
         11    1    3    3    0    0  0.85575260025E+01  0.46372041941E+01 -0.33609784088E+01  0.10297139901E+02  0.51100000000E-03 0. -1.
        -11    1    3    3    0    0  0.34045458645E+02 -0.12552342668E+02  0.36028009015E+00  0.36287523514E+02  0.51100000000E-03 0.  1.
         12    1    3    3    0    0 -0.42388711717E+02  0.85396630942E+01  0.39790281487E+01  0.43423051387E+02  0.00000000000E+00 0. -1.
</event>
<event>
 7    1  0.2593256E-015  0.9000772E+02  0.7816164E-02  0.1186339E+00
        -11   -1    0    0    0    0  0.00000000000E+00  0.00000000000E+00  0.45593999997E+02  0.45594000000E+02  0.51100000000E-03 0. -1.
         11   -1    0    0    0    0 -0.00000000000E+00 -0.00000000000E+00 -0.45593999997E+02  0.45594000000E+02  0.51100000000E-03 0.  1.
    9900012    2    1    2    0    0 -0.10116164725E+01  0.40274469886E+00  0.45551026936E+00  0.90007720039E+02  0.89999981144E+02 0.  0.
        -12    1    1    2    0    0  0.10116164725E+01 -0.40274469886E+00 -0.45551026936E+00  0.11802799606E+01  0.00000000000E+00 0.  1.
         11    1    3    3    0    0  0.97884575903E+01  0.15436011347E+02  0.24162267219E+02  0.30296856367E+02  0.51100000000E-03 0. -1.
        -11    1    3    3    0    0 -0.13554089550E+02  0.17423158871E+02 -0.73825236426E+01  0.23276199521E+02  0.51100000000E-03 0.  1.
        -12    1    3    3    0    0  0.27540154867E+01 -0.32456425519E+02 -0.16324233307E+02  0.36434664151E+02  0.00000000000E+00 0.  1.
</event>
<event>
 7    1  0.2593256E-015  0.9000761E+02  0.7816164E-02  0.1186339E+00
        -11   -1    0    0    0    0  0.00000000000E+00  0.00000000000E+00  0.45593999997E+02  0.45594000000E+02  0.51100000000E-03 0. -1.
         11   -1    0    0    0    0 -0.00000000000E+00 -0.00000000000E+00 -0.45593999997E+02  0.45594000000E+02  0.51100000000E-03 0.  1.
    9900012    2    1    2    0    0 -0.11538456333E+01  0.16856094919E+00  0.18313166092E+00  0.90007614578E+02  0.89999874290E+02 0.  0.
        -12    1    1    2    0    0  0.11538456333E+01 -0.16856094919E+00 -0.18313166092E+00  0.11803854219E+01  0.00000000000E+00 0.  1.
         11    1    3    3    0    0  0.16728250194E+01 -0.49600698879E+01 -0.81303005316E+01  0.96696651356E+01  0.51100000000E-03 0. -1.
        -11    1    3    3    0    0  0.10815204008E+02 -0.12882980503E+02 -0.30842159570E+02  0.35130878606E+02  0.51100000000E-03 0.  1.
         12    1    3    3    0    0 -0.13641874660E+02  0.18011611341E+02  0.39155591763E+02  0.45207070837E+02  0.00000000000E+00 0. -1.
</event>
<event>
 7    1  0.2593256E-015  0.9000808E+02  0.7816164E-02  0.1186338E+00
        -11   -1    0    0    0    0  0.00000000000E+00  0.00000000000E+00  0.45593999997E+02  0.45594000000E+02  0.51100000000E-03 0. -1.
         11   -1    0    0    0    0 -0.00000000000E+00 -0.00000000000E+00 -0.45593999997E+02  0.45594000000E+02  0.51100000000E-03 0.  1.
    9900012    2    1    2    0    0 -0.31137993649E+00  0.46175825329E+00  0.10402086562E+01  0.90008079580E+02  0.90000345430E+02 0.  0.
        -12    1    1    2    0    0  0.31137993649E+00 -0.46175825329E+00 -0.10402086562E+01  0.11799204201E+01  0.00000000000E+00 0.  1.
         11    1    3    3    0    0 -0.67450968259E+00 -0.76697893962E+01  0.44526157421E+02  0.45186937578E+02  0.51100000000E-03 0. -1.
        -11    1    3    3    0    0  0.11962493176E+01 -0.89778302200E+00 -0.10712547517E+02  0.10816455120E+02  0.51100000000E-03 0.  1.
        -12    1    3    3    0    0 -0.83311957148E+00  0.90293306715E+01 -0.32773401248E+02  0.34004686882E+02  0.00000000000E+00 0.  1.
</event>
<event>
 7    1  0.2593256E-015  0.9000769E+02  0.7816164E-02  0.1186339E+00
        -11   -1    0    0    0    0  0.00000000000E+00  0.00000000000E+00  0.45593999997E+02  0.45594000000E+02  0.51100000000E-03 0. -1.
         11   -1    0    0    0    0 -0.00000000000E+00 -0.00000000000E+00 -0.45593999997E+02  0.45594000000E+02  0.51100000000E-03 0.  1.
    9900012    2    1    2    0    0  0.65155609778E+00 -0.28026362053E+00  0.94342691353E+00  0.90007691826E+02  0.89999952558E+02 0.  0.
        -12    1    1    2    0    0 -0.65155609778E+00  0.28026362053E+00 -0.94342691353E+00  0.11803081745E+01  0.00000000000E+00 0.  1.
         11    1    3    3    0    0 -0.18518749496E+02  0.30602545703E+01 -0.14128019903E+02  0.23492768836E+02  0.51100000000E-03 0. -1.
        -11    1    3    3    0    0 -0.72108424918E+01 -0.26041667974E+02 -0.31933198564E+01  0.27209594122E+02  0.51100000000E-03 0.  1.
         12    1    3    3    0    0  0.26381148085E+02  0.22701149783E+02  0.18264766673E+02  0.39305328868E+02  0.00000000000E+00 0. -1.
</event>
<event>
 7    1  0.2593256E-015  0.9000772E+02  0.7816164E-02  0.1186339E+00
        -11   -1    0    0    0    0  0.00000000000E+00  0.00000000000E+00  0.45593999997E+02  0.45594000000E+02  0.51100000000E-03 0. -1.
         11   -1    0    0    0    0 -0.00000000000E+00 -0.00000000000E+00 -0.45593999997E+02  0.45594000000E+02  0.51100000000E-03 0.  1.
    9900012    2    1    2    0    0  0.32325503317E-01 -0.11692507794E+01 -0.15772729125E+00  0.90007716042E+02  0.89999977094E+02 0.  0.
        -12    1    1    2    0    0 -0.32325503317E-01  0.11692507794E+01  0.15772729125E+00  0.11802839581E+01  0.00000000000E+00 0.  1.
         11    1    3    3    0    0 -0.44470473508E+01 -0.12754720925E+01  0.87191463694E+01  0.98704900016E+01  0.51100000000E-03 0. -1.
        -11    1    3    3    0    0  0.38320398396E+02 -0.12274998648E+02  0.68547767307E+01  0.40818090222E+02  0.51100000000E-03 0.  1.
         12    1    3    3    0    0 -0.33841025542E+02  0.12381219961E+02 -0.15731650391E+02  0.39319135818E+02  0.00000000000E+00 0. -1.
</event>
<event>
 7    1  0.2593256E-015  0.9000783E+02  0.7816164E-02  0.1186339E+00
        -11   -1    0    0    0    0  0.00000000000E+00  0.00000000000E+00  0.45593999997E+02  0.45594000000E+02  0.51100000000E-03 0.  1.
         11   -1    0    0    0    0 -0.00000000000E+00 -0.00000000000E+00 -0.45593999997E+02  0.45594000000E+02  0.51100000000E-03 0. -1.
    9900012    2    1    2    0    0 -0.25670401304E+00 -0.48638670352E+00 -0.10441906417E+01  0.90007829219E+02  0.90000091765E+02 0.  0.
        -12    1    1    2    0    0  0.25670401304E+00  0.48638670352E+00  0.10441906417E+01  0.11801707808E+01  0.00000000000E+00 0.  1.
         11    1    3    3    0    0 -0.55029503201E+01 -0.38780475185E+01  0.31805493059E+01  0.74456436209E+01  0.51100000000E-03 0. -1.
        -11    1    3    3    0    0  0.26702661958E+02  0.33904183752E+02  0.67458099346E+01  0.43681023150E+02  0.51100000000E-03 0.  1.
         12    1    3    3    0    0 -0.21456415651E+02 -0.30512522937E+02 -0.10970549882E+02  0.38881162448E+02  0.00000000000E+00 0. -1.
</event>
<event>
 7    1  0.2593256E-015  0.9000778E+02  0.7816164E-02  0.1186339E+00
        -11   -1    0    0    0    0  0.00000000000E+00  0.00000000000E+00  0.45593999997E+02  0.45594000000E+02  0.51100000000E-03 0.  1.
         11   -1    0    0    0    0 -0.00000000000E+00 -0.00000000000E+00 -0.45593999997E+02  0.45594000000E+02  0.51100000000E-03 0. -1.
    9900012    2    1    2    0    0 -0.22835405641E+00 -0.85282220126E+00 -0.78324571729E+00  0.90007777506E+02  0.90000039369E+02 0.  0.
        -12    1    1    2    0    0  0.22835405641E+00  0.85282220126E+00  0.78324571729E+00  0.11802224941E+01  0.00000000000E+00 0.  1.
         11    1    3    3    0    0  0.20955609617E+01  0.63623104966E+01 -0.29166594097E+01  0.73059751555E+01  0.51100000000E-03 0. -1.
        -11    1    3    3    0    0  0.30151557084E+02  0.14911559162E+02  0.20428645900E+02  0.39354803580E+02  0.51100000000E-03 0.  1.
         12    1    3    3    0    0 -0.32475472102E+02 -0.22126691860E+02 -0.18295232208E+02  0.43346998771E+02  0.00000000000E+00 0. -1.
</event>
<event>
 7    1  0.2593256E-015  0.9000786E+02  0.7816164E-02  0.1186339E+00
        -11   -1    0    0    0    0  0.00000000000E+00  0.00000000000E+00  0.45593999997E+02  0.45594000000E+02  0.51100000000E-03 0.  1.
         11   -1    0    0    0    0 -0.00000000000E+00 -0.00000000000E+00 -0.45593999997E+02  0.45594000000E+02  0.51100000000E-03 0. -1.
    9900012    2    1    2    0    0  0.10351039181E+01 -0.36529338897E+00 -0.43340677530E+00  0.90007864070E+02  0.90000127075E+02 0.  0.
        -12    1    1    2    0    0 -0.10351039181E+01  0.36529338897E+00  0.43340677530E+00  0.11801359304E+01  0.00000000000E+00 0.  1.
         11    1    3    3    0    0  0.13865585528E+02 -0.92224126435E+01 -0.37222955588E+02  0.40778128697E+02  0.51100000000E-03 0. -1.
        -11    1    3    3    0    0  0.64330264833E+01 -0.46916758021E+01  0.41447252421E+01  0.89763243681E+01  0.51100000000E-03 0.  1.
        -12    1    3    3    0    0 -0.19263508094E+02  0.13548795057E+02  0.32644823571E+02  0.40253411005E+02  0.00000000000E+00 0.  1.
</event>
<event>
 7    1  0.2593256E-015  0.9000777E+02  0.7816164E-02  0.1186339E+00
        -11   -1    0    0    0    0  0.00000000000E+00  0.00000000000E+00  0.45593999997E+02  0.45594000000E+02  0.51100000000E-03 0.  1.
         11   -1    0    0    0    0 -0.00000000000E+00 -0.00000000000E+00 -0.45593999997E+02  0.45594000000E+02  0.51100000000E-03 0. -1.
    9900012    2    1    2    0    0  0.75885426903E+00 -0.19053478334E+00 -0.88362242149E+00  0.90007766172E+02  0.90000027885E+02 0.  0.
        -12    1    1    2    0    0 -0.75885426903E+00  0.19053478334E+00  0.88362242149E+00  0.11802338281E+01  0.00000000000E+00 0.  1.
         11    1    3    3    0    0  0.80297627345E+01  0.41917483481E+01  0.21123139548E+01  0.93010598477E+01  0.51100000000E-03 0. -1.
        -11    1    3    3    0    0 -0.16930970367E+02 -0.11504612712E+00  0.36279688196E+02  0.40036068351E+02  0.51100000000E-03 0.  1.
         12    1    3    3    0    0  0.96600619011E+01 -0.42672370043E+01 -0.39275624572E+02  0.40670637973E+02  0.00000000000E+00 0. -1.
</event>
<event>
 7    1  0.2593256E-015  0.9000768E+02  0.7816164E-02  0.1186339E+00
        -11   -1    0    0    0    0  0.00000000000E+00  0.00000000000E+00  0.45593999997E+02  0.45594000000E+02  0.51100000000E-03 0. -1.
         11   -1    0    0    0    0 -0.00000000000E+00 -0.00000000000E+00 -0.45593999997E+02  0.45594000000E+02  0.51100000000E-03 0.  1.
    9900012    2    1    2    0    0 -0.20382751844E+00  0.35347601773E+00  0.11075495732E+01  0.90007679277E+02  0.89999939843E+02 0.  0.
        -12    1    1    2    0    0  0.20382751844E+00 -0.35347601773E+00 -0.11075495732E+01  0.11803207232E+01  0.00000000000E+00 0.  1.
         11    1    3    3    0    0 -0.37239121993E+02  0.17569227364E+02 -0.93998974141E+01  0.42234914805E+02  0.51100000000E-03 0. -1.
        -11    1    3    3    0    0  0.48572178673E+00 -0.91627840579E+01  0.21958727370E+01  0.94347440180E+01  0.51100000000E-03 0.  1.
        -12    1    3    3    0    0  0.36549572687E+02 -0.80529672887E+01  0.83115742504E+01  0.38338020454E+02  0.00000000000E+00 0.  1.
</event>
<event>
 7    1  0.2593256E-015  0.9000776E+02  0.7816164E-02  0.1186339E+00
        -11   -1    0    0    0    0  0.00000000000E+00  0.00000000000E+00  0.45593999997E+02  0.45594000000E+02  0.51100000000E-03 0. -1.
         11   -1    0    0    0    0 -0.00000000000E+00 -0.00000000000E+00 -0.45593999997E+02  0.45594000000E+02  0.51100000000E-03 0.  1.
    9900012    2    1    2    0    0  0.16900907006E+00 -0.23116189411E+00  0.11449736744E+01  0.90007760786E+02  0.90000022428E+02 0.  0.
        -12    1    1    2    0    0 -0.16900907006E+00  0.23116189411E+00 -0.11449736744E+01  0.11802392139E+01  0.00000000000E+00 0.  1.
         11    1    3    3    0    0  0.34949306576E+02  0.16227012563E+02  0.14566653674E+02  0.41194142380E+02  0.51100000000E-03 0. -1.
        -11    1    3    3    0    0 -0.70820665528E+00 -0.80389646772E+01  0.46744515168E+01  0.93261464170E+01  0.51100000000E-03 0.  1.
        -12    1    3    3    0    0 -0.34072090851E+02 -0.84192097796E+01 -0.18096131517E+02  0.39487471990E+02  0.00000000000E+00 0.  1.
</event>
<event>
 7    1  0.2593256E-015  0.9000659E+02  0.7816164E-02  0.1186341E+00
        -11   -1    0    0    0    0  0.00000000000E+00  0.00000000000E+00  0.45593999997E+02  0.45594000000E+02  0.51100000000E-03 0.  1.
         11   -1    0    0    0    0 -0.00000000000E+00 -0.00000000000E+00 -0.45593999997E+02  0.45594000000E+02  0.51100000000E-03 0. -1.
    9900012    2    1    2    0    0 -0.54263024050E+00 -0.70500613120E+00 -0.77734153050E+00  0.90006585137E+02  0.89998831253E+02 0.  0.
        -12    1    1    2    0    0  0.54263024050E+00  0.70500613120E+00  0.77734153050E+00  0.11814148628E+01  0.00000000000E+00 0.  1.
         11    1    3    3    0    0  0.16173756940E+01 -0.78364307889E-01  0.88843634862E+01  0.90307231115E+01  0.51100000000E-03 0. -1.
        -11    1    3    3    0    0 -0.19558773876E+02 -0.21213204182E+02  0.24226157668E+02  0.37675620537E+02  0.51100000000E-03 0.  1.
         12    1    3    3    0    0  0.17398767942E+02  0.20586562359E+02 -0.33887862685E+02  0.43300241489E+02  0.00000000000E+00 0. -1.
</event>
<event>
 7    1  0.2593256E-015  0.9000773E+02  0.7816164E-02  0.1186339E+00
        -11   -1    0    0    0    0  0.00000000000E+00  0.00000000000E+00  0.45593999997E+02  0.45594000000E+02  0.51100000000E-03 0. -1.
         11   -1    0    0    0    0 -0.00000000000E+00 -0.00000000000E+00 -0.45593999997E+02  0.45594000000E+02  0.51100000000E-03 0.  1.
    9900012    2    1    2    0    0 -0.10808136439E+01  0.46859618385E+00 -0.72717211669E-01  0.90007733797E+02  0.89999995083E+02 0.  0.
        -12    1    1    2    0    0  0.10808136439E+01 -0.46859618385E+00  0.72717211669E-01  0.11802662027E+01  0.00000000000E+00 0.  1.
         11    1    3    3    0    0  0.59474714632E+00  0.78985007679E+01 -0.45892751399E+01  0.91543151093E+01  0.51100000000E-03 0. -1.
        -11    1    3    3    0    0  0.30801397685E+02 -0.14604590588E+02 -0.20010590649E+02  0.39527761181E+02  0.51100000000E-03 0.  1.
         12    1    3    3    0    0 -0.32476958475E+02  0.71746860044E+01  0.24527148577E+02  0.41325657507E+02  0.00000000000E+00 0. -1.
</event>
<event>
 7    1  0.2593256E-015  0.9000706E+02  0.7816164E-02  0.1186340E+00
        -11   -1    0    0    0    0  0.00000000000E+00  0.00000000000E+00  0.45593999997E+02  0.45594000000E+02  0.51100000000E-03 0.  1.
         11   -1    0    0    0    0 -0.00000000000E+00 -0.00000000000E+00 -0.45593999997E+02  0.45594000000E+02  0.51100000000E-03 0. -1.
    9900012    2    1    2    0    0  0.72513320431E+00  0.44697916468E+00 -0.81793180768E+00  0.90007059282E+02  0.89999311662E+02 0.  0.
        -12    1    1    2    0    0 -0.72513320431E+00 -0.44697916468E+00  0.81793180768E+00  0.11809407181E+01  0.00000000000E+00 0.  1.
         11    1    3    3    0    0  0.42428089029E+02  0.50094238276E+01 -0.37408633330E+01  0.42886257991E+02  0.51100000000E-03 0. -1.
        -11    1    3    3    0    0 -0.63905635727E+01  0.34510435190E+01 -0.64540261218E+01  0.97161441729E+01  0.51100000000E-03 0.  1.
        -12    1    3    3    0    0 -0.35312392252E+02 -0.80134881819E+01  0.93769576471E+01  0.37404657118E+02  0.00000000000E+00 0.  1.
</event>
<event>
 7    1  0.2593256E-015  0.9000763E+02  0.7816164E-02  0.1186339E+00
        -11   -1    0    0    0    0  0.00000000000E+00  0.00000000000E+00  0.45593999997E+02  0.45594000000E+02  0.51100000000E-03 0. -1.
         11   -1    0    0    0    0 -0.00000000000E+00 -0.00000000000E+00 -0.45593999997E+02  0.45594000000E+02  0.51100000000E-03 0.  1.
    9900012    2    1    2    0    0 -0.75446167263E+00  0.37033689497E+00  0.82880422767E+00  0.90007627907E+02  0.89999887795E+02 0.  0.
        -12    1    1    2    0    0  0.75446167263E+00 -0.37033689497E+00 -0.82880422767E+00  0.11803720935E+01  0.00000000000E+00 0.  1.
         11    1    3    3    0    0  0.50610192030E+01 -0.87150982194E+01 -0.11145549904E+01  0.10139481517E+02  0.51100000000E-03 0. -1.
        -11    1    3    3    0    0  0.24015393026E+02 -0.18309111614E+02  0.19262808234E+02  0.35819246944E+02  0.51100000000E-03 0.  1.
         12    1    3    3    0    0 -0.29830873901E+02  0.27394546729E+02 -0.17319449016E+02  0.44048899446E+02  0.00000000000E+00 0. -1.
</event>
<event>
 7    1  0.2593256E-015  0.9000792E+02  0.7816164E-02  0.1186339E+00
        -11   -1    0    0    0    0  0.00000000000E+00  0.00000000000E+00  0.45593999997E+02  0.45594000000E+02  0.51100000000E-03 0. -1.
         11   -1    0    0    0    0 -0.00000000000E+00 -0.00000000000E+00 -0.45593999997E+02  0.45594000000E+02  0.51100000000E-03 0.  1.
    9900012    2    1    2    0    0 -0.64636593109E-01  0.24058140029E+00  0.11534908201E+01  0.90007915947E+02  0.90000179638E+02 0.  0.
        -12    1    1    2    0    0  0.64636593109E-01 -0.24058140029E+00 -0.11534908201E+01  0.11800840527E+01  0.00000000000E+00 0.  1.
         11    1    3    3    0    0  0.20386688763E+02  0.22021661052E+02  0.15891855369E+02  0.33957645701E+02  0.51100000000E-03 0. -1.
        -11    1    3    3    0    0  0.75419517660E+01  0.86603513066E+01  0.15783603011E+01  0.11591977514E+02  0.51100000000E-03 0.  1.
        -12    1    3    3    0    0 -0.27993277122E+02 -0.30441430959E+02 -0.16316724850E+02  0.44458292732E+02  0.00000000000E+00 0.  1.
</event>
<event>
 7    1  0.2593256E-015  0.9000771E+02  0.7816164E-02  0.1186339E+00
        -11   -1    0    0    0    0  0.00000000000E+00  0.00000000000E+00  0.45593999997E+02  0.45594000000E+02  0.51100000000E-03 0.  1.
         11   -1    0    0    0    0 -0.00000000000E+00 -0.00000000000E+00 -0.45593999997E+02  0.45594000000E+02  0.51100000000E-03 0. -1.
    9900012    2    1    2    0    0  0.73275561010E+00  0.82399202260E+00 -0.42094711013E+00  0.90007707618E+02  0.89999968559E+02 0.  0.
        -12    1    1    2    0    0 -0.73275561010E+00 -0.82399202260E+00  0.42094711013E+00  0.11802923820E+01  0.00000000000E+00 0.  1.
         11    1    3    3    0    0  0.48738349459E+01 -0.62694765260E+01 -0.64261811523E+01  0.10215498395E+02  0.51100000000E-03 0. -1.
        -11    1    3    3    0    0  0.27928131557E+02  0.28376526627E+02 -0.40253914454E+01  0.40017640763E+02  0.51100000000E-03 0.  1.
         12    1    3    3    0    0 -0.32069210893E+02 -0.21283058079E+02  0.10030625488E+02  0.39774568460E+02  0.00000000000E+00 0. -1.
</event>
<event>
 7    1  0.2593256E-015  0.9000675E+02  0.7816164E-02  0.1186341E+00
        -11   -1    0    0    0    0  0.00000000000E+00  0.00000000000E+00  0.45593999997E+02  0.45594000000E+02  0.51100000000E-03 0.  1.
         11   -1    0    0    0    0 -0.00000000000E+00 -0.00000000000E+00 -0.45593999997E+02  0.45594000000E+02  0.51100000000E-03 0. -1.
    9900012    2    1    2    0    0 -0.11490439365E+01 -0.21570762112E+00 -0.16890458037E+00  0.90006746216E+02  0.89998994460E+02 0.  0.
        -12    1    1    2    0    0  0.11490439365E+01  0.21570762112E+00  0.16890458037E+00  0.11812537843E+01  0.00000000000E+00 0.  1.
         11    1    3    3    0    0  0.30411194636E+02  0.19097984612E+02  0.12670462981E+02  0.38080367748E+02  0.51100000000E-03 0. -1.
        -11    1    3    3    0    0 -0.20388440955E+01 -0.61852658425E+00  0.99716440693E+01  0.10196722321E+02  0.51100000000E-03 0.  1.
        -12    1    3    3    0    0 -0.29521394477E+02 -0.18695165649E+02 -0.22811011631E+02  0.41729656147E+02  0.00000000000E+00 0.  1.
</event>
<event>
 7    1  0.2593256E-015  0.9000771E+02  0.7816164E-02  0.1186339E+00
        -11   -1    0    0    0    0  0.00000000000E+00  0.00000000000E+00  0.45593999997E+02  0.45594000000E+02  0.51100000000E-03 0.  1.
         11   -1    0    0    0    0 -0.00000000000E+00 -0.00000000000E+00 -0.45593999997E+02  0.45594000000E+02  0.51100000000E-03 0. -1.
    9900012    2    1    2    0    0 -0.11622166490E+01 -0.19812475183E+00  0.55588797500E-01  0.90007707210E+02  0.89999968145E+02 0.  0.
        -12    1    1    2    0    0  0.11622166490E+01  0.19812475183E+00 -0.55588797500E-01  0.11802927903E+01  0.00000000000E+00 0.  1.
         11    1    3    3    0    0  0.31407815670E+01 -0.30027133205E+02 -0.22471613732E+02  0.37635975626E+02  0.51100000000E-03 0. -1.
        -11    1    3    3    0    0 -0.11298431259E+02 -0.29997518855E+01 -0.44376327905E+00  0.11698289892E+02  0.51100000000E-03 0.  1.
        -12    1    3    3    0    0  0.69954330434E+01  0.32828760339E+02  0.22970965808E+02  0.40673441691E+02  0.00000000000E+00 0.  1.
</event>
<event>
 7    1  0.2593256E-015  0.9000768E+02  0.7816164E-02  0.1186339E+00
        -11   -1    0    0    0    0  0.00000000000E+00  0.00000000000E+00  0.45593999997E+02  0.45594000000E+02  0.51100000000E-03 0. -1.
         11   -1    0    0    0    0 -0.00000000000E+00 -0.00000000000E+00 -0.45593999997E+02  0.45594000000E+02  0.51100000000E-03 0.  1.
    9900012    2    1    2    0    0  0.23684586173E+00  0.11495374640E+01  0.12501162731E+00  0.90007677904E+02  0.89999938452E+02 0.  0.
        -12    1    1    2    0    0 -0.23684586173E+00 -0.11495374640E+01 -0.12501162731E+00  0.11803220960E+01  0.00000000000E+00 0.  1.
         11    1    3    3    0    0 -0.53736078095E+01  0.33550934880E+01  0.78459345744E+01  0.10084195695E+02  0.51100000000E-03 0. -1.
        -11    1    3    3    0    0 -0.30497664687E+02 -0.17876398999E+02  0.10026980034E+02  0.36745251685E+02  0.51100000000E-03 0.  1.
         12    1    3    3    0    0  0.36108118358E+02  0.15670842975E+02 -0.17747902981E+02  0.43178230524E+02  0.00000000000E+00 0. -1.
</event>
<event>
 7    1  0.2593256E-015  0.9000756E+02  0.7816164E-02  0.1186339E+00
        -11   -1    0    0    0    0  0.00000000000E+00  0.00000000000E+00  0.45593999997E+02  0.45594000000E+02  0.51100000000E-03 0. -1.
         11   -1    0    0    0    0 -0.00000000000E+00 -0.00000000000E+00 -0.45593999997E+02  0.45594000000E+02  0.51100000000E-03 0.  1.
    9900012    2    1    2    0    0  0.81857976056E-01 -0.44450778050E+00  0.10904768496E+01  0.90007564633E+02  0.89999823686E+02 0.  0.
        -12    1    1    2    0    0 -0.81857976056E-01  0.44450778050E+00 -0.10904768496E+01  0.11804353666E+01  0.00000000000E+00 0.  1.
         11    1    3    3    0    0  0.11192184433E+02  0.33995691111E+02 -0.64852543171E+01  0.36373486639E+02  0.51100000000E-03 0. -1.
        -11    1    3    3    0    0  0.84076742577E+01  0.43260193393E+01 -0.57553037043E+00  0.94728382873E+01  0.51100000000E-03 0.  1.
        -12    1    3    3    0    0 -0.19518000714E+02 -0.38766218231E+02  0.81512615371E+01  0.44161239707E+02  0.00000000000E+00 0.  1.
</event>
<event>
 7    1  0.2593256E-015  0.9000796E+02  0.7816164E-02  0.1186339E+00
        -11   -1    0    0    0    0  0.00000000000E+00  0.00000000000E+00  0.45593999997E+02  0.45594000000E+02  0.51100000000E-03 0.  1.
         11   -1    0    0    0    0 -0.00000000000E+00 -0.00000000000E+00 -0.45593999997E+02  0.45594000000E+02  0.51100000000E-03 0. -1.
    9900012    2    1    2    0    0 -0.81240073927E+00 -0.66852462938E+00 -0.53438135073E+00  0.90007964590E+02  0.90000228922E+02 0.  0.
        -12    1    1    2    0    0  0.81240073927E+00  0.66852462938E+00  0.53438135073E+00  0.11800354102E+01  0.00000000000E+00 0.  1.
         11    1    3    3    0    0  0.24508272384E+02 -0.24326997675E+02  0.14162213896E+02  0.37323270674E+02  0.51100000000E-03 0. -1.
        -11    1    3    3    0    0  0.43192648338E+01 -0.38191269348E+01 -0.10592188217E+02  0.12059694471E+02  0.51100000000E-03 0.  1.
        -12    1    3    3    0    0 -0.29639937957E+02  0.27477599980E+02 -0.41044070293E+01  0.40624999444E+02  0.00000000000E+00 0.  1.
</event>
<event>
 7    1  0.2593256E-015  0.9000774E+02  0.7816164E-02  0.1186339E+00
        -11   -1    0    0    0    0  0.00000000000E+00  0.00000000000E+00  0.45593999997E+02  0.45594000000E+02  0.51100000000E-03 0.  1.
         11   -1    0    0    0    0 -0.00000000000E+00 -0.00000000000E+00 -0.45593999997E+02  0.45594000000E+02  0.51100000000E-03 0. -1.
    9900012    2    1    2    0    0  0.97420851043E+00 -0.55914993346E+00 -0.36232095653E+00  0.90007742678E+02  0.90000004082E+02 0.  0.
        -12    1    1    2    0    0 -0.97420851043E+00  0.55914993346E+00  0.36232095653E+00  0.11802573217E+01  0.00000000000E+00 0.  1.
         11    1    3    3    0    0  0.23240695949E+02  0.84026195948E+01  0.95475270692E+01  0.26493192289E+02  0.51100000000E-03 0. -1.
        -11    1    3    3    0    0  0.13560307862E+02  0.13995949841E+02  0.12387037743E+01  0.19526980016E+02  0.51100000000E-03 0.  1.
        -12    1    3    3    0    0 -0.35826795300E+02 -0.22957719369E+02 -0.11148551800E+02  0.43987570373E+02  0.00000000000E+00 0.  1.
</event>
<event>
 7    1  0.2593256E-015  0.9000779E+02  0.7816164E-02  0.1186339E+00
        -11   -1    0    0    0    0  0.00000000000E+00  0.00000000000E+00  0.45593999997E+02  0.45594000000E+02  0.51100000000E-03 0.  1.
         11   -1    0    0    0    0 -0.00000000000E+00 -0.00000000000E+00 -0.45593999997E+02  0.45594000000E+02  0.51100000000E-03 0. -1.
    9900012    2    1    2    0    0  0.55291824230E+00  0.54795083559E+00 -0.88709242936E+00  0.90007787443E+02  0.90000049437E+02 0.  0.
        -12    1    1    2    0    0 -0.55291824230E+00 -0.54795083559E+00  0.88709242936E+00  0.11802125567E+01  0.00000000000E+00 0.  1.
         11    1    3    3    0    0  0.25792348553E+02  0.13926999615E+02 -0.27483570303E+02  0.40181503195E+02  0.51100000000E-03 0. -1.
        -11    1    3    3    0    0 -0.17744504554E+01  0.78175535466E+01  0.13287543064E+02  0.15518428362E+02  0.51100000000E-03 0.  1.
        -12    1    3    3    0    0 -0.23464979855E+02 -0.21196602326E+02  0.13308934810E+02  0.34307855887E+02  0.00000000000E+00 0.  1.
</event>
<event>
 7    1  0.2593256E-015  0.9000769E+02  0.7816164E-02  0.1186339E+00
        -11   -1    0    0    0    0  0.00000000000E+00  0.00000000000E+00  0.45593999997E+02  0.45594000000E+02  0.51100000000E-03 0. -1.
         11   -1    0    0    0    0 -0.00000000000E+00 -0.00000000000E+00 -0.45593999997E+02  0.45594000000E+02  0.51100000000E-03 0.  1.
    9900012    2    1    2    0    0  0.88589188841E+00 -0.17280296990E+00  0.76056211284E+00  0.90007694941E+02  0.89999955714E+02 0.  0.
        -12    1    1    2    0    0 -0.88589188841E+00  0.17280296990E+00 -0.76056211284E+00  0.11803050588E+01  0.00000000000E+00 0.  1.
         11    1    3    3    0    0  0.64698437318E+01  0.57105040653E+01 -0.35576066617E+01  0.93340934222E+01  0.51100000000E-03 0. -1.
        -11    1    3    3    0    0 -0.17039216451E+02 -0.14075440423E+01 -0.35282691980E+02  0.39206943659E+02  0.51100000000E-03 0.  1.
         12    1    3    3    0    0  0.11455264608E+02 -0.44757629929E+01  0.39600860754E+02  0.41466657860E+02  0.00000000000E+00 0. -1.
</event>
<event>
 7    1  0.2593256E-015  0.9000769E+02  0.7816164E-02  0.1186339E+00
        -11   -1    0    0    0    0  0.00000000000E+00  0.00000000000E+00  0.45593999997E+02  0.45594000000E+02  0.51100000000E-03 0. -1.
         11   -1    0    0    0    0 -0.00000000000E+00 -0.00000000000E+00 -0.45593999997E+02  0.45594000000E+02  0.51100000000E-03 0.  1.
    9900012    2    1    2    0    0  0.41156309132E+00 -0.80268968585E+00  0.76120136702E+00  0.90007693925E+02  0.89999954685E+02 0.  0.
        -12    1    1    2    0    0 -0.41156309132E+00  0.80268968585E+00 -0.76120136702E+00  0.11803060752E+01  0.00000000000E+00 0.  1.
         11    1    3    3    0    0  0.11237597069E+00  0.99394276492E+00 -0.14152582971E+02  0.14187887637E+02  0.51100000000E-03 0. -1.
        -11    1    3    3    0    0  0.29563324896E+01  0.35285887995E+02  0.15462022697E+02  0.38638166876E+02  0.51100000000E-03 0.  1.
         12    1    3    3    0    0 -0.26571453690E+01 -0.37082520445E+02 -0.54823835882E+00  0.37181639412E+02  0.00000000000E+00 0. -1.
</event>
<event>
 7    1  0.2593256E-015  0.9000776E+02  0.7816164E-02  0.1186339E+00
        -11   -1    0    0    0    0  0.00000000000E+00  0.00000000000E+00  0.45593999997E+02  0.45594000000E+02  0.51100000000E-03 0. -1.
         11   -1    0    0    0    0 -0.00000000000E+00 -0.00000000000E+00 -0.45593999997E+02  0.45594000000E+02  0.51100000000E-03 0.  1.
    9900012    2    1    2    0    0 -0.16893026042E+00 -0.84971120520E+00  0.80151175491E+00  0.90007759491E+02  0.90000021117E+02 0.  0.
        -12    1    1    2    0    0  0.16893026042E+00  0.84971120520E+00 -0.80151175491E+00  0.11802405087E+01  0.00000000000E+00 0.  1.
         11    1    3    3    0    0 -0.23446348738E+02  0.72360346489E+01  0.28651637811E+02  0.37722775827E+02  0.51100000000E-03 0. -1.
        -11    1    3    3    0    0  0.21152565840E+01  0.13651942663E+02 -0.71242375405E+01  0.15543635665E+02  0.51100000000E-03 0.  1.
        -12    1    3    3    0    0  0.21162161893E+02 -0.21737688517E+02 -0.20725888516E+02  0.36741348000E+02  0.00000000000E+00 0.  1.
</event>
<event>
 7    1  0.2593256E-015  0.9000775E+02  0.7816164E-02  0.1186339E+00
        -11   -1    0    0    0    0  0.00000000000E+00  0.00000000000E+00  0.45593999997E+02  0.45594000000E+02  0.51100000000E-03 0.  1.
         11   -1    0    0    0    0 -0.00000000000E+00 -0.00000000000E+00 -0.45593999997E+02  0.45594000000E+02  0.51100000000E-03 0. -1.
    9900012    2    1    2    0    0  0.70971343496E-02  0.11360809595E+01 -0.31977824471E+00  0.90007750687E+02  0.90000012196E+02 0.  0.
        -12    1    1    2    0    0 -0.70971343496E-02 -0.11360809595E+01  0.31977824471E+00  0.11802493134E+01  0.00000000000E+00 0.  1.
         11    1    3    3    0    0 -0.62521154677E+01  0.15687923396E+01  0.64830890031E+01  0.91422371720E+01  0.51100000000E-03 0. -1.
        -11    1    3    3    0    0  0.32470624851E+02  0.23444561095E+02  0.10512982026E+02  0.41406662682E+02  0.51100000000E-03 0.  1.
         12    1    3    3    0    0 -0.26211412249E+02 -0.23877272475E+02 -0.17315849273E+02  0.39458850832E+02  0.00000000000E+00 0. -1.
</event>
<event>
 7    1  0.2593256E-015  0.9000775E+02  0.7816164E-02  0.1186339E+00
        -11   -1    0    0    0    0  0.00000000000E+00  0.00000000000E+00  0.45593999997E+02  0.45594000000E+02  0.51100000000E-03 0.  1.
         11   -1    0    0    0    0 -0.00000000000E+00 -0.00000000000E+00 -0.45593999997E+02  0.45594000000E+02  0.51100000000E-03 0. -1.
    9900012    2    1    2    0    0  0.59904174096E+00 -0.10725160291E+00 -0.10112524063E+01  0.90007751999E+02  0.90000013526E+02 0.  0.
        -12    1    1    2    0    0 -0.59904174096E+00  0.10725160291E+00  0.10112524063E+01  0.11802480006E+01  0.00000000000E+00 0.  1.
         11    1    3    3    0    0 -0.29864845243E+02 -0.13241553601E+02  0.75542996228E+01  0.33530809209E+02  0.51100000000E-03 0. -1.
        -11    1    3    3    0    0 -0.46319520843E+01 -0.58557764568E+01  0.99881895632E+01  0.12470325939E+02  0.51100000000E-03 0.  1.
        -12    1    3    3    0    0  0.35095839068E+02  0.18990078455E+02 -0.18553741592E+02  0.44006616851E+02  0.00000000000E+00 0.  1.
</event>
<event>
 7    1  0.2593256E-015  0.9000772E+02  0.7816164E-02  0.1186339E+00
        -11   -1    0    0    0    0  0.00000000000E+00  0.00000000000E+00  0.45593999997E+02  0.45594000000E+02  0.51100000000E-03 0.  1.
         11   -1    0    0    0    0 -0.00000000000E+00 -0.00000000000E+00 -0.45593999997E+02  0.45594000000E+02  0.51100000000E-03 0. -1.
    9900012    2    1    2    0    0  0.67393986809E+00  0.92918370585E+00  0.27475052238E+00  0.90007718188E+02  0.89999979269E+02 0.  0.
        -12    1    1    2    0    0 -0.67393986809E+00 -0.92918370585E+00 -0.27475052238E+00  0.11802818115E+01  0.00000000000E+00 0.  1.
         11    1    3    3    0    0 -0.62231210022E+01  0.60127060179E+01 -0.34883985090E+01  0.93299942703E+01  0.51100000000E-03 0. -1.
        -11    1    3    3    0    0 -0.32850307248E+02  0.12908596415E+02  0.98033516975E+01  0.36631683724E+02  0.51100000000E-03 0.  1.
         12    1    3    3    0    0  0.39747368118E+02 -0.17992118727E+02 -0.60402026662E+01  0.44046040195E+02  0.00000000000E+00 0. -1.
</event>
<event>
 7    1  0.2593256E-015  0.9000775E+02  0.7816164E-02  0.1186339E+00
        -11   -1    0    0    0    0  0.00000000000E+00  0.00000000000E+00  0.45593999997E+02  0.45594000000E+02  0.51100000000E-03 0. -1.
         11   -1    0    0    0    0 -0.00000000000E+00 -0.00000000000E+00 -0.45593999997E+02  0.45594000000E+02  0.51100000000E-03 0.  1.
    9900012    2    1    2    0    0 -0.41296214713E+00  0.66462029691E+00  0.88358509722E+00  0.90007754052E+02  0.90000015605E+02 0.  0.
        -12    1    1    2    0    0  0.41296214713E+00 -0.66462029691E+00 -0.88358509722E+00  0.11802459481E+01  0.00000000000E+00 0.  1.
         11    1    3    3    0    0 -0.96576225287E+01  0.11067752590E+01  0.10826600561E+01  0.97809394968E+01  0.51100000000E-03 0. -1.
        -11    1    3    3    0    0  0.33717514938E+02  0.24571789319E+02 -0.11803180991E+02  0.43358490814E+02  0.51100000000E-03 0.  1.
         12    1    3    3    0    0 -0.24472854556E+02 -0.25013944281E+02  0.11604106032E+02  0.36868323741E+02  0.00000000000E+00 0. -1.
</event>
<event>
 7    1  0.2593256E-015  0.9000788E+02  0.7816164E-02  0.1186339E+00
        -11   -1    0    0    0    0  0.00000000000E+00  0.00000000000E+00  0.45593999997E+02  0.45594000000E+02  0.51100000000E-03 0. -1.
         11   -1    0    0    0    0 -0.00000000000E+00 -0.00000000000E+00 -0.45593999997E+02  0.45594000000E+02  0.51100000000E-03 0.  1.
    9900012    2    1    2    0    0 -0.47365708227E+00  0.66626318269E+00  0.85113331532E+00  0.90007878997E+02  0.90000142200E+02 0.  0.
        -12    1    1    2    0    0  0.47365708227E+00 -0.66626318269E+00 -0.85113331532E+00  0.11801210025E+01  0.00000000000E+00 0.  1.
         11    1    3    3    0    0 -0.78578038452E+01 -0.36812373079E+00  0.13294666738E+02  0.15447613417E+02  0.51100000000E-03 0. -1.
        -11    1    3    3    0    0 -0.83147540081E+00 -0.34503340788E+02  0.36240336428E+01  0.34703105005E+02  0.51100000000E-03 0.  1.
         12    1    3    3    0    0  0.82156221637E+01  0.35537727701E+02 -0.16067567066E+02  0.39857160575E+02  0.00000000000E+00 0. -1.
</event>
<event>
 7    1  0.2593256E-015  0.9000773E+02  0.7816164E-02  0.1186339E+00
        -11   -1    0    0    0    0  0.00000000000E+00  0.00000000000E+00  0.45593999997E+02  0.45594000000E+02  0.51100000000E-03 0. -1.
         11   -1    0    0    0    0 -0.00000000000E+00 -0.00000000000E+00 -0.45593999997E+02  0.45594000000E+02  0.51100000000E-03 0.  1.
    9900012    2    1    2    0    0  0.18721484753E+00  0.95791386302E+00  0.66362013202E+00  0.90007728824E+02  0.89999990045E+02 0.  0.
        -12    1    1    2    0    0 -0.18721484753E+00 -0.95791386302E+00 -0.66362013202E+00  0.11802711755E+01  0.00000000000E+00 0.  1.
         11    1    3    3    0    0  0.72572531978E+01  0.68660664775E+01 -0.54887677499E+01  0.11398998400E+02  0.51100000000E-03 0. -1.
        -11    1    3    3    0    0  0.34362001754E+02 -0.84188543143E+01  0.10422549117E+02  0.36881618767E+02  0.51100000000E-03 0.  1.
         12    1    3    3    0    0 -0.41432040105E+02  0.25107016998E+01 -0.42701612355E+01  0.41727111657E+02  0.00000000000E+00 0. -1.
</event>
<event>
 7    1  0.2593256E-015  0.9000772E+02  0.7816164E-02  0.1186339E+00
        -11   -1    0    0    0    0  0.00000000000E+00  0.00000000000E+00  0.45593999997E+02  0.45594000000E+02  0.51100000000E-03 0. -1.
         11   -1    0    0    0    0 -0.00000000000E+00 -0.00000000000E+00 -0.45593999997E+02  0.45594000000E+02  0.51100000000E-03 0.  1.
    9900012    2    1    2    0    0 -0.16402228017E+00 -0.45750062269E+00  0.10755651074E+01  0.90007724427E+02  0.89999985589E+02 0.  0.
        -12    1    1    2    0    0  0.16402228017E+00  0.45750062269E+00 -0.10755651074E+01  0.11802755731E+01  0.00000000000E+00 0.  1.
         11    1    3    3    0    0  0.34746613991E+02 -0.26528511332E+02  0.25033479290E+01  0.43787622092E+02  0.51100000000E-03 0. -1.
        -11    1    3    3    0    0 -0.50534936366E+01  0.50673844086E+01 -0.61180168068E+01  0.94152170761E+01  0.51100000000E-03 0.  1.
        -12    1    3    3    0    0 -0.29857142635E+02  0.21003626301E+02  0.46902339853E+01  0.36804885259E+02  0.00000000000E+00 0.  1.
</event>
<event>
 7    1  0.2593256E-015  0.9000757E+02  0.7816164E-02  0.1186339E+00
        -11   -1    0    0    0    0  0.00000000000E+00  0.00000000000E+00  0.45593999997E+02  0.45594000000E+02  0.51100000000E-03 0. -1.
         11   -1    0    0    0    0 -0.00000000000E+00 -0.00000000000E+00 -0.45593999997E+02  0.45594000000E+02  0.51100000000E-03 0.  1.
    9900012    2    1    2    0    0  0.64780049792E+00 -0.68996848297E+00 -0.70548988619E+00  0.90007568735E+02  0.89999827842E+02 0.  0.
        -12    1    1    2    0    0 -0.64780049792E+00  0.68996848297E+00  0.70548988619E+00  0.11804312653E+01  0.00000000000E+00 0.  1.
         11    1    3    3    0    0 -0.78882309776E+01  0.49900750172E+01 -0.11457901721E+01  0.94041412161E+01  0.51100000000E-03 0. -1.
        -11    1    3    3    0    0 -0.14582263198E+02  0.21723061559E+01 -0.34764076900E+02  0.37761122296E+02  0.51100000000E-03 0.  1.
         12    1    3    3    0    0  0.23118294674E+02 -0.78523496561E+01  0.35204377186E+02  0.42842305223E+02  0.00000000000E+00 0. -1.
</event>
<event>
 7    1  0.2593256E-015  0.9000742E+02  0.7816164E-02  0.1186340E+00
        -11   -1    0    0    0    0  0.00000000000E+00  0.00000000000E+00  0.45593999997E+02  0.45594000000E+02  0.51100000000E-03 0.  1.
         11   -1    0    0    0    0 -0.00000000000E+00 -0.00000000000E+00 -0.45593999997E+02  0.45594000000E+02  0.51100000000E-03 0. -1.
    9900012    2    1    2    0    0  0.10865074896E+01  0.14325503108E+00 -0.43904123273E+00  0.90007416359E+02  0.89999673455E+02 0.  0.
        -12    1    1    2    0    0 -0.10865074896E+01 -0.14325503108E+00  0.43904123273E+00  0.11805836408E+01  0.00000000000E+00 0.  1.
         11    1    3    3    0    0 -0.22952035566E+02  0.10232314849E+02 -0.25577613839E+02  0.35856805961E+02  0.51100000000E-03 0. -1.
        -11    1    3    3    0    0  0.10880251033E+02  0.53583541140E+01 -0.85386710398E+01  0.14832421405E+02  0.51100000000E-03 0.  1.
        -12    1    3    3    0    0  0.13158292022E+02 -0.15447413932E+02  0.33677243646E+02  0.39318188993E+02  0.00000000000E+00 0.  1.
</event>
<event>
 7    1  0.2593256E-015  0.9000781E+02  0.7816164E-02  0.1186339E+00
        -11   -1    0    0    0    0  0.00000000000E+00  0.00000000000E+00  0.45593999997E+02  0.45594000000E+02  0.51100000000E-03 0. -1.
         11   -1    0    0    0    0 -0.00000000000E+00 -0.00000000000E+00 -0.45593999997E+02  0.45594000000E+02  0.51100000000E-03 0.  1.
    9900012    2    1    2    0    0 -0.74119992570E+00  0.85009900122E+00 -0.34757585192E+00  0.90007807382E+02  0.90000069640E+02 0.  0.
        -12    1    1    2    0    0  0.74119992570E+00 -0.85009900122E+00  0.34757585192E+00  0.11801926176E+01  0.00000000000E+00 0.  1.
         11    1    3    3    0    0 -0.52002351489E+01 -0.16681723957E+02 -0.25552246595E+00  0.17475344110E+02  0.51100000000E-03 0. -1.
        -11    1    3    3    0    0  0.36701913248E+02  0.13512022974E+02 -0.58141493165E+01  0.39539973868E+02  0.51100000000E-03 0.  1.
         12    1    3    3    0    0 -0.32242878025E+02  0.40197999844E+01  0.57220959305E+01  0.32992489404E+02  0.00000000000E+00 0. -1.
</event>
<event>
 7    1  0.2593256E-015  0.9000750E+02  0.7816164E-02  0.1186340E+00
        -11   -1    0    0    0    0  0.00000000000E+00  0.00000000000E+00  0.45593999997E+02  0.45594000000E+02  0.51100000000E-03 0. -1.
         11   -1    0    0    0    0 -0.00000000000E+00 -0.00000000000E+00 -0.45593999997E+02  0.45594000000E+02  0.51100000000E-03 0.  1.
    9900012    2    1    2    0    0 -0.13470644153E+00  0.74283020200E+00  0.90754189278E+00  0.90007502299E+02  0.89999760529E+02 0.  0.
        -12    1    1    2    0    0  0.13470644153E+00 -0.74283020200E+00 -0.90754189278E+00  0.11804977008E+01  0.00000000000E+00 0.  1.
         11    1    3    3    0    0 -0.19174784583E+02  0.34492231696E+02 -0.47069475883E+01  0.39743449360E+02  0.51100000000E-03 0. -1.
        -11    1    3    3    0    0  0.71558753541E+01 -0.21452039792E+01 -0.10471591429E+02  0.12863229747E+02  0.51100000000E-03 0.  1.
        -12    1    3    3    0    0  0.11884202788E+02 -0.31604197514E+02  0.16086080910E+02  0.37400823193E+02  0.00000000000E+00 0.  1.
</event>
<event>
 7    1  0.2593256E-015  0.9000777E+02  0.7816164E-02  0.1186339E+00
        -11   -1    0    0    0    0  0.00000000000E+00  0.00000000000E+00  0.45593999997E+02  0.45594000000E+02  0.51100000000E-03 0.  1.
         11   -1    0    0    0    0 -0.00000000000E+00 -0.00000000000E+00 -0.45593999997E+02  0.45594000000E+02  0.51100000000E-03 0. -1.
    9900012    2    1    2    0    0  0.10672714915E+01 -0.19524875076E+00 -0.46449379579E+00  0.90007769091E+02  0.90000030843E+02 0.  0.
        -12    1    1    2    0    0 -0.10672714915E+01  0.19524875076E+00  0.46449379579E+00  0.11802309086E+01  0.00000000000E+00 0.  1.
         11    1    3    3    0    0 -0.35839306568E+01  0.79155497553E+01  0.31256721744E+01  0.92341926384E+01  0.51100000000E-03 0. -1.
        -11    1    3    3    0    0  0.87925925587E+01 -0.23334696318E+02  0.32746196184E+02  0.41159823869E+02  0.51100000000E-03 0.  1.
         12    1    3    3    0    0 -0.41413904104E+01  0.15223897812E+02 -0.36336362154E+02  0.39613752583E+02  0.00000000000E+00 0. -1.
</event>
<event>
 7    1  0.2593256E-015  0.9000776E+02  0.7816164E-02  0.1186339E+00
        -11   -1    0    0    0    0  0.00000000000E+00  0.00000000000E+00  0.45593999997E+02  0.45594000000E+02  0.51100000000E-03 0.  1.
         11   -1    0    0    0    0 -0.00000000000E+00 -0.00000000000E+00 -0.45593999997E+02  0.45594000000E+02  0.51100000000E-03 0. -1.
    9900012    2    1    2    0    0  0.37896888026E+00  0.10963502995E+01 -0.21766012390E+00  0.90007755398E+02  0.90000016969E+02 0.  0.
        -12    1    1    2    0    0 -0.37896888026E+00 -0.10963502995E+01  0.21766012390E+00  0.11802446022E+01  0.00000000000E+00 0.  1.
         11    1    3    3    0    0  0.17288747208E+02  0.35699310754E+02  0.54904389333E+01  0.40043557388E+02  0.51100000000E-03 0. -1.
        -11    1    3    3    0    0 -0.37511225735E+01  0.23045313378E+01  0.74306932393E+01  0.86369547600E+01  0.51100000000E-03 0.  1.
        -12    1    3    3    0    0 -0.13158655754E+02 -0.36907491792E+02 -0.13138792297E+02  0.41327243250E+02  0.00000000000E+00 0.  1.
</event>
<event>
 7    1  0.2593256E-015  0.9000772E+02  0.7816164E-02  0.1186339E+00
        -11   -1    0    0    0    0  0.00000000000E+00  0.00000000000E+00  0.45593999997E+02  0.45594000000E+02  0.51100000000E-03 0. -1.
         11   -1    0    0    0    0 -0.00000000000E+00 -0.00000000000E+00 -0.45593999997E+02  0.45594000000E+02  0.51100000000E-03 0.  1.
    9900012    2    1    2    0    0 -0.38727310327E+00  0.17219325549E+00  0.11015559270E+01  0.90007721883E+02  0.89999983012E+02 0.  0.
        -12    1    1    2    0    0  0.38727310327E+00 -0.17219325549E+00 -0.11015559270E+01  0.11802781172E+01  0.00000000000E+00 0.  1.
         11    1    3    3    0    0  0.22568941415E+00  0.22020563948E+01 -0.88109453901E+01  0.90847535468E+01  0.51100000000E-03 0. -1.
        -11    1    3    3    0    0 -0.30020754115E+01 -0.38402852474E+02  0.19580925434E+02  0.43211158004E+02  0.51100000000E-03 0.  1.
         12    1    3    3    0    0  0.23891128941E+01  0.36372989335E+02 -0.96684241169E+01  0.37711810332E+02  0.00000000000E+00 0. -1.
</event>
<event>
 7    1  0.2593256E-015  0.9000763E+02  0.7816164E-02  0.1186339E+00
        -11   -1    0    0    0    0  0.00000000000E+00  0.00000000000E+00  0.45593999997E+02  0.45594000000E+02  0.51100000000E-03 0.  1.
         11   -1    0    0    0    0 -0.00000000000E+00 -0.00000000000E+00 -0.45593999997E+02  0.45594000000E+02  0.51100000000E-03 0. -1.
    9900012    2    1    2    0    0 -0.10635905181E+01  0.28500418975E+00 -0.42524328555E+00  0.90007625470E+02  0.89999885327E+02 0.  0.
        -12    1    1    2    0    0  0.10635905181E+01 -0.28500418975E+00  0.42524328555E+00  0.11803745296E+01  0.00000000000E+00 0.  1.
         11    1    3    3    0    0  0.18258978247E+01 -0.46486307417E+01  0.19473781754E+02  0.20104025634E+02  0.51100000000E-03 0. -1.
        -11    1    3    3    0    0 -0.11265275765E+02 -0.27755296414E+02 -0.20249812628E+02  0.36156850372E+02  0.51100000000E-03 0.  1.
         12    1    3    3    0    0  0.83757874222E+01  0.32688931346E+02  0.35078758858E+00  0.33746749464E+02  0.00000000000E+00 0. -1.
</event>
<event>
 7    1  0.2593256E-015  0.9000794E+02  0.7816164E-02  0.1186339E+00
        -11   -1    0    0    0    0  0.00000000000E+00  0.00000000000E+00  0.45593999997E+02  0.45594000000E+02  0.51100000000E-03 0. -1.
         11   -1    0    0    0    0 -0.00000000000E+00 -0.00000000000E+00 -0.45593999997E+02  0.45594000000E+02  0.51100000000E-03 0.  1.
    9900012    2    1    2    0    0  0.37510679735E+00 -0.98661824570E+00 -0.52765810333E+00  0.90007939092E+02  0.90000203088E+02 0.  0.
        -12    1    1    2    0    0 -0.37510679735E+00  0.98661824570E+00  0.52765810333E+00  0.11800609078E+01  0.00000000000E+00 0.  1.
         11    1    3    3    0    0  0.39441283493E+01 -0.39751575978E+01 -0.94766360558E+01  0.11007481890E+02  0.51100000000E-03 0. -1.
        -11    1    3    3    0    0  0.35292723612E+02  0.16576926743E+01 -0.85630433977E+01  0.36354504500E+02  0.51100000000E-03 0.  1.
         12    1    3    3    0    0 -0.38861745164E+02  0.13308466778E+01  0.17512021350E+02  0.42645952702E+02  0.00000000000E+00 0. -1.
</event>
<event>
 7    1  0.2593256E-015  0.9000744E+02  0.7816164E-02  0.1186340E+00
        -11   -1    0    0    0    0  0.00000000000E+00  0.00000000000E+00  0.45593999997E+02  0.45594000000E+02  0.51100000000E-03 0. -1.
         11   -1    0    0    0    0 -0.00000000000E+00 -0.00000000000E+00 -0.45593999997E+02  0.45594000000E+02  0.51100000000E-03 0.  1.
    9900012    2    1    2    0    0 -0.61593566380E+00  0.93473440959E+00 -0.37498204044E+00  0.90007442213E+02  0.89999699649E+02 0.  0.
        -12    1    1    2    0    0  0.61593566380E+00 -0.93473440959E+00  0.37498204044E+00  0.11805577873E+01  0.00000000000E+00 0.  1.
         11    1    3    3    0    0 -0.21260670348E+02  0.21527653218E+02  0.53689344855E+01  0.30729162281E+02  0.51100000000E-03 0. -1.
        -11    1    3    3    0    0 -0.77469015679E+01  0.11437591895E+02 -0.87801835234E+01  0.16368402953E+02  0.51100000000E-03 0.  1.
        -12    1    3    3    0    0  0.28391636252E+02 -0.32030510704E+02  0.30362669975E+01  0.42909876979E+02  0.00000000000E+00 0.  1.
</event>
<event>
 7    1  0.2593256E-015  0.9000778E+02  0.7816164E-02  0.1186339E+00
        -11   -1    0    0    0    0  0.00000000000E+00  0.00000000000E+00  0.45593999997E+02  0.45594000000E+02  0.51100000000E-03 0.  1.
         11   -1    0    0    0    0 -0.00000000000E+00 -0.00000000000E+00 -0.45593999997E+02  0.45594000000E+02  0.51100000000E-03 0. -1.
    9900012    2    1    2    0    0  0.66334796999E+00 -0.17479999371E+00 -0.96038106577E+00  0.90007780801E+02  0.90000042707E+02 0.  0.
        -12    1    1    2    0    0 -0.66334796999E+00  0.17479999371E+00  0.96038106577E+00  0.11802191994E+01  0.00000000000E+00 0.  1.
         11    1    3    3    0    0 -0.54580041308E+01 -0.68577872521E+01  0.33894663845E+01  0.93972090389E+01  0.51100000000E-03 0. -1.
        -11    1    3    3    0    0  0.27912327075E+02  0.13458965006E+02  0.27499132824E+02  0.41429989718E+02  0.51100000000E-03 0.  1.
         12    1    3    3    0    0 -0.21790974974E+02 -0.67759777471E+01 -0.31848980274E+02  0.39180582043E+02  0.00000000000E+00 0. -1.
</event>
<event>
 7    1  0.2593256E-015  0.9000780E+02  0.7816164E-02  0.1186339E+00
        -11   -1    0    0    0    0  0.00000000000E+00  0.00000000000E+00  0.45593999997E+02  0.45594000000E+02  0.51100000000E-03 0.  1.
         11   -1    0    0    0    0 -0.00000000000E+00 -0.00000000000E+00 -0.45593999997E+02  0.45594000000E+02  0.51100000000E-03 0. -1.
    9900012    2    1    2    0    0 -0.41673238851E-01 -0.90077037474E+00  0.76141813577E+00  0.90007795990E+02  0.90000058097E+02 0.  0.
        -12    1    1    2    0    0  0.41673238851E-01  0.90077037474E+00 -0.76141813577E+00  0.11802040096E+01  0.00000000000E+00 0.  1.
         11    1    3    3    0    0 -0.52721300486E+01  0.68231402663E+00  0.71199827509E+01  0.88856661154E+01  0.51100000000E-03 0. -1.
        -11    1    3    3    0    0 -0.22666338584E+02 -0.30376552215E+02 -0.13820876789E+02  0.40342464783E+02  0.51100000000E-03 0.  1.
         12    1    3    3    0    0  0.27896795394E+02  0.28793467814E+02  0.74623121744E+01  0.40779665092E+02  0.00000000000E+00 0. -1.
</event>
<event>
 7    1  0.2593256E-015  0.9000779E+02  0.7816164E-02  0.1186339E+00
        -11   -1    0    0    0    0  0.00000000000E+00  0.00000000000E+00  0.45593999997E+02  0.45594000000E+02  0.51100000000E-03 0.  1.
         11   -1    0    0    0    0 -0.00000000000E+00 -0.00000000000E+00 -0.45593999997E+02  0.45594000000E+02  0.51100000000E-03 0. -1.
    9900012    2    1    2    0    0  0.58483334193E-01  0.57405532372E+00 -0.10295365888E+01  0.90007785866E+02  0.90000047839E+02 0.  0.
        -12    1    1    2    0    0 -0.58483334193E-01 -0.57405532372E+00  0.10295365888E+01  0.11802141343E+01  0.00000000000E+00 0.  1.
         11    1    3    3    0    0 -0.55203964011E+01  0.17047917383E+02 -0.41300206902E+01  0.18389217892E+02  0.51100000000E-03 0. -1.
        -11    1    3    3    0    0 -0.24681552138E+02  0.55724378479E+01  0.18283609009E+02  0.31217325930E+02  0.51100000000E-03 0.  1.
         12    1    3    3    0    0  0.30260431873E+02 -0.22046299907E+02 -0.15183124908E+02  0.40401242044E+02  0.00000000000E+00 0. -1.
</event>
<event>
 7    1  0.3708612E-015  0.9000787E+02  0.7816164E-02  0.1186339E+00
        -11   -1    0    0    0    0  0.00000000000E+00  0.00000000000E+00  0.45593999997E+02  0.45594000000E+02  0.51100000000E-03 0. -1.
         11   -1    0    0    0    0 -0.00000000000E+00 -0.00000000000E+00 -0.45593999997E+02  0.45594000000E+02  0.51100000000E-03 0.  1.
    9900012    2    1    2    0    0  0.22583354342E+00  0.11073376642E+01  0.33985103379E+00  0.90007874491E+02  0.90000137634E+02 0.  0.
        -12    1    1    2    0    0 -0.22583354342E+00 -0.11073376642E+01 -0.33985103379E+00  0.11801255091E+01  0.00000000000E+00 0.  1.
         11    1    3    3    0    0  0.14538772165E+02 -0.31640240570E+02  0.18109396651E+02  0.39248324382E+02  0.51100000000E-03 0. -1.
        -11    1    3    3    0    0 -0.42430095048E+00  0.43567370686E+01  0.85659747153E+01  0.96196212122E+01  0.51100000000E-03 0.  1.
        -12    1    3    3    0    0 -0.13888637672E+02  0.28390841166E+02 -0.26335520333E+02  0.41139928897E+02  0.00000000000E+00 0.  1.
</event>
<event>
 7    1  0.2593256E-015  0.9000776E+02  0.7816164E-02  0.1186339E+00
        -11   -1    0    0    0    0  0.00000000000E+00  0.00000000000E+00  0.45593999997E+02  0.45594000000E+02  0.51100000000E-03 0.  1.
         11   -1    0    0    0    0 -0.00000000000E+00 -0.00000000000E+00 -0.45593999997E+02  0.45594000000E+02  0.51100000000E-03 0. -1.
    9900012    2    1    2    0    0  0.32298301736E+00  0.11122552759E+01  0.22702269943E+00  0.90007758866E+02  0.90000020483E+02 0.  0.
        -12    1    1    2    0    0 -0.32298301736E+00 -0.11122552759E+01 -0.22702269943E+00  0.11802411340E+01  0.00000000000E+00 0.  1.
         11    1    3    3    0    0  0.25970760273E+02  0.15160605536E+01 -0.17957102847E+02  0.31610700272E+02  0.51100000000E-03 0. -1.
        -11    1    3    3    0    0 -0.24950441902E+02 -0.10402018161E+01 -0.12342547819E+02  0.27855790383E+02  0.51100000000E-03 0.  1.
        -12    1    3    3    0    0 -0.69733535338E+00  0.63639653839E+00  0.30526673366E+02  0.30541268211E+02  0.00000000000E+00 0.  1.
</event>
<event>
 7    1  0.2593256E-015  0.9000758E+02  0.7816164E-02  0.1186339E+00
        -11   -1    0    0    0    0  0.00000000000E+00  0.00000000000E+00  0.45593999997E+02  0.45594000000E+02  0.51100000000E-03 0. -1.
         11   -1    0    0    0    0 -0.00000000000E+00 -0.00000000000E+00 -0.45593999997E+02  0.45594000000E+02  0.51100000000E-03 0.  1.
    9900012    2    1    2    0    0  0.10508303408E+01  0.11155401824E+00  0.52602177293E+00  0.90007581596E+02  0.89999840872E+02 0.  0.
        -12    1    1    2    0    0 -0.10508303408E+01 -0.11155401824E+00 -0.52602177293E+00  0.11804184045E+01  0.00000000000E+00 0.  1.
         11    1    3    3    0    0 -0.12523942861E+01 -0.64790318042E+01  0.61603146015E+01  0.90275035762E+01  0.51100000000E-03 0. -1.
        -11    1    3    3    0    0 -0.33476896748E+02 -0.15672563329E+02 -0.10835395615E+02  0.38519315357E+02  0.51100000000E-03 0.  1.
         12    1    3    3    0    0  0.35780121375E+02  0.22263149151E+02  0.52011027861E+01  0.42460762663E+02  0.00000000000E+00 0. -1.
</event>
<event>
 7    1  0.2593256E-015  0.9000772E+02  0.7816164E-02  0.1186339E+00
        -11   -1    0    0    0    0  0.00000000000E+00  0.00000000000E+00  0.45593999997E+02  0.45594000000E+02  0.51100000000E-03 0. -1.
         11   -1    0    0    0    0 -0.00000000000E+00 -0.00000000000E+00 -0.45593999997E+02  0.45594000000E+02  0.51100000000E-03 0.  1.
    9900012    2    1    2    0    0  0.55557715101E+00 -0.10386179032E+01 -0.75209712457E-01  0.90007724769E+02  0.89999985936E+02 0.  0.
        -12    1    1    2    0    0 -0.55557715101E+00  0.10386179032E+01  0.75209712457E-01  0.11802752308E+01  0.00000000000E+00 0.  1.
         11    1    3    3    0    0  0.13841419206E+02 -0.29759769961E+02  0.22966884961E+02  0.40058789283E+02  0.51100000000E-03 0. -1.
        -11    1    3    3    0    0 -0.61968727095E+01  0.16364631181E+01  0.65829358426E+01  0.91877248263E+01  0.51100000000E-03 0.  1.
        -12    1    3    3    0    0 -0.70889693459E+01  0.27084688940E+02 -0.29625030516E+02  0.40761210659E+02  0.00000000000E+00 0.  1.
</event>
<event>
 7    1  0.2593256E-015  0.9000768E+02  0.7816164E-02  0.1186339E+00
        -11   -1    0    0    0    0  0.00000000000E+00  0.00000000000E+00  0.45593999997E+02  0.45594000000E+02  0.51100000000E-03 0. -1.
         11   -1    0    0    0    0 -0.00000000000E+00 -0.00000000000E+00 -0.45593999997E+02  0.45594000000E+02  0.51100000000E-03 0.  1.
    9900012    2    1    2    0    0  0.26913125542E+00  0.94998047168E+00  0.64672623987E+00  0.90007682518E+02  0.89999943127E+02 0.  0.
        -12    1    1    2    0    0 -0.26913125542E+00 -0.94998047168E+00 -0.64672623987E+00  0.11803174821E+01  0.00000000000E+00 0.  1.
         11    1    3    3    0    0  0.26898699236E+01  0.12952004539E+01  0.87770226073E+01  0.92708721559E+01  0.51100000000E-03 0. -1.
        -11    1    3    3    0    0  0.38842177232E+02 -0.26258251590E+01 -0.56243392509E+01  0.39335008353E+02  0.51100000000E-03 0.  1.
         12    1    3    3    0    0 -0.41262915900E+02  0.22806051768E+01 -0.25059571165E+01  0.41401802009E+02  0.00000000000E+00 0. -1.
</event>
<event>
 7    1  0.2593256E-015  0.9000775E+02  0.7816164E-02  0.1186339E+00
        -11   -1    0    0    0    0  0.00000000000E+00  0.00000000000E+00  0.45593999997E+02  0.45594000000E+02  0.51100000000E-03 0.  1.
         11   -1    0    0    0    0 -0.00000000000E+00 -0.00000000000E+00 -0.45593999997E+02  0.45594000000E+02  0.51100000000E-03 0. -1.
    9900012    2    1    2    0    0 -0.50878469554E+00 -0.30286801439E+00 -0.10209818783E+01  0.90007747952E+02  0.90000009425E+02 0.  0.
        -12    1    1    2    0    0  0.50878469554E+00  0.30286801439E+00  0.10209818783E+01  0.11802520478E+01  0.00000000000E+00 0.  1.
         11    1    3    3    0    0 -0.19317648329E+02 -0.35281954616E+02  0.12878803355E+02  0.42235665433E+02  0.51100000000E-03 0. -1.
        -11    1    3    3    0    0 -0.10392019577E+01  0.23808473723E+01 -0.89111979953E+01  0.92821239429E+01  0.51100000000E-03 0.  1.
        -12    1    3    3    0    0  0.19848065591E+02  0.32598239229E+02 -0.49885872377E+01  0.38489958576E+02  0.00000000000E+00 0.  1.
</event>
<event>
 7    1  0.2593256E-015  0.9000778E+02  0.7816164E-02  0.1186339E+00
        -11   -1    0    0    0    0  0.00000000000E+00  0.00000000000E+00  0.45593999997E+02  0.45594000000E+02  0.51100000000E-03 0.  1.
         11   -1    0    0    0    0 -0.00000000000E+00 -0.00000000000E+00 -0.45593999997E+02  0.45594000000E+02  0.51100000000E-03 0. -1.
    9900012    2    1    2    0    0 -0.16226509445E+00  0.10723732388E+01  0.46541362418E+00  0.90007777917E+02  0.90000039785E+02 0.  0.
        -12    1    1    2    0    0  0.16226509445E+00 -0.10723732388E+01 -0.46541362418E+00  0.11802220832E+01  0.00000000000E+00 0.  1.
         11    1    3    3    0    0  0.43162408169E+01 -0.60668339158E+01 -0.56327890776E+01  0.93362048824E+01  0.51100000000E-03 0. -1.
        -11    1    3    3    0    0 -0.20677493375E+01 -0.35975679760E+02 -0.41981607635E+01  0.36278777206E+02  0.51100000000E-03 0.  1.
         12    1    3    3    0    0 -0.24107565739E+01  0.43114886914E+02  0.10296363465E+02  0.44392795829E+02  0.00000000000E+00 0. -1.
</event>
<event>
 7    1  0.2593256E-015  0.9000779E+02  0.7816164E-02  0.1186339E+00
        -11   -1    0    0    0    0  0.00000000000E+00  0.00000000000E+00  0.45593999997E+02  0.45594000000E+02  0.51100000000E-03 0.  1.
         11   -1    0    0    0    0 -0.00000000000E+00 -0.00000000000E+00 -0.45593999997E+02  0.45594000000E+02  0.51100000000E-03 0. -1.
    9900012    2    1    2    0    0  0.20408802823E+00  0.10304106509E+01  0.53804642343E+00  0.90007791550E+02  0.90000053598E+02 0.  0.
        -12    1    1    2    0    0 -0.20408802823E+00 -0.10304106509E+01 -0.53804642343E+00  0.11802084504E+01  0.00000000000E+00 0.  1.
         11    1    3    3    0    0 -0.85285673741E+01 -0.76151557885E+01 -0.38908211075E+02  0.40553371604E+02  0.51100000000E-03 0. -1.
        -11    1    3    3    0    0  0.25685259020E+01  0.88599891090E+01 -0.30272014167E+00  0.92297547132E+01  0.51100000000E-03 0.  1.
        -12    1    3    3    0    0  0.61641295004E+01 -0.21442266965E+00  0.39748977640E+02  0.40224665232E+02  0.00000000000E+00 0.  1.
</event>
<event>
 7    1  0.2593256E-015  0.9000787E+02  0.7816164E-02  0.1186339E+00
        -11   -1    0    0    0    0  0.00000000000E+00  0.00000000000E+00  0.45593999997E+02  0.45594000000E+02  0.51100000000E-03 0.  1.
         11   -1    0    0    0    0 -0.00000000000E+00 -0.00000000000E+00 -0.45593999997E+02  0.45594000000E+02  0.51100000000E-03 0. -1.
    9900012    2    1    2    0    0 -0.59441528750E+00  0.97205977826E+00 -0.30735278088E+00  0.90007874804E+02  0.90000137951E+02 0.  0.
        -12    1    1    2    0    0  0.59441528750E+00 -0.97205977826E+00  0.30735278088E+00  0.11801251961E+01  0.00000000000E+00 0.  1.
         11    1    3    3    0    0 -0.29619775553E+02  0.12216088673E+02 -0.15537658896E+02  0.35608745702E+02  0.51100000000E-03 0. -1.
        -11    1    3    3    0    0 -0.40446725052E+01 -0.39984923597E+01 -0.10456252135E+02  0.11902962900E+02  0.51100000000E-03 0.  1.
        -12    1    3    3    0    0  0.33070032771E+02 -0.72455365350E+01  0.25686558250E+02  0.42496166202E+02  0.00000000000E+00 0.  1.
</event>
<event>
 7    1  0.2593256E-015  0.9000777E+02  0.7816164E-02  0.1186339E+00
        -11   -1    0    0    0    0  0.00000000000E+00  0.00000000000E+00  0.45593999997E+02  0.45594000000E+02  0.51100000000E-03 0.  1.
         11   -1    0    0    0    0 -0.00000000000E+00 -0.00000000000E+00 -0.45593999997E+02  0.45594000000E+02  0.51100000000E-03 0. -1.
    9900012    2    1    2    0    0  0.91121111750E+00 -0.30116325137E+00  0.68696974319E+00  0.90007774414E+02  0.90000036237E+02 0.  0.
        -12    1    1    2    0    0 -0.91121111750E+00  0.30116325137E+00 -0.68696974319E+00  0.11802255855E+01  0.00000000000E+00 0.  1.
         11    1    3    3    0    0  0.52190718043E+01  0.49153072851E+01 -0.69400986604E+01  0.99781724721E+01  0.51100000000E-03 0. -1.
        -11    1    3    3    0    0  0.17041869354E+02  0.31219695577E+02 -0.50794307438E+01  0.35929031714E+02  0.51100000000E-03 0.  1.
         12    1    3    3    0    0 -0.21349730040E+02 -0.36436166114E+02  0.12706499147E+02  0.44100570228E+02  0.00000000000E+00 0. -1.
</event>
<event>
 7    1  0.2593256E-015  0.9000774E+02  0.7816164E-02  0.1186339E+00
        -11   -1    0    0    0    0  0.00000000000E+00  0.00000000000E+00  0.45593999997E+02  0.45594000000E+02  0.51100000000E-03 0.  1.
         11   -1    0    0    0    0 -0.00000000000E+00 -0.00000000000E+00 -0.45593999997E+02  0.45594000000E+02  0.51100000000E-03 0. -1.
    9900012    2    1    2    0    0 -0.21062362493E+00  0.11178559900E+01 -0.31473796255E+00  0.90007735491E+02  0.89999996800E+02 0.  0.
        -12    1    1    2    0    0  0.21062362493E+00 -0.11178559900E+01  0.31473796255E+00  0.11802645088E+01  0.00000000000E+00 0.  1.
         11    1    3    3    0    0 -0.37257635976E+01  0.14897214761E+01  0.80760752818E+01  0.90179585650E+01  0.51100000000E-03 0. -1.
        -11    1    3    3    0    0  0.22927918041E+02  0.33707163207E+02  0.52271178130E+00  0.40769296106E+02  0.51100000000E-03 0.  1.
         12    1    3    3    0    0 -0.19412778068E+02 -0.34079028693E+02 -0.89135250256E+01  0.40220480820E+02  0.00000000000E+00 0. -1.
</event>
<event>
 7    1  0.2593256E-015  0.9000779E+02  0.7816164E-02  0.1186339E+00
        -11   -1    0    0    0    0  0.00000000000E+00  0.00000000000E+00  0.45593999997E+02  0.45594000000E+02  0.51100000000E-03 0. -1.
         11   -1    0    0    0    0 -0.00000000000E+00 -0.00000000000E+00 -0.45593999997E+02  0.45594000000E+02  0.51100000000E-03 0.  1.
    9900012    2    1    2    0    0 -0.10227113580E+01 -0.40826535654E+00  0.42458611203E+00  0.90007791336E+02  0.90000053382E+02 0.  0.
        -12    1    1    2    0    0  0.10227113580E+01  0.40826535654E+00 -0.42458611203E+00  0.11802086636E+01  0.00000000000E+00 0.  1.
         11    1    3    3    0    0 -0.24071703844E+02  0.36138694566E+02 -0.36440744604E+01  0.43574435737E+02  0.51100000000E-03 0. -1.
        -11    1    3    3    0    0 -0.16385345944E+01 -0.90788659036E+01  0.20232302481E+01  0.94447902365E+01  0.51100000000E-03 0.  1.
        -12    1    3    3    0    0  0.24687527080E+02 -0.27468094019E+02  0.20454303244E+01  0.36988565363E+02  0.00000000000E+00 0.  1.
</event>
<event>
 7    1  0.2593256E-015  0.9000774E+02  0.7816164E-02  0.1186339E+00
        -11   -1    0    0    0    0  0.00000000000E+00  0.00000000000E+00  0.45593999997E+02  0.45594000000E+02  0.51100000000E-03 0.  1.
         11   -1    0    0    0    0 -0.00000000000E+00 -0.00000000000E+00 -0.45593999997E+02  0.45594000000E+02  0.51100000000E-03 0. -1.
    9900012    2    1    2    0    0  0.61356389996E+00  0.97596113625E+00 -0.25310041279E+00  0.90007737056E+02  0.89999998385E+02 0.  0.
        -12    1    1    2    0    0 -0.61356389996E+00 -0.97596113625E+00  0.25310041279E+00  0.11802629443E+01  0.00000000000E+00 0.  1.
         11    1    3    3    0    0 -0.10086826951E+02  0.25616290780E+02  0.75062573940E+01  0.28535632665E+02  0.51100000000E-03 0. -1.
        -11    1    3    3    0    0  0.16983650047E+02  0.12949573232E+02  0.36993266504E+01  0.21675350833E+02  0.51100000000E-03 0.  1.
        -12    1    3    3    0    0 -0.62832591958E+01 -0.37589902875E+02 -0.11458684457E+02  0.39796753558E+02  0.00000000000E+00 0.  1.
</event>
<event>
 7    1  0.3070701E-015  0.9000773E+02  0.7816164E-02  0.1186339E+00
        -11   -1    0    0    0    0  0.00000000000E+00  0.00000000000E+00  0.45593999997E+02  0.45594000000E+02  0.51100000000E-03 0. -1.
         11   -1    0    0    0    0 -0.00000000000E+00 -0.00000000000E+00 -0.45593999997E+02  0.45594000000E+02  0.51100000000E-03 0.  1.
    9900012    2    1    2    0    0  0.22823928305E+00  0.74537480707E+00  0.88619965956E+00  0.90007734517E+02  0.89999995813E+02 0.  0.
        -12    1    1    2    0    0 -0.22823928305E+00 -0.74537480707E+00 -0.88619965956E+00  0.11802654828E+01  0.00000000000E+00 0.  1.
         11    1    3    3    0    0  0.34932174431E+02  0.16783662966E+02  0.17015352640E+02  0.42325764952E+02  0.51100000000E-03 0. -1.
        -11    1    3    3    0    0 -0.84207806264E+01  0.46814938578E+01  0.16651770665E+01  0.97774611236E+01  0.51100000000E-03 0.  1.
        -12    1    3    3    0    0 -0.26283154522E+02 -0.20719782016E+02 -0.17794330046E+02  0.37904508442E+02  0.00000000000E+00 0.  1.
</event>
<event>
 7    1  0.2593256E-015  0.9000786E+02  0.7816164E-02  0.1186339E+00
        -11   -1    0    0    0    0  0.00000000000E+00  0.00000000000E+00  0.45593999997E+02  0.45594000000E+02  0.51100000000E-03 0.  1.
         11   -1    0    0    0    0 -0.00000000000E+00 -0.00000000000E+00 -0.45593999997E+02  0.45594000000E+02  0.51100000000E-03 0. -1.
    9900012    2    1    2    0    0 -0.84474724950E+00 -0.10719430902E+00 -0.81708884843E+00  0.90007863261E+02  0.90000126256E+02 0.  0.
        -12    1    1    2    0    0  0.84474724950E+00  0.10719430902E+00  0.81708884843E+00  0.11801367385E+01  0.00000000000E+00 0.  1.
         11    1    3    3    0    0 -0.16504082151E+02 -0.25878295513E+02 -0.24930431442E+02  0.39542348418E+02  0.51100000000E-03 0. -1.
        -11    1    3    3    0    0 -0.49640362123E+01  0.76534872114E+01 -0.50399003925E+01  0.10422001643E+02  0.51100000000E-03 0.  1.
        -12    1    3    3    0    0  0.20623371113E+02  0.18117613992E+02  0.29153242986E+02  0.40043513201E+02  0.00000000000E+00 0.  1.
</event>
<event>
 7    1  0.2593256E-015  0.9000765E+02  0.7816164E-02  0.1186339E+00
        -11   -1    0    0    0    0  0.00000000000E+00  0.00000000000E+00  0.45593999997E+02  0.45594000000E+02  0.51100000000E-03 0.  1.
         11   -1    0    0    0    0 -0.00000000000E+00 -0.00000000000E+00 -0.45593999997E+02  0.45594000000E+02  0.51100000000E-03 0. -1.
    9900012    2    1    2    0    0 -0.37535726818E+00 -0.13249342579E+00 -0.11112051746E+01  0.90007650676E+02  0.89999910865E+02 0.  0.
        -12    1    1    2    0    0  0.37535726818E+00  0.13249342579E+00  0.11112051746E+01  0.11803493240E+01  0.00000000000E+00 0.  1.
         11    1    3    3    0    0  0.23748350738E+01 -0.41896475832E+01 -0.91604217304E+01  0.10349218088E+02  0.51100000000E-03 0. -1.
        -11    1    3    3    0    0  0.12521683290E+02 -0.27534338179E+02  0.26321426971E+02  0.40096756096E+02  0.51100000000E-03 0.  1.
         12    1    3    3    0    0 -0.15271875632E+02  0.31591492337E+02 -0.18272210415E+02  0.39561676492E+02  0.00000000000E+00 0. -1.
</event>
<event>
 7    1  0.2593256E-015  0.9000773E+02  0.7816164E-02  0.1186339E+00
        -11   -1    0    0    0    0  0.00000000000E+00  0.00000000000E+00  0.45593999997E+02  0.45594000000E+02  0.51100000000E-03 0. -1.
         11   -1    0    0    0    0 -0.00000000000E+00 -0.00000000000E+00 -0.45593999997E+02  0.45594000000E+02  0.51100000000E-03 0.  1.
    9900012    2    1    2    0    0 -0.11312055120E+01  0.19473652522E+00 -0.27474216380E+00  0.90007732454E+02  0.89999993722E+02 0.  0.
        -12    1    1    2    0    0  0.11312055120E+01 -0.19473652522E+00  0.27474216380E+00  0.11802675464E+01  0.00000000000E+00 0.  1.
         11    1    3    3    0    0 -0.12431974140E+01 -0.63245662172E+01 -0.80467336724E+01  0.10309975786E+02  0.51100000000E-03 0. -1.
        -11    1    3    3    0    0 -0.28004510853E+02  0.22356428535E+02 -0.16370600048E+02  0.39396180921E+02  0.51100000000E-03 0.  1.
         12    1    3    3    0    0  0.28116502755E+02 -0.15837125793E+02  0.24142591557E+02  0.40301575747E+02  0.00000000000E+00 0. -1.
</event>
<event>
 7    1  0.2593256E-015  0.9000770E+02  0.7816164E-02  0.1186339E+00
        -11   -1    0    0    0    0  0.00000000000E+00  0.00000000000E+00  0.45593999997E+02  0.45594000000E+02  0.51100000000E-03 0.  1.
         11   -1    0    0    0    0 -0.00000000000E+00 -0.00000000000E+00 -0.45593999997E+02  0.45594000000E+02  0.51100000000E-03 0. -1.
    9900012    2    1    2    0    0  0.10177595028E+01 -0.38737683201E+00 -0.45519891457E+00  0.90007702890E+02  0.89999963768E+02 0.  0.
        -12    1    1    2    0    0 -0.10177595028E+01  0.38737683201E+00  0.45519891457E+00  0.11802971097E+01  0.00000000000E+00 0.  1.
         11    1    3    3    0    0  0.99425108870E+01  0.39069791402E+01  0.23468645304E+01  0.10937357182E+02  0.51100000000E-03 0. -1.
        -11    1    3    3    0    0 -0.19666142202E+01  0.29284732317E+02  0.22057505700E+02  0.36715074239E+02  0.51100000000E-03 0.  1.
         12    1    3    3    0    0 -0.69581371640E+01 -0.33579088289E+02 -0.24859569145E+02  0.42355271469E+02  0.00000000000E+00 0. -1.
</event>
<event>
 7    1  0.2593256E-015  0.9000783E+02  0.7816164E-02  0.1186339E+00
        -11   -1    0    0    0    0  0.00000000000E+00  0.00000000000E+00  0.45593999997E+02  0.45594000000E+02  0.51100000000E-03 0. -1.
         11   -1    0    0    0    0 -0.00000000000E+00 -0.00000000000E+00 -0.45593999997E+02  0.45594000000E+02  0.51100000000E-03 0.  1.
    9900012    2    1    2    0    0  0.52009158535E+00  0.96264119062E+00  0.44229862296E+00  0.90007829931E+02  0.90000092486E+02 0.  0.
        -12    1    1    2    0    0 -0.52009158535E+00 -0.96264119062E+00 -0.44229862296E+00  0.11801700686E+01  0.00000000000E+00 0.  1.
         11    1    3    3    0    0 -0.13248340063E+02 -0.96994706431E+01 -0.14442943767E+02  0.21867712960E+02  0.51100000000E-03 0. -1.
        -11    1    3    3    0    0  0.38357266141E+01  0.34055346804E+02 -0.65523850084E+01  0.34891448725E+02  0.51100000000E-03 0.  1.
         12    1    3    3    0    0  0.99327050343E+01 -0.23393234970E+02  0.21437627398E+02  0.33248668246E+02  0.00000000000E+00 0. -1.
</event>
<event>
 7    1  0.2593256E-015  0.9000772E+02  0.7816164E-02  0.1186339E+00
        -11   -1    0    0    0    0  0.00000000000E+00  0.00000000000E+00  0.45593999997E+02  0.45594000000E+02  0.51100000000E-03 0. -1.
         11   -1    0    0    0    0 -0.00000000000E+00 -0.00000000000E+00 -0.45593999997E+02  0.45594000000E+02  0.51100000000E-03 0.  1.
    9900012    2    1    2    0    0 -0.82205332407E+00  0.78936906273E+00 -0.30689778633E+00  0.90007719764E+02  0.89999980865E+02 0.  0.
        -12    1    1    2    0    0  0.82205332407E+00 -0.78936906273E+00  0.30689778633E+00  0.11802802362E+01  0.00000000000E+00 0.  1.
         11    1    3    3    0    0  0.81064180919E+01  0.39112710253E+02  0.11200160231E+02  0.41484475494E+02  0.51100000000E-03 0. -1.
        -11    1    3    3    0    0  0.62023566695E+01 -0.41201479191E+01  0.34956389301E+01  0.82258336308E+01  0.51100000000E-03 0.  1.
        -12    1    3    3    0    0 -0.15130828085E+02 -0.34203193271E+02 -0.15002696947E+02  0.40297410638E+02  0.00000000000E+00 0.  1.
</event>
<event>
 7    1  0.2593256E-015  0.9000774E+02  0.7816164E-02  0.1186339E+00
        -11   -1    0    0    0    0  0.00000000000E+00  0.00000000000E+00  0.45593999997E+02  0.45594000000E+02  0.51100000000E-03 0.  1.
         11   -1    0    0    0    0 -0.00000000000E+00 -0.00000000000E+00 -0.45593999997E+02  0.45594000000E+02  0.51100000000E-03 0. -1.
    9900012    2    1    2    0    0  0.11454151388E+01  0.27587508742E+00  0.70295092558E-01  0.90007735494E+02  0.89999996802E+02 0.  0.
        -12    1    1    2    0    0 -0.11454151388E+01 -0.27587508742E+00 -0.70295092558E-01  0.11802645060E+01  0.00000000000E+00 0.  1.
         11    1    3    3    0    0  0.87813380571E+01  0.13320661706E+01 -0.30436872010E+01  0.93888407376E+01  0.51100000000E-03 0. -1.
        -11    1    3    3    0    0 -0.27300086506E+02 -0.29431933487E+02 -0.13437164778E+02  0.42333093786E+02  0.51100000000E-03 0.  1.
         12    1    3    3    0    0  0.19664163588E+02  0.28375742404E+02  0.16551147071E+02  0.38285800970E+02  0.00000000000E+00 0. -1.
</event>
<event>
 7    1  0.2593256E-015  0.9000779E+02  0.7816164E-02  0.1186339E+00
        -11   -1    0    0    0    0  0.00000000000E+00  0.00000000000E+00  0.45593999997E+02  0.45594000000E+02  0.51100000000E-03 0.  1.
         11   -1    0    0    0    0 -0.00000000000E+00 -0.00000000000E+00 -0.45593999997E+02  0.45594000000E+02  0.51100000000E-03 0. -1.
    9900012    2    1    2    0    0  0.36087176074E-01 -0.46227452801E+00 -0.10853110596E+01  0.90007788104E+02  0.90000050107E+02 0.  0.
        -12    1    1    2    0    0 -0.36087176074E-01  0.46227452801E+00  0.10853110596E+01  0.11802118960E+01  0.00000000000E+00 0.  1.
         11    1    3    3    0    0  0.51147116349E+01 -0.13443514402E+01 -0.26781072460E+02  0.27298230680E+02  0.51100000000E-03 0. -1.
        -11    1    3    3    0    0  0.12896718814E+02  0.57230080140E+01 -0.13368170034E+02  0.19436721617E+02  0.51100000000E-03 0.  1.
        -12    1    3    3    0    0 -0.17975343273E+02 -0.48409311018E+01  0.39063931434E+02  0.43272835807E+02  0.00000000000E+00 0.  1.
</event>
<event>
 7    1  0.2593256E-015  0.9000774E+02  0.7816164E-02  0.1186339E+00
        -11   -1    0    0    0    0  0.00000000000E+00  0.00000000000E+00  0.45593999997E+02  0.45594000000E+02  0.51100000000E-03 0.  1.
         11   -1    0    0    0    0 -0.00000000000E+00 -0.00000000000E+00 -0.45593999997E+02  0.45594000000E+02  0.51100000000E-03 0. -1.
    9900012    2    1    2    0    0  0.60693242350E+00  0.91429562111E+00  0.43441676412E+00  0.90007736735E+02  0.89999998060E+02 0.  0.
        -12    1    1    2    0    0 -0.60693242350E+00 -0.91429562111E+00 -0.43441676412E+00  0.11802632649E+01  0.00000000000E+00 0.  1.
         11    1    3    3    0    0  0.85079115630E+01 -0.13316338283E+01  0.33450056199E+00  0.86179869287E+01  0.51100000000E-03 0. -1.
        -11    1    3    3    0    0 -0.52233989295E+01 -0.33396059573E+02  0.21184395636E+02  0.39891845158E+02  0.51100000000E-03 0.  1.
         12    1    3    3    0    0 -0.26775802100E+01  0.35641989022E+02 -0.21084479434E+02  0.41497904649E+02  0.00000000000E+00 0. -1.
</event>
<event>
 7    1  0.2593256E-015  0.9000777E+02  0.7816164E-02  0.1186339E+00
        -11   -1    0    0    0    0  0.00000000000E+00  0.00000000000E+00  0.45593999997E+02  0.45594000000E+02  0.51100000000E-03 0.  1.
         11   -1    0    0    0    0 -0.00000000000E+00 -0.00000000000E+00 -0.45593999997E+02  0.45594000000E+02  0.51100000000E-03 0. -1.
    9900012    2    1    2    0    0  0.11706690713E+01  0.11882379130E+00  0.91435673293E-01  0.90007768815E+02  0.90000030563E+02 0.  0.
        -12    1    1    2    0    0 -0.11706690713E+01 -0.11882379130E+00 -0.91435673293E-01  0.11802311851E+01  0.00000000000E+00 0.  1.
         11    1    3    3    0    0  0.45581860010E+01  0.78834079394E+01 -0.51871883265E+01  0.10480081267E+02  0.51100000000E-03 0. -1.
        -11    1    3    3    0    0  0.22489617795E+02  0.24951525207E+02  0.14855660129E+02  0.36729445366E+02  0.51100000000E-03 0.  1.
         12    1    3    3    0    0 -0.25877134724E+02 -0.32716109355E+02 -0.95770361296E+01  0.42798242183E+02  0.00000000000E+00 0. -1.
</event>
<event>
 7    1  0.2593256E-015  0.9000791E+02  0.7816164E-02  0.1186339E+00
        -11   -1    0    0    0    0  0.00000000000E+00  0.00000000000E+00  0.45593999997E+02  0.45594000000E+02  0.51100000000E-03 0.  1.
         11   -1    0    0    0    0 -0.00000000000E+00 -0.00000000000E+00 -0.45593999997E+02  0.45594000000E+02  0.51100000000E-03 0. -1.
    9900012    2    1    2    0    0 -0.74677005040E+00  0.91327410306E+00 -0.29593649096E-01  0.90007910648E+02  0.90000174268E+02 0.  0.
        -12    1    1    2    0    0  0.74677005040E+00 -0.91327410306E+00  0.29593649096E-01  0.11800893524E+01  0.00000000000E+00 0.  1.
         11    1    3    3    0    0 -0.77577918791E+01  0.16221238161E+01  0.81912337249E+01  0.11397847635E+02  0.51100000000E-03 0. -1.
        -11    1    3    3    0    0 -0.88849070071E+01  0.26641345619E+02  0.21372708198E+02  0.35291578668E+02  0.51100000000E-03 0.  1.
         12    1    3    3    0    0  0.15895928836E+02 -0.27350195332E+02 -0.29593535572E+02  0.43318484344E+02  0.00000000000E+00 0. -1.
</event>
<event>
 7    1  0.2593256E-015  0.9000792E+02  0.7816164E-02  0.1186339E+00
        -11   -1    0    0    0    0  0.00000000000E+00  0.00000000000E+00  0.45593999997E+02  0.45594000000E+02  0.51100000000E-03 0. -1.
         11   -1    0    0    0    0 -0.00000000000E+00 -0.00000000000E+00 -0.45593999997E+02  0.45594000000E+02  0.51100000000E-03 0.  1.
    9900012    2    1    2    0    0 -0.10125417526E+00 -0.11709203178E+01  0.10621585874E+00  0.90007920084E+02  0.90000183829E+02 0.  0.
        -12    1    1    2    0    0  0.10125417526E+00  0.11709203178E+01 -0.10621585874E+00  0.11800799156E+01  0.00000000000E+00 0.  1.
         11    1    3    3    0    0 -0.27748187633E+01  0.41136248195E+01 -0.68920662162E+01  0.84924734509E+01  0.51100000000E-03 0. -1.
        -11    1    3    3    0    0 -0.33576091158E+02  0.17880074261E+02  0.57998489470E+01  0.38479724546E+02  0.51100000000E-03 0.  1.
         12    1    3    3    0    0  0.36249655747E+02 -0.23164619399E+02  0.11984331280E+01  0.43035722087E+02  0.00000000000E+00 0. -1.
</event>
<event>
 7    1  0.2593256E-015  0.9000764E+02  0.7816164E-02  0.1186339E+00
        -11   -1    0    0    0    0  0.00000000000E+00  0.00000000000E+00  0.45593999997E+02  0.45594000000E+02  0.51100000000E-03 0.  1.
         11   -1    0    0    0    0 -0.00000000000E+00 -0.00000000000E+00 -0.45593999997E+02  0.45594000000E+02  0.51100000000E-03 0. -1.
    9900012    2    1    2    0    0  0.69076927656E+00 -0.35843486110E+00 -0.88746932710E+00  0.90007644312E+02  0.89999904417E+02 0.  0.
        -12    1    1    2    0    0 -0.69076927656E+00  0.35843486110E+00  0.88746932710E+00  0.11803556878E+01  0.00000000000E+00 0.  1.
         11    1    3    3    0    0 -0.21617116564E+01  0.21671195887E+02 -0.31941789673E+02  0.38659948994E+02  0.51100000000E-03 0. -1.
        -11    1    3    3    0    0 -0.75073285093E+01  0.42630325961E+01 -0.91124352798E+00  0.86812322449E+01  0.51100000000E-03 0.  1.
        -12    1    3    3    0    0  0.10359809442E+02 -0.26292663344E+02  0.31965563874E+02  0.42666463073E+02  0.00000000000E+00 0.  1.
</event>
<event>
 7    1  0.2593256E-015  0.9000771E+02  0.7816164E-02  0.1186339E+00
        -11   -1    0    0    0    0  0.00000000000E+00  0.00000000000E+00  0.45593999997E+02  0.45594000000E+02  0.51100000000E-03 0. -1.
         11   -1    0    0    0    0 -0.00000000000E+00 -0.00000000000E+00 -0.45593999997E+02  0.45594000000E+02  0.51100000000E-03 0.  1.
    9900012    2    1    2    0    0 -0.44885997623E+00 -0.40797722317E+00  0.10124985819E+01  0.90007714411E+02  0.89999975441E+02 0.  0.
        -12    1    1    2    0    0  0.44885997623E+00  0.40797722317E+00 -0.10124985819E+01  0.11802855888E+01  0.00000000000E+00 0.  1.
         11    1    3    3    0    0 -0.16618715665E+02  0.26774426792E+02 -0.11729068902E+02  0.33624733426E+02  0.51100000000E-03 0.  1.
        -11    1    3    3    0    0 -0.53696932479E+01 -0.16082873991E+02  0.24224296362E+02  0.29568716169E+02  0.51100000000E-03 0. -1.
        -12    1    3    3    0    0  0.21539548936E+02 -0.11099530024E+02 -0.11482728878E+02  0.26814264816E+02  0.00000000000E+00 0.  1.
</event>
<event>
 7    1  0.2593256E-015  0.9000746E+02  0.7816164E-02  0.1186340E+00
        -11   -1    0    0    0    0  0.00000000000E+00  0.00000000000E+00  0.45593999997E+02  0.45594000000E+02  0.51100000000E-03 0. -1.
         11   -1    0    0    0    0 -0.00000000000E+00 -0.00000000000E+00 -0.45593999997E+02  0.45594000000E+02  0.51100000000E-03 0.  1.
    9900012    2    1    2    0    0 -0.64464967247E+00  0.49642974126E-01  0.98774903532E+00  0.90007455303E+02  0.89999712912E+02 0.  0.
        -12    1    1    2    0    0  0.64464967247E+00 -0.49642974126E-01 -0.98774903532E+00  0.11805446971E+01  0.00000000000E+00 0.  1.
         11    1    3    3    0    0 -0.37898067666E+02 -0.16478226899E+02 -0.24365390974E+00  0.41326200673E+02  0.51100000000E-03 0. -1.
        -11    1    3    3    0    0  0.11805921221E+02 -0.35341562835E+01 -0.83545021207E+01  0.14888510417E+02  0.51100000000E-03 0.  1.
        -12    1    3    3    0    0  0.25447496773E+02  0.20062026157E+02  0.95859050657E+01  0.33792744213E+02  0.00000000000E+00 0.  1.
</event>
<event>
 7    1  0.2593256E-015  0.9000782E+02  0.7816164E-02  0.1186339E+00
        -11   -1    0    0    0    0  0.00000000000E+00  0.00000000000E+00  0.45593999997E+02  0.45594000000E+02  0.51100000000E-03 0.  1.
         11   -1    0    0    0    0 -0.00000000000E+00 -0.00000000000E+00 -0.45593999997E+02  0.45594000000E+02  0.51100000000E-03 0. -1.
    9900012    2    1    2    0    0 -0.11780014917E+01 -0.70447817839E-01 -0.13267521467E-01  0.90007819320E+02  0.90000081735E+02 0.  0.
        -12    1    1    2    0    0  0.11780014917E+01  0.70447817839E-01  0.13267521467E-01  0.11801806797E+01  0.00000000000E+00 0.  1.
         11    1    3    3    0    0 -0.35131612886E+02 -0.83974547578E+01 -0.43386144505E+01  0.36380915959E+02  0.51100000000E-03 0. -1.
        -11    1    3    3    0    0 -0.69081232452E+01 -0.69609778610E+01  0.26859594954E+00  0.98106841555E+01  0.51100000000E-03 0.  1.
        -12    1    3    3    0    0  0.40861734639E+02  0.15287984801E+02  0.40567509794E+01  0.43816219206E+02  0.00000000000E+00 0.  1.
</event>
<event>
 7    1  0.2593256E-015  0.9000768E+02  0.7816164E-02  0.1186339E+00
        -11   -1    0    0    0    0  0.00000000000E+00  0.00000000000E+00  0.45593999997E+02  0.45594000000E+02  0.51100000000E-03 0.  1.
         11   -1    0    0    0    0 -0.00000000000E+00 -0.00000000000E+00 -0.45593999997E+02  0.45594000000E+02  0.51100000000E-03 0. -1.
    9900012    2    1    2    0    0 -0.54765316435E+00 -0.74568238373E+00 -0.73293921446E+00  0.90007675427E+02  0.89999935942E+02 0.  0.
        -12    1    1    2    0    0  0.54765316435E+00  0.74568238373E+00  0.73293921446E+00  0.11803245731E+01  0.00000000000E+00 0.  1.
         11    1    3    3    0    0  0.97710522632E+01  0.13037269261E+01  0.94213426924E+00  0.99025644896E+01  0.51100000000E-03 0. -1.
        -11    1    3    3    0    0 -0.53438765269E+01  0.29783097877E+02 -0.25872314284E+02  0.39811638777E+02  0.51100000000E-03 0.  1.
         12    1    3    3    0    0 -0.49748289006E+01 -0.31832507187E+02  0.24197240800E+02  0.40293472160E+02  0.00000000000E+00 0. -1.
</event>
<event>
 7    1  0.2593256E-015  0.9000772E+02  0.7816164E-02  0.1186339E+00
        -11   -1    0    0    0    0  0.00000000000E+00  0.00000000000E+00  0.45593999997E+02  0.45594000000E+02  0.51100000000E-03 0. -1.
         11   -1    0    0    0    0 -0.00000000000E+00 -0.00000000000E+00 -0.45593999997E+02  0.45594000000E+02  0.51100000000E-03 0.  1.
    9900012    2    1    2    0    0 -0.10425211407E+01 -0.54330588483E+00  0.10507147552E+00  0.90007715446E+02  0.89999976490E+02 0.  0.
        -12    1    1    2    0    0  0.10425211407E+01  0.54330588483E+00 -0.10507147552E+00  0.11802845540E+01  0.00000000000E+00 0.  1.
         11    1    3    3    0    0  0.29798928084E+01  0.37819853852E+01 -0.14290869448E+02  0.15080189802E+02  0.51100000000E-03 0. -1.
        -11    1    3    3    0    0  0.70720796342E+01  0.21374618965E+02 -0.20322653787E+02  0.30329835204E+02  0.51100000000E-03 0.  1.
         12    1    3    3    0    0 -0.11094493583E+02 -0.25699910236E+02  0.34718594711E+02  0.44597690441E+02  0.00000000000E+00 0. -1.
</event>
<event>
 7    1  0.2593256E-015  0.9000777E+02  0.7816164E-02  0.1186339E+00
        -11   -1    0    0    0    0  0.00000000000E+00  0.00000000000E+00  0.45593999997E+02  0.45594000000E+02  0.51100000000E-03 0.  1.
         11   -1    0    0    0    0 -0.00000000000E+00 -0.00000000000E+00 -0.45593999997E+02  0.45594000000E+02  0.51100000000E-03 0. -1.
    9900012    2    1    2    0    0 -0.99438297739E+00  0.56451978926E+00 -0.29232743347E+00  0.90007773146E+02  0.90000034952E+02 0.  0.
        -12    1    1    2    0    0  0.99438297739E+00 -0.56451978926E+00  0.29232743347E+00  0.11802268539E+01  0.00000000000E+00 0.  1.
         11    1    3    3    0    0 -0.17613296503E+01  0.71337334913E+01 -0.48320161546E+00  0.73638250742E+01  0.51100000000E-03 0. -1.
        -11    1    3    3    0    0 -0.39554609874E+02  0.50743071747E+01  0.58123420605E+01  0.40300112607E+02  0.51100000000E-03 0.  1.
         12    1    3    3    0    0  0.40321556547E+02 -0.11643520877E+02 -0.56214678785E+01  0.42343835465E+02  0.00000000000E+00 0. -1.
</event>
<event>
 7    1  0.2593256E-015  0.9000771E+02  0.7816164E-02  0.1186339E+00
        -11   -1    0    0    0    0  0.00000000000E+00  0.00000000000E+00  0.45593999997E+02  0.45594000000E+02  0.51100000000E-03 0.  1.
         11   -1    0    0    0    0 -0.00000000000E+00 -0.00000000000E+00 -0.45593999997E+02  0.45594000000E+02  0.51100000000E-03 0. -1.
    9900012    2    1    2    0    0  0.28735980346E+00  0.11101780962E+01 -0.27930346502E+00  0.90007711269E+02  0.89999972258E+02 0.  0.
        -12    1    1    2    0    0 -0.28735980346E+00 -0.11101780962E+01  0.27930346502E+00  0.11802887306E+01  0.00000000000E+00 0.  1.
         11    1    3    3    0    0  0.20654312197E+02 -0.21125485140E+02  0.25573894297E+02  0.39075706065E+02  0.51100000000E-03 0. -1.
        -11    1    3    3    0    0  0.52504161463E+01 -0.40132831094E+01 -0.72366122510E+01  0.98000953137E+01  0.51100000000E-03 0.  1.
        -12    1    3    3    0    0 -0.25617368540E+02  0.26248946345E+02 -0.18616585511E+02  0.41131909890E+02  0.00000000000E+00 0.  1.
</event>
<event>
 7    1  0.2593256E-015  0.9000775E+02  0.7816164E-02  0.1186339E+00
        -11   -1    0    0    0    0  0.00000000000E+00  0.00000000000E+00  0.45593999997E+02  0.45594000000E+02  0.51100000000E-03 0.  1.
         11   -1    0    0    0    0 -0.00000000000E+00 -0.00000000000E+00 -0.45593999997E+02  0.45594000000E+02  0.51100000000E-03 0. -1.
    9900012    2    1    2    0    0  0.74973125284E+00  0.86482989948E+00  0.28801731949E+00  0.90007753550E+02  0.90000015097E+02 0.  0.
        -12    1    1    2    0    0 -0.74973125284E+00 -0.86482989948E+00 -0.28801731949E+00  0.11802464500E+01  0.00000000000E+00 0.  1.
         11    1    3    3    0    0  0.15960820717E+01 -0.37654890181E+02  0.60449801835E+01  0.38170407624E+02  0.51100000000E-03 0. -1.
        -11    1    3    3    0    0  0.64268250575E+01 -0.16630230578E+01  0.64095323062E+01  0.92277749569E+01  0.51100000000E-03 0.  1.
        -12    1    3    3    0    0 -0.72731758763E+01  0.40182743138E+02 -0.12166495170E+02  0.42609570969E+02  0.00000000000E+00 0.  1.
</event>
<event>
 7    1  0.2593256E-015  0.9000772E+02  0.7816164E-02  0.1186339E+00
        -11   -1    0    0    0    0  0.00000000000E+00  0.00000000000E+00  0.45593999997E+02  0.45594000000E+02  0.51100000000E-03 0.  1.
         11   -1    0    0    0    0 -0.00000000000E+00 -0.00000000000E+00 -0.45593999997E+02  0.45594000000E+02  0.51100000000E-03 0. -1.
    9900012    2    1    2    0    0 -0.46025419555E+00  0.10814090313E+01  0.10856013772E+00  0.90007718372E+02  0.89999979455E+02 0.  0.
        -12    1    1    2    0    0  0.46025419555E+00 -0.10814090313E+01 -0.10856013772E+00  0.11802816278E+01  0.00000000000E+00 0.  1.
         11    1    3    3    0    0  0.30885265070E+01  0.74312663881E+00  0.67433472134E+01  0.74541240322E+01  0.51100000000E-03 0. -1.
        -11    1    3    3    0    0 -0.17046555704E+02 -0.16616157292E+02  0.31023911729E+02  0.39104537381E+02  0.51100000000E-03 0.  1.
         12    1    3    3    0    0  0.13497775002E+02  0.16954439685E+02 -0.37658698804E+02  0.43449056959E+02  0.00000000000E+00 0. -1.
</event>
<event>
 7    1  0.2593256E-015  0.9000775E+02  0.7816164E-02  0.1186339E+00
        -11   -1    0    0    0    0  0.00000000000E+00  0.00000000000E+00  0.45593999997E+02  0.45594000000E+02  0.51100000000E-03 0. -1.
         11   -1    0    0    0    0 -0.00000000000E+00 -0.00000000000E+00 -0.45593999997E+02  0.45594000000E+02  0.51100000000E-03 0.  1.
    9900012    2    1    2    0    0  0.10311419987E+01  0.41147946949E+00  0.40051666742E+00  0.90007753087E+02  0.90000014628E+02 0.  0.
        -12    1    1    2    0    0 -0.10311419987E+01 -0.41147946949E+00 -0.40051666742E+00  0.11802469132E+01  0.00000000000E+00 0.  1.
         11    1    3    3    0    0 -0.94499882639E+01 -0.91192276453E+00  0.77434429067E+00  0.95254128864E+01  0.51100000000E-03 0. -1.
        -11    1    3    3    0    0 -0.83053918557E+01  0.35805753179E+02 -0.13380985436E+02  0.39116266004E+02  0.51100000000E-03 0.  1.
         12    1    3    3    0    0  0.18786522118E+02 -0.34482350945E+02  0.13007157813E+02  0.41366074196E+02  0.00000000000E+00 0. -1.
</event>
<event>
 7    1  0.2593256E-015  0.9000767E+02  0.7816164E-02  0.1186339E+00
        -11   -1    0    0    0    0  0.00000000000E+00  0.00000000000E+00  0.45593999997E+02  0.45594000000E+02  0.51100000000E-03 0.  1.
         11   -1    0    0    0    0 -0.00000000000E+00 -0.00000000000E+00 -0.45593999997E+02  0.45594000000E+02  0.51100000000E-03 0. -1.
    9900012    2    1    2    0    0 -0.88302392031E+00 -0.33035348592E+00 -0.71014277974E+00  0.90007674860E+02  0.89999935368E+02 0.  0.
        -12    1    1    2    0    0  0.88302392031E+00  0.33035348592E+00  0.71014277974E+00  0.11803251404E+01  0.00000000000E+00 0.  1.
         11    1    3    3    0    0  0.21591084150E+02 -0.25746274283E+02 -0.21614496062E+02  0.39952872168E+02  0.51100000000E-03 0. -1.
        -11    1    3    3    0    0 -0.35625489825E+01  0.14371306579E+01 -0.74501174264E+01  0.83822043466E+01  0.51100000000E-03 0.  1.
        -12    1    3    3    0    0 -0.18911559087E+02  0.23978790139E+02  0.28354470709E+02  0.41672598345E+02  0.00000000000E+00 0.  1.
</event>
<event>
 7    1  0.2593256E-015  0.9000756E+02  0.7816164E-02  0.1186339E+00
        -11   -1    0    0    0    0  0.00000000000E+00  0.00000000000E+00  0.45593999997E+02  0.45594000000E+02  0.51100000000E-03 0.  1.
         11   -1    0    0    0    0 -0.00000000000E+00 -0.00000000000E+00 -0.45593999997E+02  0.45594000000E+02  0.51100000000E-03 0. -1.
    9900012    2    1    2    0    0  0.84761959099E+00  0.61191657901E+00  0.54822030994E+00  0.90007556702E+02  0.89999815651E+02 0.  0.
        -12    1    1    2    0    0 -0.84761959099E+00 -0.61191657901E+00 -0.54822030994E+00  0.11804432976E+01  0.00000000000E+00 0.  1.
         11    1    3    3    0    0  0.95822421167E+01 -0.22888737823E+02 -0.34772802191E+02  0.42718397156E+02  0.51100000000E-03 0. -1.
        -11    1    3    3    0    0 -0.58900425470E+01 -0.16239749243E+01  0.58669798170E+01  0.84706167541E+01  0.51100000000E-03 0.  1.
        -12    1    3    3    0    0 -0.28445799787E+01  0.25124629326E+02  0.29454042684E+02  0.38818542792E+02  0.00000000000E+00 0.  1.
</event>
<event>
 7    1  0.2593256E-015  0.9000776E+02  0.7816164E-02  0.1186339E+00
        -11   -1    0    0    0    0  0.00000000000E+00  0.00000000000E+00  0.45593999997E+02  0.45594000000E+02  0.51100000000E-03 0.  1.
         11   -1    0    0    0    0 -0.00000000000E+00 -0.00000000000E+00 -0.45593999997E+02  0.45594000000E+02  0.51100000000E-03 0. -1.
    9900012    2    1    2    0    0 -0.62286055354E+00 -0.36674833807E+00 -0.93301072592E+00  0.90007759081E+02  0.90000020701E+02 0.  0.
        -12    1    1    2    0    0  0.62286055354E+00  0.36674833807E+00  0.93301072592E+00  0.11802409192E+01  0.00000000000E+00 0.  1.
         11    1    3    3    0    0  0.22835292140E+02  0.17284197244E+02 -0.26605794711E+02  0.39090438140E+02  0.51100000000E-03 0. -1.
        -11    1    3    3    0    0 -0.48568570659E+01  0.90369750459E+01  0.14557553779E+01  0.10362200660E+02  0.51100000000E-03 0.  1.
        -12    1    3    3    0    0 -0.18601295627E+02 -0.26687920628E+02  0.24217028607E+02  0.40555120281E+02  0.00000000000E+00 0.  1.
</event>
<event>
 7    1  0.2593256E-015  0.9000772E+02  0.7816164E-02  0.1186339E+00
        -11   -1    0    0    0    0  0.00000000000E+00  0.00000000000E+00  0.45593999997E+02  0.45594000000E+02  0.51100000000E-03 0.  1.
         11   -1    0    0    0    0 -0.00000000000E+00 -0.00000000000E+00 -0.45593999997E+02  0.45594000000E+02  0.51100000000E-03 0. -1.
    9900012    2    1    2    0    0 -0.10402189846E+01 -0.30096090748E+00 -0.46949097481E+00  0.90007722584E+02  0.89999983722E+02 0.  0.
        -12    1    1    2    0    0  0.10402189846E+01  0.30096090748E+00  0.46949097481E+00  0.11802774162E+01  0.00000000000E+00 0.  1.
         11    1    3    3    0    0  0.22270234042E+01 -0.45140713256E+01 -0.72469230080E+01  0.88235121420E+01  0.51100000000E-03 0. -1.
        -11    1    3    3    0    0  0.30200036857E+02 -0.10080155078E+02 -0.18548841604E+02  0.36847133914E+02  0.51100000000E-03 0.  1.
         12    1    3    3    0    0 -0.33467279246E+02  0.14293265497E+02  0.25326273637E+02  0.44337076528E+02  0.00000000000E+00 0. -1.
</event>
<event>
 7    1  0.2593256E-015  0.9000772E+02  0.7816164E-02  0.1186339E+00
        -11   -1    0    0    0    0  0.00000000000E+00  0.00000000000E+00  0.45593999997E+02  0.45594000000E+02  0.51100000000E-03 0.  1.
         11   -1    0    0    0    0 -0.00000000000E+00 -0.00000000000E+00 -0.45593999997E+02  0.45594000000E+02  0.51100000000E-03 0. -1.
    9900012    2    1    2    0    0 -0.86939388059E+00 -0.79357800346E+00 -0.86272353774E-01  0.90007722623E+02  0.89999983762E+02 0.  0.
        -12    1    1    2    0    0  0.86939388059E+00  0.79357800346E+00  0.86272353774E-01  0.11802773768E+01  0.00000000000E+00 0.  1.
         11    1    3    3    0    0 -0.39643504620E+01 -0.36513227077E+01  0.81005166139E+01  0.97296763448E+01  0.51100000000E-03 0. -1.
        -11    1    3    3    0    0 -0.56931940487E+01  0.22601136861E+02  0.29038029766E+02  0.37234809236E+02  0.51100000000E-03 0.  1.
         12    1    3    3    0    0  0.87881506301E+01 -0.19743392157E+02 -0.37224818734E+02  0.43043237043E+02  0.00000000000E+00 0. -1.
</event>
<event>
 7    1  0.2593256E-015  0.9000765E+02  0.7816164E-02  0.1186339E+00
        -11   -1    0    0    0    0  0.00000000000E+00  0.00000000000E+00  0.45593999997E+02  0.45594000000E+02  0.51100000000E-03 0.  1.
         11   -1    0    0    0    0 -0.00000000000E+00 -0.00000000000E+00 -0.45593999997E+02  0.45594000000E+02  0.51100000000E-03 0. -1.
    9900012    2    1    2    0    0 -0.44823203899E+00 -0.10763564413E+01  0.18379397307E+00  0.90007646081E+02  0.89999906209E+02 0.  0.
        -12    1    1    2    0    0  0.44823203899E+00  0.10763564413E+01 -0.18379397307E+00  0.11803539190E+01  0.00000000000E+00 0.  1.
         11    1    3    3    0    0  0.65945647481E+01 -0.65554388567E+01 -0.48480828859E+01  0.10486466075E+02  0.51100000000E-03 0. -1.
        -11    1    3    3    0    0 -0.13742122658E+02 -0.26027198376E+02 -0.22579519831E+02  0.37095763996E+02  0.51100000000E-03 0.  1.
         12    1    3    3    0    0  0.66993258705E+01  0.31506280791E+02  0.27611396690E+02  0.42425416009E+02  0.00000000000E+00 0. -1.
</event>
<event>
 7    1  0.2593256E-015  0.9000776E+02  0.7816164E-02  0.1186339E+00
        -11   -1    0    0    0    0  0.00000000000E+00  0.00000000000E+00  0.45593999997E+02  0.45594000000E+02  0.51100000000E-03 0.  1.
         11   -1    0    0    0    0 -0.00000000000E+00 -0.00000000000E+00 -0.45593999997E+02  0.45594000000E+02  0.51100000000E-03 0. -1.
    9900012    2    1    2    0    0 -0.74180902654E+00 -0.65012224368E+00  0.64808729485E+00  0.90007764131E+02  0.90000025818E+02 0.  0.
        -12    1    1    2    0    0  0.74180902654E+00  0.65012224368E+00 -0.64808729485E+00  0.11802358685E+01  0.00000000000E+00 0.  1.
         11    1    3    3    0    0  0.18672105964E+02  0.30805681383E+02 -0.92907872010E+01  0.37201562786E+02  0.51100000000E-03 0. -1.
        -11    1    3    3    0    0  0.69444923984E+01 -0.70864198022E-01 -0.56537378999E+01  0.89552079210E+01  0.51100000000E-03 0.  1.
        -12    1    3    3    0    0 -0.26358407389E+02 -0.31384939429E+02  0.15592612396E+02  0.43850993425E+02  0.00000000000E+00 0.  1.
</event>
<event>
 7    1  0.2593256E-015  0.9000835E+02  0.7816164E-02  0.1186338E+00
        -11   -1    0    0    0    0  0.00000000000E+00  0.00000000000E+00  0.45593999997E+02  0.45594000000E+02  0.51100000000E-03 0.  1.
         11   -1    0    0    0    0 -0.00000000000E+00 -0.00000000000E+00 -0.45593999997E+02  0.45594000000E+02  0.51100000000E-03 0. -1.
    9900012    2    1    2    0    0  0.17724623974E+00 -0.85697444733E+00 -0.79104762853E+00  0.90008348448E+02  0.90000617846E+02 0.  0.
        -12    1    1    2    0    0 -0.17724623974E+00  0.85697444733E+00  0.79104762853E+00  0.11796515517E+01  0.00000000000E+00 0.  1.
         11    1    3    3    0    0  0.18381643358E+02  0.16647843723E+02 -0.24131321732E+02  0.34602835172E+02  0.51100000000E-03 0. -1.
        -11    1    3    3    0    0  0.56805921386E+01  0.61682762381E+01 -0.63713087186E+01  0.10531397526E+02  0.51100000000E-03 0.  1.
        -12    1    3    3    0    0 -0.23884989257E+02 -0.23673094408E+02  0.29711582822E+02  0.44874115751E+02  0.00000000000E+00 0.  1.
</event>
<event>
 7    1  0.2593256E-015  0.9000775E+02  0.7816164E-02  0.1186339E+00
        -11   -1    0    0    0    0  0.00000000000E+00  0.00000000000E+00  0.45593999997E+02  0.45594000000E+02  0.51100000000E-03 0. -1.
         11   -1    0    0    0    0 -0.00000000000E+00 -0.00000000000E+00 -0.45593999997E+02  0.45594000000E+02  0.51100000000E-03 0.  1.
    9900012    2    1    2    0    0  0.46431129629E+00 -0.94151861633E+00  0.53939254575E+00  0.90007751466E+02  0.90000012985E+02 0.  0.
        -12    1    1    2    0    0 -0.46431129629E+00  0.94151861633E+00 -0.53939254575E+00  0.11802485345E+01  0.00000000000E+00 0.  1.
         11    1    3    3    0    0 -0.27510576023E+01  0.26123052607E+01 -0.98367299403E+01  0.10542946120E+02  0.51100000000E-03 0. -1.
        -11    1    3    3    0    0  0.28257393777E+02 -0.29531740703E+02 -0.29992482532E+01  0.40982917202E+02  0.51100000000E-03 0.  1.
         12    1    3    3    0    0 -0.25042024879E+02  0.25977916826E+02  0.13375370739E+02  0.38481888143E+02  0.00000000000E+00 0. -1.
</event>
<event>
 7    1  0.2593256E-015  0.9000770E+02  0.7816164E-02  0.1186339E+00
        -11   -1    0    0    0    0  0.00000000000E+00  0.00000000000E+00  0.45593999997E+02  0.45594000000E+02  0.51100000000E-03 0.  1.
         11   -1    0    0    0    0 -0.00000000000E+00 -0.00000000000E+00 -0.45593999997E+02  0.45594000000E+02  0.51100000000E-03 0. -1.
    9900012    2    1    2    0    0  0.55362183223E+00 -0.52732099651E+00 -0.89919604753E+00  0.90007695760E+02  0.89999956544E+02 0.  0.
        -12    1    1    2    0    0 -0.55362183223E+00  0.52732099651E+00  0.89919604753E+00  0.11803042397E+01  0.00000000000E+00 0.  1.
         11    1    3    3    0    0  0.13639370487E+02  0.26557468140E+01  0.12244190831E+02  0.18520411113E+02  0.51100000000E-03 0. -1.
        -11    1    3    3    0    0  0.21676976552E+02  0.15678392596E+02  0.61980600829E+01  0.27461231871E+02  0.51100000000E-03 0.  1.
         12    1    3    3    0    0 -0.34762725207E+02 -0.18861460407E+02 -0.19341446961E+02  0.44026052776E+02  0.00000000000E+00 0. -1.
</event>
<event>
 7    1  0.2593256E-015  0.9000776E+02  0.7816164E-02  0.1186339E+00
        -11   -1    0    0    0    0  0.00000000000E+00  0.00000000000E+00  0.45593999997E+02  0.45594000000E+02  0.51100000000E-03 0.  1.
         11   -1    0    0    0    0 -0.00000000000E+00 -0.00000000000E+00 -0.45593999997E+02  0.45594000000E+02  0.51100000000E-03 0. -1.
    9900012    2    1    2    0    0  0.56454774277E+00 -0.99851245770E+00 -0.27789187430E+00  0.90007760543E+02  0.90000022182E+02 0.  0.
        -12    1    1    2    0    0 -0.56454774277E+00  0.99851245770E+00  0.27789187430E+00  0.11802394570E+01  0.00000000000E+00 0.  1.
         11    1    3    3    0    0  0.41376488381E+01  0.11712322266E+01 -0.85860343876E+01  0.96027032445E+01  0.51100000000E-03 0. -1.
        -11    1    3    3    0    0 -0.30690356585E+02  0.24488200325E+02  0.14545840807E+02  0.41870651147E+02  0.51100000000E-03 0.  1.
         12    1    3    3    0    0  0.27117255489E+02 -0.26657945010E+02 -0.62376982932E+01  0.38534406151E+02  0.00000000000E+00 0. -1.
</event>
<event>
 7    1  0.2593256E-015  0.9000770E+02  0.7816164E-02  0.1186339E+00
        -11   -1    0    0    0    0  0.00000000000E+00  0.00000000000E+00  0.45593999997E+02  0.45594000000E+02  0.51100000000E-03 0.  1.
         11   -1    0    0    0    0 -0.00000000000E+00 -0.00000000000E+00 -0.45593999997E+02  0.45594000000E+02  0.51100000000E-03 0. -1.
    9900012    2    1    2    0    0  0.70612728454E+00  0.92122054166E+00 -0.21411200090E+00  0.90007700471E+02  0.89999961318E+02 0.  0.
        -12    1    1    2    0    0 -0.70612728454E+00 -0.92122054166E+00  0.21411200090E+00  0.11802995286E+01  0.00000000000E+00 0.  1.
         11    1    3    3    0    0  0.36162956241E+02  0.66434096549E+01  0.52576889401E-01  0.36768152803E+02  0.51100000000E-03 0. -1.
        -11    1    3    3    0    0  0.53691891326E+01  0.42317942594E+01 -0.79880912684E+01  0.10514079939E+02  0.51100000000E-03 0.  1.
        -12    1    3    3    0    0 -0.40826018089E+02 -0.99539833726E+01  0.77214023781E+01  0.42725467729E+02  0.00000000000E+00 0.  1.
</event>
<event>
 7    1  0.2593256E-015  0.9000752E+02  0.7816164E-02  0.1186339E+00
        -11   -1    0    0    0    0  0.00000000000E+00  0.00000000000E+00  0.45593999997E+02  0.45594000000E+02  0.51100000000E-03 0. -1.
         11   -1    0    0    0    0 -0.00000000000E+00 -0.00000000000E+00 -0.45593999997E+02  0.45594000000E+02  0.51100000000E-03 0.  1.
    9900012    2    1    2    0    0  0.82494422686E+00  0.42204902068E+00  0.73135903622E+00  0.90007515187E+02  0.89999773587E+02 0.  0.
        -12    1    1    2    0    0 -0.82494422686E+00 -0.42204902068E+00 -0.73135903622E+00  0.11804848128E+01  0.00000000000E+00 0.  1.
         11    1    3    3    0    0 -0.15803137246E+01 -0.11686366810E+02 -0.25042260958E+02  0.27680017971E+02  0.51100000000E-03 0. -1.
        -11    1    3    3    0    0 -0.11569341873E+02  0.47236645170E+01 -0.14453440571E+02  0.19106664347E+02  0.51100000000E-03 0.  1.
        -12    1    3    3    0    0  0.13974599825E+02  0.73847513138E+01  0.40227060566E+02  0.43220832870E+02  0.00000000000E+00 0.  1.
</event>
<event>
 7    1  0.2593256E-015  0.9000770E+02  0.7816164E-02  0.1186339E+00
        -11   -1    0    0    0    0  0.00000000000E+00  0.00000000000E+00  0.45593999997E+02  0.45594000000E+02  0.51100000000E-03 0.  1.
         11   -1    0    0    0    0 -0.00000000000E+00 -0.00000000000E+00 -0.45593999997E+02  0.45594000000E+02  0.51100000000E-03 0. -1.
    9900012    2    1    2    0    0  0.10697378354E+00 -0.95846637830E+00 -0.68044318049E+00  0.90007701686E+02  0.89999962548E+02 0.  0.
        -12    1    1    2    0    0 -0.10697378354E+00  0.95846637830E+00  0.68044318049E+00  0.11802983142E+01  0.00000000000E+00 0.  1.
         11    1    3    3    0    0 -0.74296785734E+01  0.76283585955E+01  0.10490245923E+01  0.10700113617E+02  0.51100000000E-03 0. -1.
        -11    1    3    3    0    0  0.12209310171E+02  0.31038643135E+02  0.14323768293E+02  0.36299241878E+02  0.51100000000E-03 0.  1.
         12    1    3    3    0    0 -0.46726578139E+01 -0.39625468109E+02 -0.16053236065E+02  0.43008346191E+02  0.00000000000E+00 0. -1.
</event>
<event>
 7    1  0.2593256E-015  0.9000773E+02  0.7816164E-02  0.1186339E+00
        -11   -1    0    0    0    0  0.00000000000E+00  0.00000000000E+00  0.45593999997E+02  0.45594000000E+02  0.51100000000E-03 0.  1.
         11   -1    0    0    0    0 -0.00000000000E+00 -0.00000000000E+00 -0.45593999997E+02  0.45594000000E+02  0.51100000000E-03 0. -1.
    9900012    2    1    2    0    0  0.80592130326E+00 -0.16516948719E+00 -0.84631458790E+00  0.90007729485E+02  0.89999990714E+02 0.  0.
        -12    1    1    2    0    0 -0.80592130326E+00  0.16516948719E+00  0.84631458790E+00  0.11802705149E+01  0.00000000000E+00 0.  1.
         11    1    3    3    0    0  0.20431440308E+02  0.27866232462E+02 -0.24441737980E+02  0.42324569938E+02  0.51100000000E-03 0. -1.
        -11    1    3    3    0    0 -0.72688728790E+01  0.30925155001E+01  0.54374640650E+01  0.95898999352E+01  0.51100000000E-03 0.  1.
        -12    1    3    3    0    0 -0.12356646126E+02 -0.31123917449E+02  0.18157959327E+02  0.38093259611E+02  0.00000000000E+00 0.  1.
</event>
<event>
 7    1  0.2593256E-015  0.9000776E+02  0.7816164E-02  0.1186339E+00
        -11   -1    0    0    0    0  0.00000000000E+00  0.00000000000E+00  0.45593999997E+02  0.45594000000E+02  0.51100000000E-03 0. -1.
         11   -1    0    0    0    0 -0.00000000000E+00 -0.00000000000E+00 -0.45593999997E+02  0.45594000000E+02  0.51100000000E-03 0.  1.
    9900012    2    1    2    0    0  0.69468921962E+00 -0.87778826818E+00  0.37399336681E+00  0.90007755791E+02  0.90000017367E+02 0.  0.
        -12    1    1    2    0    0 -0.69468921962E+00  0.87778826818E+00 -0.37399336681E+00  0.11802442095E+01  0.00000000000E+00 0.  1.
         11    1    3    3    0    0 -0.18054510851E+02  0.22605141595E+02 -0.72011451584E+01  0.29812988453E+02  0.51100000000E-03 0. -1.
        -11    1    3    3    0    0 -0.14629834488E+02  0.58500554182E+00 -0.73976398132E+01  0.16404248343E+02  0.51100000000E-03 0.  1.
        -12    1    3    3    0    0  0.33379034558E+02 -0.24067935405E+02  0.14972778338E+02  0.43790518995E+02  0.00000000000E+00 0.  1.
</event>
<event>
 7    1  0.2593256E-015  0.9000774E+02  0.7816164E-02  0.1186339E+00
        -11   -1    0    0    0    0  0.00000000000E+00  0.00000000000E+00  0.45593999997E+02  0.45594000000E+02  0.51100000000E-03 0.  1.
         11   -1    0    0    0    0 -0.00000000000E+00 -0.00000000000E+00 -0.45593999997E+02  0.45594000000E+02  0.51100000000E-03 0. -1.
    9900012    2    1    2    0    0 -0.65389955007E+00 -0.90860498487E+00 -0.37398622745E+00  0.90007740139E+02  0.90000001509E+02 0.  0.
        -12    1    1    2    0    0  0.65389955007E+00  0.90860498487E+00  0.37398622745E+00  0.11802598606E+01  0.00000000000E+00 0.  1.
         11    1    3    3    0    0 -0.56270115707E+01 -0.18783279132E+01  0.70676673867E+01  0.92273125837E+01  0.51100000000E-03 0. -1.
        -11    1    3    3    0    0  0.38681377959E+01 -0.18692589920E+02  0.31677264772E+02  0.36984111611E+02  0.51100000000E-03 0.  1.
         12    1    3    3    0    0  0.11049742247E+01  0.19662312848E+02 -0.39118918387E+02  0.43796315945E+02  0.00000000000E+00 0. -1.
</event>
<event>
 7    1  0.2593256E-015  0.9000764E+02  0.7816164E-02  0.1186339E+00
        -11   -1    0    0    0    0  0.00000000000E+00  0.00000000000E+00  0.45593999997E+02  0.45594000000E+02  0.51100000000E-03 0.  1.
         11   -1    0    0    0    0 -0.00000000000E+00 -0.00000000000E+00 -0.45593999997E+02  0.45594000000E+02  0.51100000000E-03 0. -1.
    9900012    2    1    2    0    0 -0.21413620032E+00  0.97935323950E+00 -0.62311147588E+00  0.90007637771E+02  0.89999897790E+02 0.  0.
        -12    1    1    2    0    0  0.21413620032E+00 -0.97935323950E+00  0.62311147588E+00  0.11803622289E+01  0.00000000000E+00 0.  1.
         11    1    3    3    0    0 -0.54756497772E+01  0.78509719312E+01 -0.63786250339E+01  0.11502493570E+02  0.51100000000E-03 0. -1.
        -11    1    3    3    0    0 -0.27566583695E+02 -0.13105436426E+02  0.25429978433E+02  0.39728488567E+02  0.51100000000E-03 0.  1.
         12    1    3    3    0    0  0.32828097272E+02  0.62338177338E+01 -0.19674464875E+02  0.38776655634E+02  0.00000000000E+00 0. -1.
</event>
<event>
 7    1  0.2593256E-015  0.9000775E+02  0.7816164E-02  0.1186339E+00
        -11   -1    0    0    0    0  0.00000000000E+00  0.00000000000E+00  0.45593999997E+02  0.45594000000E+02  0.51100000000E-03 0.  1.
         11   -1    0    0    0    0 -0.00000000000E+00 -0.00000000000E+00 -0.45593999997E+02  0.45594000000E+02  0.51100000000E-03 0. -1.
    9900012    2    1    2    0    0  0.91193729156E+00 -0.19453229246E+00 -0.72354026334E+00  0.90007753013E+02  0.90000014553E+02 0.  0.
        -12    1    1    2    0    0 -0.91193729156E+00  0.19453229246E+00  0.72354026334E+00  0.11802469865E+01  0.00000000000E+00 0.  1.
         11    1    3    3    0    0 -0.17292838190E+02 -0.62526705236E+01 -0.35057948302E+02  0.39587850166E+02  0.51100000000E-03 0. -1.
        -11    1    3    3    0    0 -0.47160830524E+01 -0.78990456952E+01  0.43380111480E+01  0.10171268516E+02  0.51100000000E-03 0.  1.
        -12    1    3    3    0    0  0.22920858534E+02  0.13957183926E+02  0.29996396891E+02  0.40248634331E+02  0.00000000000E+00 0.  1.
</event>
<event>
 7    1  0.2593256E-015  0.9000770E+02  0.7816164E-02  0.1186339E+00
        -11   -1    0    0    0    0  0.00000000000E+00  0.00000000000E+00  0.45593999997E+02  0.45594000000E+02  0.51100000000E-03 0.  1.
         11   -1    0    0    0    0 -0.00000000000E+00 -0.00000000000E+00 -0.45593999997E+02  0.45594000000E+02  0.51100000000E-03 0. -1.
    9900012    2    1    2    0    0 -0.50337239524E+00 -0.80891963060E+00  0.69668578128E+00  0.90007700964E+02  0.89999961816E+02 0.  0.
        -12    1    1    2    0    0  0.50337239524E+00  0.80891963060E+00 -0.69668578128E+00  0.11802990362E+01  0.00000000000E+00 0.  1.
         11    1    3    3    0    0 -0.12282709412E+01  0.10683892396E+02  0.33750895824E+01  0.11271443394E+02  0.51100000000E-03 0. -1.
        -11    1    3    3    0    0 -0.96924576441E+01  0.28350903508E+02 -0.17816696578E+02  0.34859032432E+02  0.51100000000E-03 0.  1.
         12    1    3    3    0    0  0.10417356190E+02 -0.39843715534E+02  0.15138292777E+02  0.43877225138E+02  0.00000000000E+00 0. -1.
</event>
<event>
 7    1  0.2593256E-015  0.9000774E+02  0.7816164E-02  0.1186339E+00
        -11   -1    0    0    0    0  0.00000000000E+00  0.00000000000E+00  0.45593999997E+02  0.45594000000E+02  0.51100000000E-03 0.  1.
         11   -1    0    0    0    0 -0.00000000000E+00 -0.00000000000E+00 -0.45593999997E+02  0.45594000000E+02  0.51100000000E-03 0. -1.
    9900012    2    1    2    0    0  0.46414068919E+00  0.10850163390E+01  0.18335197451E-01  0.90007735955E+02  0.89999997270E+02 0.  0.
        -12    1    1    2    0    0 -0.46414068919E+00 -0.10850163390E+01 -0.18335197451E-01  0.11802640445E+01  0.00000000000E+00 0.  1.
         11    1    3    3    0    0 -0.10463607775E+02  0.26704020911E+01  0.11398661523E+02  0.15701834918E+02  0.51100000000E-03 0. -1.
        -11    1    3    3    0    0 -0.30381976729E+02  0.20803885119E+01 -0.12250301858E+02  0.32824722729E+02  0.51100000000E-03 0.  1.
         12    1    3    3    0    0  0.41309725193E+02 -0.36657742640E+01  0.86997553160E+00  0.41481178309E+02  0.00000000000E+00 0. -1.
</event>
<event>
 7    1  0.4925110E-015  0.9000775E+02  0.7816164E-02  0.1186339E+00
        -11   -1    0    0    0    0  0.00000000000E+00  0.00000000000E+00  0.45593999997E+02  0.45594000000E+02  0.51100000000E-03 0. -1.
         11   -1    0    0    0    0 -0.00000000000E+00 -0.00000000000E+00 -0.45593999997E+02  0.45594000000E+02  0.51100000000E-03 0.  1.
    9900012    2    1    2    0    0 -0.59532612048E+00 -0.54793243805E+00  0.85926869883E+00  0.90007751787E+02  0.90000013311E+02 0.  0.
        -12    1    1    2    0    0  0.59532612048E+00  0.54793243805E+00 -0.85926869883E+00  0.11802482125E+01  0.00000000000E+00 0.  1.
         11    1    3    3    0    0 -0.17512396762E+02  0.50538617956E+01  0.35916155325E+02  0.40276491568E+02  0.51100000000E-03 0. -1.
        -11    1    3    3    0    0 -0.86244506783E+00 -0.97851158899E+01  0.41634364503E+00  0.98318689356E+01  0.51100000000E-03 0.  1.
        -12    1    3    3    0    0  0.17779515709E+02  0.41833216563E+01 -0.35473230272E+02  0.39899391284E+02  0.00000000000E+00 0.  1.
</event>
<event>
 7    1  0.2593256E-015  0.9000780E+02  0.7816164E-02  0.1186339E+00
        -11   -1    0    0    0    0  0.00000000000E+00  0.00000000000E+00  0.45593999997E+02  0.45594000000E+02  0.51100000000E-03 0. -1.
         11   -1    0    0    0    0 -0.00000000000E+00 -0.00000000000E+00 -0.45593999997E+02  0.45594000000E+02  0.51100000000E-03 0.  1.
    9900012    2    1    2    0    0 -0.76289077401E-01 -0.26573888512E+00  0.11473620956E+01  0.90007797917E+02  0.90000060049E+02 0.  0.
        -12    1    1    2    0    0  0.76289077401E-01  0.26573888512E+00 -0.11473620956E+01  0.11802020831E+01  0.00000000000E+00 0.  1.
         11    1    3    3    0    0  0.35271709974E+02 -0.22840111926E+01 -0.12928222716E+01  0.35369218556E+02  0.51100000000E-03 0. -1.
        -11    1    3    3    0    0  0.79457061720E+01 -0.67099960503E+01  0.10373816858E+01  0.10451528816E+02  0.51100000000E-03 0.  1.
        -12    1    3    3    0    0 -0.43293705223E+02  0.87282683578E+01  0.14028026814E+01  0.44187050545E+02  0.00000000000E+00 0.  1.
</event>
<event>
 7    1  0.2593256E-015  0.9000768E+02  0.7816164E-02  0.1186339E+00
        -11   -1    0    0    0    0  0.00000000000E+00  0.00000000000E+00  0.45593999997E+02  0.45594000000E+02  0.51100000000E-03 0. -1.
         11   -1    0    0    0    0 -0.00000000000E+00 -0.00000000000E+00 -0.45593999997E+02  0.45594000000E+02  0.51100000000E-03 0.  1.
    9900012    2    1    2    0    0  0.84714065906E+00 -0.73453638284E+00 -0.36873681402E+00  0.90007678928E+02  0.89999939490E+02 0.  0.
        -12    1    1    2    0    0 -0.84714065906E+00  0.73453638284E+00  0.36873681402E+00  0.11803210716E+01  0.00000000000E+00 0.  1.
         11    1    3    3    0    0 -0.10433792892E+02  0.36733331700E+02  0.13931949199E+02  0.40648504286E+02  0.51100000000E-03 0. -1.
        -11    1    3    3    0    0 -0.28076857220E+01 -0.59304932057E+01  0.63371911533E+01  0.91221620656E+01  0.51100000000E-03 0.  1.
        -12    1    3    3    0    0  0.14088619273E+02 -0.31537374877E+02 -0.20637877167E+02  0.40237012577E+02  0.00000000000E+00 0.  1.
</event>
<event>
 7    1  0.2593256E-015  0.9000776E+02  0.7816164E-02  0.1186339E+00
        -11   -1    0    0    0    0  0.00000000000E+00  0.00000000000E+00  0.45593999997E+02  0.45594000000E+02  0.51100000000E-03 0.  1.
         11   -1    0    0    0    0 -0.00000000000E+00 -0.00000000000E+00 -0.45593999997E+02  0.45594000000E+02  0.51100000000E-03 0. -1.
    9900012    2    1    2    0    0  0.10791202759E+01  0.32853780191E+00 -0.34716675586E+00  0.90007761713E+02  0.90000023368E+02 0.  0.
        -12    1    1    2    0    0 -0.10791202759E+01 -0.32853780191E+00  0.34716675586E+00  0.11802382868E+01  0.00000000000E+00 0.  1.
         11    1    3    3    0    0  0.88463813602E+01 -0.68377931503E-01 -0.39199896392E+01  0.96762315880E+01  0.51100000000E-03 0. -1.
        -11    1    3    3    0    0 -0.79734423309E+01  0.38275781090E+02 -0.95437556895E+01  0.40245427984E+02  0.51100000000E-03 0.  1.
         12    1    3    3    0    0  0.20618124659E+00 -0.37878865357E+02  0.13116578573E+02  0.40086102141E+02  0.00000000000E+00 0. -1.
</event>
<event>
 7    1  0.2593256E-015  0.9000792E+02  0.7816164E-02  0.1186339E+00
        -11   -1    0    0    0    0  0.00000000000E+00  0.00000000000E+00  0.45593999997E+02  0.45594000000E+02  0.51100000000E-03 0. -1.
         11   -1    0    0    0    0 -0.00000000000E+00 -0.00000000000E+00 -0.45593999997E+02  0.45594000000E+02  0.51100000000E-03 0.  1.
    9900012    2    1    2    0    0 -0.94072791632E+00  0.11118486652E+00  0.70373885021E+00  0.90007923962E+02  0.90000187758E+02 0.  0.
        -12    1    1    2    0    0  0.94072791632E+00 -0.11118486652E+00 -0.70373885021E+00  0.11800760384E+01  0.00000000000E+00 0.  1.
         11    1    3    3    0    0  0.10027536026E+02 -0.48023713569E+01 -0.10951742460E+01  0.11172003235E+02  0.51100000000E-03 0. -1.
        -11    1    3    3    0    0  0.27795889040E+02 -0.53832825498E+01  0.20127864553E+02  0.34737905957E+02  0.51100000000E-03 0.  1.
         12    1    3    3    0    0 -0.38764152982E+02  0.10296838773E+02 -0.18328951457E+02  0.44098014770E+02  0.00000000000E+00 0. -1.
</event>
