<event>
 7    1  0.1999542E-015  0.9000771E+02  0.7816164E-02  0.1186339E+00
        -11   -1    0    0    0    0  0.00000000000E+00  0.00000000000E+00  0.45593999997E+02  0.45594000000E+02  0.51100000000E-03 0.  1.
         11   -1    0    0    0    0 -0.00000000000E+00 -0.00000000000E+00 -0.45593999997E+02  0.45594000000E+02  0.51100000000E-03 0. -1.
    9900012    2    1    2    0    0 -0.54255341773E+00  0.15946439250E-01  0.10480720848E+01  0.90007714613E+02  0.89999975646E+02 0.  0.
         12    1    1    2    0    0  0.54255341773E+00 -0.15946439250E-01 -0.10480720848E+01  0.11802853870E+01  0.00000000000E+00 0. -1.
         11    1    3    3    0    0  0.34998711922E+02  0.10736111961E+02 -0.14842986088E+02  0.39503014727E+02  0.51100000000E-03 0. -1.
        -11    1    3    3    0    0 -0.21684994653E+01 -0.39376135443E+01 -0.78118323665E+01  0.90128749874E+01  0.51100000000E-03 0.  1.
        -12    1    3    3    0    0 -0.33372765875E+02 -0.67825519774E+01  0.23702890540E+02  0.41491824898E+02  0.00000000000E+00 0.  1.
</event>
<event>
 7    1  0.1999542E-015  0.9000786E+02  0.7816164E-02  0.1186339E+00
        -11   -1    0    0    0    0  0.00000000000E+00  0.00000000000E+00  0.45593999997E+02  0.45594000000E+02  0.51100000000E-03 0. -1.
         11   -1    0    0    0    0 -0.00000000000E+00 -0.00000000000E+00 -0.45593999997E+02  0.45594000000E+02  0.51100000000E-03 0.  1.
    9900012    2    1    2    0    0  0.61060474045E+00 -0.96999384925E+00  0.28106173630E+00  0.90007863603E+02  0.90000126602E+02 0.  0.
         12    1    1    2    0    0 -0.61060474045E+00  0.96999384925E+00 -0.28106173630E+00  0.11801363973E+01  0.00000000000E+00 0. -1.
         11    1    3    3    0    0 -0.27980493948E+02  0.74830463687E+01  0.24245508529E+02  0.37772327286E+02  0.51100000000E-03 0. -1.
        -11    1    3    3    0    0 -0.34096790167E+01 -0.90019193522E+01  0.33159451844E+01  0.10181156896E+02  0.51100000000E-03 0.  1.
        -12    1    3    3    0    0  0.32000777705E+02  0.54887913416E+00 -0.27280391977E+02  0.42054379420E+02  0.00000000000E+00 0.  1.
</event>
<event>
 7    1  0.1999542E-015  0.9000801E+02  0.7816164E-02  0.1186339E+00
        -11   -1    0    0    0    0  0.00000000000E+00  0.00000000000E+00  0.45593999997E+02  0.45594000000E+02  0.51100000000E-03 0.  1.
         11   -1    0    0    0    0 -0.00000000000E+00 -0.00000000000E+00 -0.45593999997E+02  0.45594000000E+02  0.51100000000E-03 0. -1.
    9900012    2    1    2    0    0 -0.59329832978E+00  0.84739521113E+00  0.56770646420E+00  0.90008011788E+02  0.90000276743E+02 0.  0.
         12    1    1    2    0    0  0.59329832978E+00 -0.84739521113E+00 -0.56770646420E+00  0.11799882124E+01  0.00000000000E+00 0. -1.
         11    1    3    3    0    0 -0.49696860558E+01  0.66850067635E+01  0.43670138347E+01  0.94052062718E+01  0.51100000000E-03 0. -1.
        -11    1    3    3    0    0 -0.31539711373E+02  0.18701325519E+02  0.19866804191E+01  0.36721109311E+02  0.51100000000E-03 0.  1.
         12    1    3    3    0    0  0.35916099099E+02 -0.24538937071E+02 -0.57859877896E+01  0.43881696205E+02  0.00000000000E+00 0. -1.
</event>
<event>
 7    1  0.1999542E-015  0.9000780E+02  0.7816164E-02  0.1186339E+00
        -11   -1    0    0    0    0  0.00000000000E+00  0.00000000000E+00  0.45593999997E+02  0.45594000000E+02  0.51100000000E-03 0.  1.
         11   -1    0    0    0    0 -0.00000000000E+00 -0.00000000000E+00 -0.45593999997E+02  0.45594000000E+02  0.51100000000E-03 0. -1.
    9900012    2    1    2    0    0 -0.86297144325E+00  0.49122928865E+00  0.63784467352E+00  0.90007800121E+02  0.90000062283E+02 0.  0.
         12    1    1    2    0    0  0.86297144325E+00 -0.49122928865E+00 -0.63784467352E+00  0.11801998786E+01  0.00000000000E+00 0. -1.
         11    1    3    3    0    0 -0.37315699402E+02 -0.12368593792E+02  0.28207404648E+00  0.39313141572E+02  0.51100000000E-03 0. -1.
        -11    1    3    3    0    0  0.10063905484E+01  0.59329035110E+01 -0.11250521639E+02  0.12758777505E+02  0.51100000000E-03 0.  1.
        -12    1    3    3    0    0  0.35446337410E+02  0.69269195693E+01  0.11606292266E+02  0.37935881045E+02  0.00000000000E+00 0.  1.
</event>
<event>
 7    1  0.1999542E-015  0.9000761E+02  0.7816164E-02  0.1186339E+00
        -11   -1    0    0    0    0  0.00000000000E+00  0.00000000000E+00  0.45593999997E+02  0.45594000000E+02  0.51100000000E-03 0. -1.
         11   -1    0    0    0    0 -0.00000000000E+00 -0.00000000000E+00 -0.45593999997E+02  0.45594000000E+02  0.51100000000E-03 0.  1.
    9900012    2    1    2    0    0 -0.11669608231E+01 -0.60421456880E-01  0.16696826793E+00  0.90007607388E+02  0.89999867006E+02 0.  0.
         12    1    1    2    0    0  0.11669608231E+01  0.60421456880E-01 -0.16696826793E+00  0.11803926117E+01  0.00000000000E+00 0. -1.
         11    1    3    3    0    0 -0.11516819553E+02 -0.50327288599E+01  0.60051385351E+01  0.13929364001E+02  0.51100000000E-03 0. -1.
        -11    1    3    3    0    0  0.34514151613E+01 -0.30510193247E+02 -0.20662342991E+02  0.37009682203E+02  0.51100000000E-03 0.  1.
         12    1    3    3    0    0  0.68984435688E+01  0.35482500650E+02  0.14824172724E+02  0.39068561184E+02  0.00000000000E+00 0. -1.
</event>
<event>
 7    1  0.2299559E-015  0.9000803E+02  0.7816164E-02  0.1186338E+00
        -11   -1    0    0    0    0  0.00000000000E+00  0.00000000000E+00  0.45593999997E+02  0.45594000000E+02  0.51100000000E-03 0. -1.
         11   -1    0    0    0    0 -0.00000000000E+00 -0.00000000000E+00 -0.45593999997E+02  0.45594000000E+02  0.51100000000E-03 0.  1.
    9900012    2    1    2    0    0 -0.62705554398E+00  0.88637652173E+00 -0.46203449308E+00  0.90008026328E+02  0.90000291475E+02 0.  0.
         12    1    1    2    0    0  0.62705554398E+00 -0.88637652173E+00  0.46203449308E+00  0.11799736719E+01  0.00000000000E+00 0. -1.
         11    1    3    3    0    0  0.50402207894E+01 -0.10409200134E+02  0.35587112094E+02  0.37419217262E+02  0.51100000000E-03 0. -1.
        -11    1    3    3    0    0  0.14644045108E+01 -0.90448564410E+01  0.15080944697E+01  0.92859171760E+01  0.51100000000E-03 0.  1.
        -12    1    3    3    0    0 -0.71316808441E+01  0.20340433097E+02 -0.37557241057E+02  0.43302891890E+02  0.00000000000E+00 0.  1.
</event>
<event>
 7    1  0.1999542E-015  0.9000762E+02  0.7816164E-02  0.1186339E+00
        -11   -1    0    0    0    0  0.00000000000E+00  0.00000000000E+00  0.45593999997E+02  0.45594000000E+02  0.51100000000E-03 0.  1.
         11   -1    0    0    0    0 -0.00000000000E+00 -0.00000000000E+00 -0.45593999997E+02  0.45594000000E+02  0.51100000000E-03 0. -1.
    9900012    2    1    2    0    0 -0.84329369151E+00  0.25002277018E+00  0.78717026350E+00  0.90007621815E+02  0.89999881623E+02 0.  0.
         12    1    1    2    0    0  0.84329369151E+00 -0.25002277018E+00 -0.78717026350E+00  0.11803781849E+01  0.00000000000E+00 0. -1.
         11    1    3    3    0    0 -0.59214017895E+01  0.78717463014E+01 -0.35760595026E+02  0.37092418981E+02  0.51100000000E-03 0. -1.
        -11    1    3    3    0    0  0.30416183574E+01 -0.88075956909E+01 -0.54876000232E+01  0.10813830883E+02  0.51100000000E-03 0.  1.
        -12    1    3    3    0    0  0.20364897406E+01  0.11858721598E+01  0.42035365312E+02  0.42101371951E+02  0.00000000000E+00 0.  1.
</event>
<event>
 7    1  0.1999542E-015  0.9000763E+02  0.7816164E-02  0.1186339E+00
        -11   -1    0    0    0    0  0.00000000000E+00  0.00000000000E+00  0.45593999997E+02  0.45594000000E+02  0.51100000000E-03 0. -1.
         11   -1    0    0    0    0 -0.00000000000E+00 -0.00000000000E+00 -0.45593999997E+02  0.45594000000E+02  0.51100000000E-03 0.  1.
    9900012    2    1    2    0    0  0.10110926457E+01  0.48562829007E+00 -0.36760351530E+00  0.90007629076E+02  0.89999888979E+02 0.  0.
         12    1    1    2    0    0 -0.10110926457E+01 -0.48562829007E+00  0.36760351530E+00  0.11803709243E+01  0.00000000000E+00 0. -1.
         11    1    3    3    0    0 -0.86481415615E+01 -0.36272706261E+01 -0.37620945927E+01  0.10104494082E+02  0.51100000000E-03 0. -1.
        -11    1    3    3    0    0  0.44290452017E+00  0.38179544541E+02 -0.13859686985E+02  0.40619757623E+02  0.51100000000E-03 0.  1.
         12    1    3    3    0    0  0.92163296870E+01 -0.34066645625E+02  0.17254178062E+02  0.39283377371E+02  0.00000000000E+00 0. -1.
</event>
<event>
 7    1  0.1999542E-015  0.9000773E+02  0.7816164E-02  0.1186339E+00
        -11   -1    0    0    0    0  0.00000000000E+00  0.00000000000E+00  0.45593999997E+02  0.45594000000E+02  0.51100000000E-03 0. -1.
         11   -1    0    0    0    0 -0.00000000000E+00 -0.00000000000E+00 -0.45593999997E+02  0.45594000000E+02  0.51100000000E-03 0.  1.
    9900012    2    1    2    0    0 -0.65310119753E+00 -0.91827193338E+00  0.35110754179E+00  0.90007728411E+02  0.89999989626E+02 0.  0.
         12    1    1    2    0    0  0.65310119753E+00  0.91827193338E+00 -0.35110754179E+00  0.11802715890E+01  0.00000000000E+00 0. -1.
         11    1    3    3    0    0  0.24776911156E+02 -0.26575007435E+02  0.41244254504E+01  0.36566887099E+02  0.51100000000E-03 0. -1.
        -11    1    3    3    0    0 -0.11242701016E+01 -0.77960893834E+01  0.71866106039E+01  0.10662568413E+02  0.51100000000E-03 0.  1.
        -12    1    3    3    0    0 -0.24305742252E+02  0.33452824885E+02 -0.10959928513E+02  0.42778272898E+02  0.00000000000E+00 0.  1.
</event>
<event>
 7    1  0.1999542E-015  0.9000773E+02  0.7816164E-02  0.1186339E+00
        -11   -1    0    0    0    0  0.00000000000E+00  0.00000000000E+00  0.45593999997E+02  0.45594000000E+02  0.51100000000E-03 0.  1.
         11   -1    0    0    0    0 -0.00000000000E+00 -0.00000000000E+00 -0.45593999997E+02  0.45594000000E+02  0.51100000000E-03 0. -1.
    9900012    2    1    2    0    0  0.44298995539E-01  0.11299543628E+01 -0.33805805132E+00  0.90007727782E+02  0.89999988989E+02 0.  0.
         12    1    1    2    0    0 -0.44298995539E-01 -0.11299543628E+01  0.33805805132E+00  0.11802722182E+01  0.00000000000E+00 0. -1.
         11    1    3    3    0    0 -0.25238627326E+02  0.48715737069E+01 -0.34540570791E+02  0.43055447628E+02  0.51100000000E-03 0. -1.
        -11    1    3    3    0    0 -0.16530161425E+01  0.29266023747E+01  0.84527008468E+01  0.90964617128E+01  0.51100000000E-03 0.  1.
        -12    1    3    3    0    0  0.26935942464E+02 -0.66682217188E+01  0.25749811893E+02  0.37855818441E+02  0.00000000000E+00 0.  1.
</event>
<event>
 7    1  0.1999542E-015  0.9000774E+02  0.7816164E-02  0.1186339E+00
        -11   -1    0    0    0    0  0.00000000000E+00  0.00000000000E+00  0.45593999997E+02  0.45594000000E+02  0.51100000000E-03 0.  1.
         11   -1    0    0    0    0 -0.00000000000E+00 -0.00000000000E+00 -0.45593999997E+02  0.45594000000E+02  0.51100000000E-03 0. -1.
    9900012    2    1    2    0    0 -0.26803069222E+00 -0.85208414750E+00  0.77144175781E+00  0.90007741455E+02  0.90000002843E+02 0.  0.
         12    1    1    2    0    0  0.26803069222E+00  0.85208414750E+00 -0.77144175781E+00  0.11802585446E+01  0.00000000000E+00 0. -1.
         11    1    3    3    0    0  0.86841294050E+01  0.14331327766E+01  0.47240836624E+01  0.99892412019E+01  0.51100000000E-03 0. -1.
        -11    1    3    3    0    0  0.97279229886E+01 -0.31928200250E+01  0.35183698880E+02  0.36643133771E+02  0.51100000000E-03 0.  1.
         12    1    3    3    0    0 -0.18680083086E+02  0.90760310097E+00 -0.39136340785E+02  0.43375366483E+02  0.00000000000E+00 0. -1.
</event>
<event>
 7    1  0.1999542E-015  0.9000774E+02  0.7816164E-02  0.1186339E+00
        -11   -1    0    0    0    0  0.00000000000E+00  0.00000000000E+00  0.45593999997E+02  0.45594000000E+02  0.51100000000E-03 0.  1.
         11   -1    0    0    0    0 -0.00000000000E+00 -0.00000000000E+00 -0.45593999997E+02  0.45594000000E+02  0.51100000000E-03 0. -1.
    9900012    2    1    2    0    0  0.42231869159E+00 -0.10816390109E+01  0.21144114567E+00  0.90007744356E+02  0.90000005781E+02 0.  0.
         12    1    1    2    0    0 -0.42231869159E+00  0.10816390109E+01 -0.21144114567E+00  0.11802556440E+01  0.00000000000E+00 0. -1.
         11    1    3    3    0    0 -0.21357192589E+02 -0.31902907723E+02 -0.44368025794E+00  0.38394297088E+02  0.51100000000E-03 0. -1.
        -11    1    3    3    0    0 -0.46662895446E+01 -0.41011265829E+01  0.44526689427E+01  0.76432819088E+01  0.51100000000E-03 0.  1.
        -12    1    3    3    0    0  0.26445800825E+02  0.34922395295E+02 -0.37975475391E+01  0.43970165359E+02  0.00000000000E+00 0.  1.
</event>
<event>
 7    1  0.1999542E-015  0.9000769E+02  0.7816164E-02  0.1186339E+00
        -11   -1    0    0    0    0  0.00000000000E+00  0.00000000000E+00  0.45593999997E+02  0.45594000000E+02  0.51100000000E-03 0. -1.
         11   -1    0    0    0    0 -0.00000000000E+00 -0.00000000000E+00 -0.45593999997E+02  0.45594000000E+02  0.51100000000E-03 0.  1.
    9900012    2    1    2    0    0 -0.86682917124E+00  0.79339031193E+00  0.11073545145E+00  0.90007693540E+02  0.89999954295E+02 0.  0.
         12    1    1    2    0    0  0.86682917124E+00 -0.79339031193E+00 -0.11073545145E+00  0.11803064599E+01  0.00000000000E+00 0. -1.
         11    1    3    3    0    0 -0.25128473147E+02 -0.24394737145E+02  0.95149589770E+01  0.36291566619E+02  0.51100000000E-03 0. -1.
        -11    1    3    3    0    0  0.10233012479E+02 -0.79773031142E+01  0.63080172611E+01  0.14427161585E+02  0.51100000000E-03 0.  1.
        -12    1    3    3    0    0  0.14028631496E+02  0.33165430571E+02 -0.15712240787E+02  0.39288965336E+02  0.00000000000E+00 0.  1.
</event>
<event>
 7    1  0.1999542E-015  0.9000779E+02  0.7816164E-02  0.1186339E+00
        -11   -1    0    0    0    0  0.00000000000E+00  0.00000000000E+00  0.45593999997E+02  0.45594000000E+02  0.51100000000E-03 0.  1.
         11   -1    0    0    0    0 -0.00000000000E+00 -0.00000000000E+00 -0.45593999997E+02  0.45594000000E+02  0.51100000000E-03 0. -1.
    9900012    2    1    2    0    0  0.10639072566E+01  0.75173264104E-01  0.50532535202E+00  0.90007786722E+02  0.90000048707E+02 0.  0.
         12    1    1    2    0    0 -0.10639072566E+01 -0.75173264104E-01 -0.50532535202E+00  0.11802132780E+01  0.00000000000E+00 0. -1.
         11    1    3    3    0    0 -0.24347728318E+02  0.17502584221E+02 -0.14408888122E+01  0.30020467843E+02  0.51100000000E-03 0. -1.
        -11    1    3    3    0    0  0.64344760972E+01  0.11397939781E+02  0.17729979947E+02  0.22037869749E+02  0.51100000000E-03 0.  1.
        -12    1    3    3    0    0  0.18977159477E+02 -0.28825350738E+02 -0.15783765783E+02  0.37949449130E+02  0.00000000000E+00 0.  1.
</event>
<event>
 7    1  0.1999542E-015  0.9000773E+02  0.7816164E-02  0.1186339E+00
        -11   -1    0    0    0    0  0.00000000000E+00  0.00000000000E+00  0.45593999997E+02  0.45594000000E+02  0.51100000000E-03 0. -1.
         11   -1    0    0    0    0 -0.00000000000E+00 -0.00000000000E+00 -0.45593999997E+02  0.45594000000E+02  0.51100000000E-03 0.  1.
    9900012    2    1    2    0    0  0.10033482852E+01 -0.60391225250E+00 -0.14702569244E+00  0.90007731241E+02  0.89999992493E+02 0.  0.
         12    1    1    2    0    0 -0.10033482852E+01  0.60391225250E+00  0.14702569244E+00  0.11802687594E+01  0.00000000000E+00 0. -1.
         11    1    3    3    0    0 -0.41646888715E+01 -0.42345439746E+01 -0.69421024372E+01  0.91361251403E+01  0.51100000000E-03 0. -1.
        -11    1    3    3    0    0  0.34671252123E+01 -0.89224776700E+01 -0.35475175577E+02  0.36743974302E+02  0.51100000000E-03 0.  1.
         12    1    3    3    0    0  0.17009119444E+01  0.12553109392E+02  0.42270252321E+02  0.44127631799E+02  0.00000000000E+00 0. -1.
</event>
<event>
 7    1  0.1999542E-015  0.9000783E+02  0.7816164E-02  0.1186339E+00
        -11   -1    0    0    0    0  0.00000000000E+00  0.00000000000E+00  0.45593999997E+02  0.45594000000E+02  0.51100000000E-03 0.  1.
         11   -1    0    0    0    0 -0.00000000000E+00 -0.00000000000E+00 -0.45593999997E+02  0.45594000000E+02  0.51100000000E-03 0. -1.
    9900012    2    1    2    0    0 -0.10791162428E+01  0.10263765978E+00  0.46666977400E+00  0.90007827541E+02  0.90000090065E+02 0.  0.
         12    1    1    2    0    0  0.10791162428E+01 -0.10263765978E+00 -0.46666977400E+00  0.11801724589E+01  0.00000000000E+00 0. -1.
         11    1    3    3    0    0  0.26982721973E+01 -0.90678377002E+01 -0.17934644092E+01  0.96292714291E+01  0.51100000000E-03 0. -1.
        -11    1    3    3    0    0  0.37768542891E+02  0.55354176028E+01 -0.32562028006E+01  0.38310658270E+02  0.51100000000E-03 0.  1.
         12    1    3    3    0    0 -0.41545931331E+02  0.36350577572E+01  0.55163369837E+01  0.42067897842E+02  0.00000000000E+00 0. -1.
</event>
<event>
 7    1  0.1999542E-015  0.9000779E+02  0.7816164E-02  0.1186339E+00
        -11   -1    0    0    0    0  0.00000000000E+00  0.00000000000E+00  0.45593999997E+02  0.45594000000E+02  0.51100000000E-03 0.  1.
         11   -1    0    0    0    0 -0.00000000000E+00 -0.00000000000E+00 -0.45593999997E+02  0.45594000000E+02  0.51100000000E-03 0. -1.
    9900012    2    1    2    0    0  0.42563618124E+00  0.99252267673E+00  0.47606326732E+00  0.90007786605E+02  0.90000048588E+02 0.  0.
         12    1    1    2    0    0 -0.42563618124E+00 -0.99252267673E+00 -0.47606326732E+00  0.11802133947E+01  0.00000000000E+00 0. -1.
         11    1    3    3    0    0 -0.28495014408E+02 -0.12753916730E+02 -0.27564862508E+02  0.41646727164E+02  0.51100000000E-03 0. -1.
        -11    1    3    3    0    0  0.78533748729E+01  0.23805244179E+01 -0.33676694758E+01  0.88703771824E+01  0.51100000000E-03 0.  1.
        -12    1    3    3    0    0  0.21067275717E+02  0.11365914989E+02  0.31408595251E+02  0.39490682259E+02  0.00000000000E+00 0.  1.
</event>
<event>
 7    1  0.1999542E-015  0.9000784E+02  0.7816164E-02  0.1186339E+00
        -11   -1    0    0    0    0  0.00000000000E+00  0.00000000000E+00  0.45593999997E+02  0.45594000000E+02  0.51100000000E-03 0.  1.
         11   -1    0    0    0    0 -0.00000000000E+00 -0.00000000000E+00 -0.45593999997E+02  0.45594000000E+02  0.51100000000E-03 0. -1.
    9900012    2    1    2    0    0  0.34973686209E+00  0.93722374960E+00  0.62615094091E+00  0.90007843557E+02  0.90000106292E+02 0.  0.
         12    1    1    2    0    0 -0.34973686209E+00 -0.93722374960E+00 -0.62615094091E+00  0.11801564432E+01  0.00000000000E+00 0. -1.
         11    1    3    3    0    0 -0.30941210770E+01 -0.54479510178E+01 -0.84157894700E+01  0.10491866764E+02  0.51100000000E-03 0. -1.
        -11    1    3    3    0    0 -0.36742392781E+02 -0.51655386725E+01  0.60723862821E+01  0.37597341561E+02  0.51100000000E-03 0.  1.
         12    1    3    3    0    0  0.40186250720E+02  0.11550713440E+02  0.29695541288E+01  0.41918635231E+02  0.00000000000E+00 0. -1.
</event>
<event>
 7    1  0.1999542E-015  0.9000776E+02  0.7816164E-02  0.1186339E+00
        -11   -1    0    0    0    0  0.00000000000E+00  0.00000000000E+00  0.45593999997E+02  0.45594000000E+02  0.51100000000E-03 0.  1.
         11   -1    0    0    0    0 -0.00000000000E+00 -0.00000000000E+00 -0.45593999997E+02  0.45594000000E+02  0.51100000000E-03 0. -1.
    9900012    2    1    2    0    0  0.73494705408E+00  0.29976047466E+00  0.87348334076E+00  0.90007755677E+02  0.90000017252E+02 0.  0.
         12    1    1    2    0    0 -0.73494705408E+00 -0.29976047466E+00 -0.87348334076E+00  0.11802443226E+01  0.00000000000E+00 0. -1.
         11    1    3    3    0    0 -0.51966687705E+01 -0.71105693990E+01  0.10530416410E+01  0.88698624818E+01  0.51100000000E-03 0. -1.
        -11    1    3    3    0    0  0.15354088793E+02 -0.24555925604E+02  0.25874644471E+02  0.38836049641E+02  0.51100000000E-03 0.  1.
         12    1    3    3    0    0 -0.94224729687E+01  0.31966255478E+02 -0.26054202771E+02  0.42301843555E+02  0.00000000000E+00 0. -1.
</event>
<event>
 7    1  0.1999542E-015  0.9000779E+02  0.7816164E-02  0.1186339E+00
        -11   -1    0    0    0    0  0.00000000000E+00  0.00000000000E+00  0.45593999997E+02  0.45594000000E+02  0.51100000000E-03 0. -1.
         11   -1    0    0    0    0 -0.00000000000E+00 -0.00000000000E+00 -0.45593999997E+02  0.45594000000E+02  0.51100000000E-03 0.  1.
    9900012    2    1    2    0    0  0.75541273942E-01 -0.10587987871E+01  0.51588730689E+00  0.90007787702E+02  0.90000049699E+02 0.  0.
         12    1    1    2    0    0 -0.75541273942E-01  0.10587987871E+01 -0.51588730689E+00  0.11802122983E+01  0.00000000000E+00 0. -1.
         11    1    3    3    0    0  0.18914126591E+02 -0.11806935727E+02 -0.13685130271E+02  0.26161626608E+02  0.51100000000E-03 0. -1.
        -11    1    3    3    0    0  0.19496668629E+02  0.12933216631E+02  0.16708157803E+01  0.23455911955E+02  0.51100000000E-03 0.  1.
        -12    1    3    3    0    0 -0.38335253946E+02 -0.21850796904E+01  0.12530201798E+02  0.40390249138E+02  0.00000000000E+00 0.  1.
</event>
<event>
 7    1  0.1999542E-015  0.9000768E+02  0.7816164E-02  0.1186339E+00
        -11   -1    0    0    0    0  0.00000000000E+00  0.00000000000E+00  0.45593999997E+02  0.45594000000E+02  0.51100000000E-03 0. -1.
         11   -1    0    0    0    0 -0.00000000000E+00 -0.00000000000E+00 -0.45593999997E+02  0.45594000000E+02  0.51100000000E-03 0.  1.
    9900012    2    1    2    0    0 -0.35667756223E+00  0.25048228429E+00 -0.10969040417E+01  0.90007678546E+02  0.89999939103E+02 0.  0.
         12    1    1    2    0    0  0.35667756223E+00 -0.25048228429E+00  0.10969040417E+01  0.11803214541E+01  0.00000000000E+00 0. -1.
         11    1    3    3    0    0 -0.77190415662E+01  0.27099175499E+01  0.56689694145E+01  0.99531135988E+01  0.51100000000E-03 0. -1.
        -11    1    3    3    0    0  0.30741578706E+02  0.27178604514E+02 -0.97885409552E+01  0.42184555693E+02  0.51100000000E-03 0.  1.
         12    1    3    3    0    0 -0.23379214702E+02 -0.29638039780E+02  0.30226674990E+01  0.37870009254E+02  0.00000000000E+00 0. -1.
</event>
<event>
 7    1  0.1999542E-015  0.9000800E+02  0.7816164E-02  0.1186339E+00
        -11   -1    0    0    0    0  0.00000000000E+00  0.00000000000E+00  0.45593999997E+02  0.45594000000E+02  0.51100000000E-03 0. -1.
         11   -1    0    0    0    0 -0.00000000000E+00 -0.00000000000E+00 -0.45593999997E+02  0.45594000000E+02  0.51100000000E-03 0.  1.
    9900012    2    1    2    0    0  0.65503601956E+00 -0.74290126108E+00  0.64143213468E+00  0.90007995909E+02  0.90000260655E+02 0.  0.
         12    1    1    2    0    0 -0.65503601956E+00  0.74290126108E+00 -0.64143213468E+00  0.11800040907E+01  0.00000000000E+00 0. -1.
         11    1    3    3    0    0 -0.68541223588E+01 -0.21657638398E+01 -0.46082752386E+01  0.85384850679E+01  0.51100000000E-03 0. -1.
        -11    1    3    3    0    0 -0.48243887151E+01  0.14983478986E+02 -0.34376463098E+02  0.37809001368E+02  0.51100000000E-03 0.  1.
         12    1    3    3    0    0  0.12333547093E+02 -0.13560616407E+02  0.39626170472E+02  0.43660509474E+02  0.00000000000E+00 0. -1.
</event>
<event>
 7    1  0.1999542E-015  0.9000764E+02  0.7816164E-02  0.1186339E+00
        -11   -1    0    0    0    0  0.00000000000E+00  0.00000000000E+00  0.45593999997E+02  0.45594000000E+02  0.51100000000E-03 0. -1.
         11   -1    0    0    0    0 -0.00000000000E+00 -0.00000000000E+00 -0.45593999997E+02  0.45594000000E+02  0.51100000000E-03 0.  1.
    9900012    2    1    2    0    0  0.43677226719E+00 -0.10269894748E+01  0.38442145644E+00  0.90007636814E+02  0.89999896820E+02 0.  0.
         12    1    1    2    0    0 -0.43677226719E+00  0.10269894748E+01 -0.38442145644E+00  0.11803631861E+01  0.00000000000E+00 0. -1.
         11    1    3    3    0    0  0.22689805064E+02  0.25237234435E+02 -0.53289217405E+01  0.34353204551E+02  0.51100000000E-03 0. -1.
        -11    1    3    3    0    0  0.59958048155E+00  0.10901557647E+02 -0.26393788011E+01  0.11232532066E+02  0.51100000000E-03 0.  1.
        -12    1    3    3    0    0 -0.22852613278E+02 -0.37165781557E+02  0.83527219981E+01  0.44421900197E+02  0.00000000000E+00 0.  1.
</event>
<event>
 7    1  0.1999542E-015  0.9000778E+02  0.7816164E-02  0.1186339E+00
        -11   -1    0    0    0    0  0.00000000000E+00  0.00000000000E+00  0.45593999997E+02  0.45594000000E+02  0.51100000000E-03 0. -1.
         11   -1    0    0    0    0 -0.00000000000E+00 -0.00000000000E+00 -0.45593999997E+02  0.45594000000E+02  0.51100000000E-03 0.  1.
    9900012    2    1    2    0    0  0.10767614134E+01 -0.47320270401E+00 -0.97884383625E-01  0.90007780828E+02  0.90000042735E+02 0.  0.
         12    1    1    2    0    0 -0.10767614134E+01  0.47320270401E+00  0.97884383625E-01  0.11802191716E+01  0.00000000000E+00 0. -1.
         11    1    3    3    0    0  0.92694187476E+01  0.42182208451E+01 -0.29536477704E+01  0.10603751526E+02  0.51100000000E-03 0. -1.
        -11    1    3    3    0    0  0.11960635387E+02  0.13370980148E+02 -0.31148223056E+02  0.35945120793E+02  0.51100000000E-03 0.  1.
         12    1    3    3    0    0 -0.20153292722E+02 -0.18062403698E+02  0.34003986443E+02  0.43458908510E+02  0.00000000000E+00 0. -1.
</event>
<event>
 7    1  0.1999542E-015  0.9000772E+02  0.7816164E-02  0.1186339E+00
        -11   -1    0    0    0    0  0.00000000000E+00  0.00000000000E+00  0.45593999997E+02  0.45594000000E+02  0.51100000000E-03 0.  1.
         11   -1    0    0    0    0 -0.00000000000E+00 -0.00000000000E+00 -0.45593999997E+02  0.45594000000E+02  0.51100000000E-03 0. -1.
    9900012    2    1    2    0    0  0.73679114755E+00  0.40285826745E+00  0.82939799550E+00  0.90007721637E+02  0.89999982763E+02 0.  0.
         12    1    1    2    0    0 -0.73679114755E+00 -0.40285826745E+00 -0.82939799550E+00  0.11802783628E+01  0.00000000000E+00 0. -1.
         11    1    3    3    0    0  0.30945583478E+02 -0.25391749233E+02 -0.13447933019E+02  0.42228153744E+02  0.51100000000E-03 0. -1.
        -11    1    3    3    0    0 -0.81682060108E+01  0.48226188768E+01 -0.59941054780E+01  0.11220808483E+02  0.51100000000E-03 0.  1.
        -12    1    3    3    0    0 -0.22040586320E+02  0.20971988624E+02  0.20271436492E+02  0.36558759410E+02  0.00000000000E+00 0.  1.
</event>
<event>
 7    1  0.1999542E-015  0.9000777E+02  0.7816164E-02  0.1186339E+00
        -11   -1    0    0    0    0  0.00000000000E+00  0.00000000000E+00  0.45593999997E+02  0.45594000000E+02  0.51100000000E-03 0. -1.
         11   -1    0    0    0    0 -0.00000000000E+00 -0.00000000000E+00 -0.45593999997E+02  0.45594000000E+02  0.51100000000E-03 0.  1.
    9900012    2    1    2    0    0 -0.33493999621E+00 -0.93911409226E-01 -0.11277990821E+01  0.90007773359E+02  0.90000035168E+02 0.  0.
         12    1    1    2    0    0  0.33493999621E+00  0.93911409226E-01  0.11277990821E+01  0.11802266407E+01  0.00000000000E+00 0. -1.
         11    1    3    3    0    0  0.48563600280E+01 -0.15643353953E+01 -0.62018401378E+01  0.80308280586E+01  0.51100000000E-03 0. -1.
        -11    1    3    3    0    0 -0.27124834895E+02 -0.30120339028E+02 -0.80795715489E+01  0.41331234773E+02  0.51100000000E-03 0.  1.
         12    1    3    3    0    0  0.21933534871E+02  0.31590763014E+02  0.13153612605E+02  0.40645710527E+02  0.00000000000E+00 0. -1.
</event>
<event>
 7    1  0.1999542E-015  0.9000744E+02  0.7816164E-02  0.1186340E+00
        -11   -1    0    0    0    0  0.00000000000E+00  0.00000000000E+00  0.45593999997E+02  0.45594000000E+02  0.51100000000E-03 0.  1.
         11   -1    0    0    0    0 -0.00000000000E+00 -0.00000000000E+00 -0.45593999997E+02  0.45594000000E+02  0.51100000000E-03 0. -1.
    9900012    2    1    2    0    0 -0.70332060461E+00  0.16079175557E-03  0.94819018418E+00  0.90007438894E+02  0.89999696287E+02 0.  0.
         12    1    1    2    0    0  0.70332060461E+00 -0.16079175557E-03 -0.94819018418E+00  0.11805611056E+01  0.00000000000E+00 0. -1.
         11    1    3    3    0    0 -0.19383621320E+02  0.13753917213E+01 -0.34003190055E+02  0.39164185324E+02  0.51100000000E-03 0. -1.
        -11    1    3    3    0    0  0.28170585856E+01  0.96130886039E+01 -0.97250577577E+00  0.10064445306E+02  0.51100000000E-03 0.  1.
        -12    1    3    3    0    0  0.15863242130E+02 -0.10988319533E+02  0.35923886015E+02  0.40778808264E+02  0.00000000000E+00 0.  1.
</event>
<event>
 7    1  0.1999542E-015  0.9000764E+02  0.7816164E-02  0.1186339E+00
        -11   -1    0    0    0    0  0.00000000000E+00  0.00000000000E+00  0.45593999997E+02  0.45594000000E+02  0.51100000000E-03 0.  1.
         11   -1    0    0    0    0 -0.00000000000E+00 -0.00000000000E+00 -0.45593999997E+02  0.45594000000E+02  0.51100000000E-03 0. -1.
    9900012    2    1    2    0    0  0.99131224068E+00 -0.41244003601E+00  0.49035581414E+00  0.90007637528E+02  0.89999897543E+02 0.  0.
         12    1    1    2    0    0 -0.99131224068E+00  0.41244003601E+00 -0.49035581414E+00  0.11803624724E+01  0.00000000000E+00 0. -1.
         11    1    3    3    0    0 -0.35683351610E+02 -0.12400539073E+02  0.12399081021E+02  0.39759428591E+02  0.51100000000E-03 0. -1.
        -11    1    3    3    0    0  0.17254670760E+01 -0.71203427181E+01 -0.69683720957E+01  0.10111118978E+02  0.51100000000E-03 0.  1.
        -12    1    3    3    0    0  0.34949196775E+02  0.19108441755E+02 -0.49403531108E+01  0.40137089959E+02  0.00000000000E+00 0.  1.
</event>
<event>
 7    1  0.1999542E-015  0.9000735E+02  0.7816164E-02  0.1186340E+00
        -11   -1    0    0    0    0  0.00000000000E+00  0.00000000000E+00  0.45593999997E+02  0.45594000000E+02  0.51100000000E-03 0.  1.
         11   -1    0    0    0    0 -0.00000000000E+00 -0.00000000000E+00 -0.45593999997E+02  0.45594000000E+02  0.51100000000E-03 0. -1.
    9900012    2    1    2    0    0 -0.69627172332E+00  0.84773895979E+00  0.43643246189E+00  0.90007352317E+02  0.89999608567E+02 0.  0.
         12    1    1    2    0    0  0.69627172332E+00 -0.84773895979E+00 -0.43643246189E+00  0.11806476826E+01  0.00000000000E+00 0. -1.
         11    1    3    3    0    0  0.78405718307E+01  0.39144599292E+01 -0.38204556231E+01  0.95599918723E+01  0.51100000000E-03 0. -1.
        -11    1    3    3    0    0  0.33981227980E+02  0.35103771863E+01  0.12986002413E+02  0.36546995252E+02  0.51100000000E-03 0.  1.
         12    1    3    3    0    0 -0.42518071534E+02 -0.65770981557E+01 -0.87291143284E+01  0.43900365193E+02  0.00000000000E+00 0. -1.
</event>
<event>
 7    1  0.1999542E-015  0.9000771E+02  0.7816164E-02  0.1186339E+00
        -11   -1    0    0    0    0  0.00000000000E+00  0.00000000000E+00  0.45593999997E+02  0.45594000000E+02  0.51100000000E-03 0.  1.
         11   -1    0    0    0    0 -0.00000000000E+00 -0.00000000000E+00 -0.45593999997E+02  0.45594000000E+02  0.51100000000E-03 0. -1.
    9900012    2    1    2    0    0  0.85813541847E+00 -0.20085609445E+00  0.78506889147E+00  0.90007714979E+02  0.89999976016E+02 0.  0.
         12    1    1    2    0    0 -0.85813541847E+00  0.20085609445E+00 -0.78506889147E+00  0.11802850213E+01  0.00000000000E+00 0. -1.
         11    1    3    3    0    0 -0.87217012032E+01  0.10186793137E+02 -0.52057065147E+01  0.14385346950E+02  0.51100000000E-03 0. -1.
        -11    1    3    3    0    0  0.37940324872E+01 -0.10842466216E+02  0.39745578954E+02  0.41372270941E+02  0.51100000000E-03 0.  1.
         12    1    3    3    0    0  0.57858041344E+01  0.45481698395E+00 -0.33754803548E+02  0.34250097088E+02  0.00000000000E+00 0. -1.
</event>
<event>
 7    1  0.1999542E-015  0.9000771E+02  0.7816164E-02  0.1186339E+00
        -11   -1    0    0    0    0  0.00000000000E+00  0.00000000000E+00  0.45593999997E+02  0.45594000000E+02  0.51100000000E-03 0.  1.
         11   -1    0    0    0    0 -0.00000000000E+00 -0.00000000000E+00 -0.45593999997E+02  0.45594000000E+02  0.51100000000E-03 0. -1.
    9900012    2    1    2    0    0 -0.25781399466E+00 -0.43154462338E+00  0.10678922096E+01  0.90007706567E+02  0.89999967493E+02 0.  0.
         12    1    1    2    0    0  0.25781399466E+00  0.43154462338E+00 -0.10678922096E+01  0.11802934335E+01  0.00000000000E+00 0. -1.
         11    1    3    3    0    0 -0.17280151460E+01 -0.99243888766E+01 -0.23504976558E+01  0.10344291682E+02  0.51100000000E-03 0. -1.
        -11    1    3    3    0    0 -0.87573974772E+01 -0.14395571556E+02  0.34952412571E+02  0.38802005564E+02  0.51100000000E-03 0.  1.
         12    1    3    3    0    0  0.10227598629E+02  0.23888415809E+02 -0.31534022706E+02  0.40861409320E+02  0.00000000000E+00 0. -1.
</event>
<event>
 7    1  0.1999542E-015  0.9000776E+02  0.7816164E-02  0.1186339E+00
        -11   -1    0    0    0    0  0.00000000000E+00  0.00000000000E+00  0.45593999997E+02  0.45594000000E+02  0.51100000000E-03 0.  1.
         11   -1    0    0    0    0 -0.00000000000E+00 -0.00000000000E+00 -0.45593999997E+02  0.45594000000E+02  0.51100000000E-03 0. -1.
    9900012    2    1    2    0    0  0.95216727347E+00 -0.69653978918E+00  0.34195424330E-01  0.90007762938E+02  0.90000024609E+02 0.  0.
         12    1    1    2    0    0 -0.95216727347E+00  0.69653978918E+00 -0.34195424330E-01  0.11802370616E+01  0.00000000000E+00 0. -1.
         11    1    3    3    0    0  0.34954963097E+02  0.20599820392E+02 -0.81824340750E+01  0.41390267853E+02  0.51100000000E-03 0. -1.
        -11    1    3    3    0    0  0.38605514329E+01 -0.37784368085E+01  0.39262978028E+01  0.66780428854E+01  0.51100000000E-03 0.  1.
        -12    1    3    3    0    0 -0.37863347257E+02 -0.17517923372E+02  0.42903316965E+01  0.41939452200E+02  0.00000000000E+00 0.  1.
</event>
<event>
 7    1  0.1999542E-015  0.9000776E+02  0.7816164E-02  0.1186339E+00
        -11   -1    0    0    0    0  0.00000000000E+00  0.00000000000E+00  0.45593999997E+02  0.45594000000E+02  0.51100000000E-03 0.  1.
         11   -1    0    0    0    0 -0.00000000000E+00 -0.00000000000E+00 -0.45593999997E+02  0.45594000000E+02  0.51100000000E-03 0. -1.
    9900012    2    1    2    0    0 -0.80588148098E+00  0.80601178558E+00  0.30636994553E+00  0.90007761675E+02  0.90000023329E+02 0.  0.
         12    1    1    2    0    0  0.80588148098E+00 -0.80601178558E+00 -0.30636994553E+00  0.11802383248E+01  0.00000000000E+00 0. -1.
         11    1    3    3    0    0 -0.26415482640E+02 -0.20394937207E+02  0.19007421335E+02  0.38405901276E+02  0.51100000000E-03 0. -1.
        -11    1    3    3    0    0 -0.73473669188E+01 -0.21721111358E+01 -0.36384138629E+01  0.84817405716E+01  0.51100000000E-03 0.  1.
        -12    1    3    3    0    0  0.32956968078E+02  0.23373060128E+02 -0.15062637526E+02  0.43120119827E+02  0.00000000000E+00 0.  1.
</event>
<event>
 7    1  0.1999542E-015  0.9000771E+02  0.7816164E-02  0.1186339E+00
        -11   -1    0    0    0    0  0.00000000000E+00  0.00000000000E+00  0.45593999997E+02  0.45594000000E+02  0.51100000000E-03 0. -1.
         11   -1    0    0    0    0 -0.00000000000E+00 -0.00000000000E+00 -0.45593999997E+02  0.45594000000E+02  0.51100000000E-03 0.  1.
    9900012    2    1    2    0    0 -0.39034280149E+00 -0.39743140210E+00 -0.10405563516E+01  0.90007713279E+02  0.89999974295E+02 0.  0.
         12    1    1    2    0    0  0.39034280149E+00  0.39743140210E+00  0.10405563516E+01  0.11802867206E+01  0.00000000000E+00 0. -1.
         11    1    3    3    0    0 -0.44293713145E+01 -0.32940526268E+01  0.34631688164E+02  0.35068845694E+02  0.51100000000E-03 0. -1.
        -11    1    3    3    0    0 -0.13786993353E+02  0.22399530524E+01  0.11585142861E+01  0.14015731555E+02  0.51100000000E-03 0.  1.
        -12    1    3    3    0    0  0.17826021866E+02  0.65666817227E+00 -0.36830758802E+02  0.40923136031E+02  0.00000000000E+00 0.  1.
</event>
<event>
 7    1  0.1999542E-015  0.9000792E+02  0.7816164E-02  0.1186339E+00
        -11   -1    0    0    0    0  0.00000000000E+00  0.00000000000E+00  0.45593999997E+02  0.45594000000E+02  0.51100000000E-03 0.  1.
         11   -1    0    0    0    0 -0.00000000000E+00 -0.00000000000E+00 -0.45593999997E+02  0.45594000000E+02  0.51100000000E-03 0. -1.
    9900012    2    1    2    0    0  0.13871472614E+00  0.66979458055E+00  0.96162847726E+00  0.90007917001E+02  0.90000180706E+02 0.  0.
         12    1    1    2    0    0 -0.13871472614E+00 -0.66979458055E+00 -0.96162847726E+00  0.11800829986E+01  0.00000000000E+00 0. -1.
         11    1    3    3    0    0  0.61041345839E+01  0.45163728872E+01 -0.46637350805E+01  0.89111451698E+01  0.51100000000E-03 0. -1.
        -11    1    3    3    0    0  0.15599802442E+02  0.21208515256E+02  0.30081757655E+02  0.39975831442E+02  0.51100000000E-03 0.  1.
         12    1    3    3    0    0 -0.21565222300E+02 -0.25055093562E+02 -0.24456394098E+02  0.41120940390E+02  0.00000000000E+00 0. -1.
</event>
<event>
 7    1  0.1999542E-015  0.9000783E+02  0.7816164E-02  0.1186339E+00
        -11   -1    0    0    0    0  0.00000000000E+00  0.00000000000E+00  0.45593999997E+02  0.45594000000E+02  0.51100000000E-03 0.  1.
         11   -1    0    0    0    0 -0.00000000000E+00 -0.00000000000E+00 -0.45593999997E+02  0.45594000000E+02  0.51100000000E-03 0. -1.
    9900012    2    1    2    0    0  0.23219322812E+00 -0.35123850155E+00  0.11025023872E+01  0.90007833192E+02  0.90000095790E+02 0.  0.
         12    1    1    2    0    0 -0.23219322812E+00  0.35123850155E+00 -0.11025023872E+01  0.11801668077E+01  0.00000000000E+00 0. -1.
         11    1    3    3    0    0  0.38267935723E+01  0.27182911411E+02 -0.20028907789E+02  0.33981056035E+02  0.51100000000E-03 0. -1.
        -11    1    3    3    0    0 -0.53699819877E+00  0.95788969724E+01 -0.47222454062E+01  0.10693139680E+02  0.51100000000E-03 0.  1.
        -12    1    3    3    0    0 -0.30576021454E+01 -0.37113046885E+02  0.25853655582E+02  0.45333637477E+02  0.00000000000E+00 0.  1.
</event>
<event>
 7    1  0.1999542E-015  0.9000774E+02  0.7816164E-02  0.1186339E+00
        -11   -1    0    0    0    0  0.00000000000E+00  0.00000000000E+00  0.45593999997E+02  0.45594000000E+02  0.51100000000E-03 0.  1.
         11   -1    0    0    0    0 -0.00000000000E+00 -0.00000000000E+00 -0.45593999997E+02  0.45594000000E+02  0.51100000000E-03 0. -1.
    9900012    2    1    2    0    0  0.10225956369E+01 -0.58710087978E+00 -0.51164063946E-01  0.90007742807E+02  0.90000004212E+02 0.  0.
         12    1    1    2    0    0 -0.10225956369E+01  0.58710087978E+00  0.51164063946E-01  0.11802571927E+01  0.00000000000E+00 0. -1.
         11    1    3    3    0    0  0.29154525917E+01  0.16832608497E+01  0.10740161641E+02  0.11255412175E+02  0.51100000000E-03 0. -1.
        -11    1    3    3    0    0 -0.38423156100E+02 -0.22071788494E+00  0.52903775867E+01  0.38786282838E+02  0.51100000000E-03 0.  1.
         12    1    3    3    0    0  0.36530299145E+02 -0.20496438446E+01 -0.16081703292E+02  0.39966047794E+02  0.00000000000E+00 0. -1.
</event>
<event>
 7    1  0.1999542E-015  0.9000774E+02  0.7816164E-02  0.1186339E+00
        -11   -1    0    0    0    0  0.00000000000E+00  0.00000000000E+00  0.45593999997E+02  0.45594000000E+02  0.51100000000E-03 0.  1.
         11   -1    0    0    0    0 -0.00000000000E+00 -0.00000000000E+00 -0.45593999997E+02  0.45594000000E+02  0.51100000000E-03 0. -1.
    9900012    2    1    2    0    0  0.49593008659E+00  0.44913174778E+00  0.97229011249E+00  0.90007739842E+02  0.90000001208E+02 0.  0.
         12    1    1    2    0    0 -0.49593008659E+00 -0.44913174778E+00 -0.97229011249E+00  0.11802601580E+01  0.00000000000E+00 0. -1.
         11    1    3    3    0    0 -0.49799865088E+01 -0.79273438250E+01 -0.27102744127E+01  0.97462112331E+01  0.51100000000E-03 0. -1.
        -11    1    3    3    0    0 -0.20432065462E+01 -0.35546099913E+02  0.98411884526E+00  0.35618371695E+02  0.51100000000E-03 0.  1.
         12    1    3    3    0    0  0.75191231415E+01  0.43922575486E+02  0.26984456799E+01  0.44643156914E+02  0.00000000000E+00 0. -1.
</event>
<event>
 7    1  0.1999542E-015  0.9000773E+02  0.7816164E-02  0.1186339E+00
        -11   -1    0    0    0    0  0.00000000000E+00  0.00000000000E+00  0.45593999997E+02  0.45594000000E+02  0.51100000000E-03 0. -1.
         11   -1    0    0    0    0 -0.00000000000E+00 -0.00000000000E+00 -0.45593999997E+02  0.45594000000E+02  0.51100000000E-03 0.  1.
    9900012    2    1    2    0    0  0.43278416784E+00 -0.10907088839E+01 -0.12683176401E+00  0.90007731259E+02  0.89999992511E+02 0.  0.
         12    1    1    2    0    0 -0.43278416784E+00  0.10907088839E+01  0.12683176401E+00  0.11802687413E+01  0.00000000000E+00 0. -1.
         11    1    3    3    0    0  0.11355984494E+02 -0.17750477929E+02  0.31025946992E+02  0.37505296127E+02  0.51100000000E-03 0. -1.
        -11    1    3    3    0    0  0.65781249818E+01 -0.56132087343E+01  0.20208466512E+01  0.88805214948E+01  0.51100000000E-03 0.  1.
        -12    1    3    3    0    0 -0.17501325308E+02  0.22272977779E+02 -0.33173625407E+02  0.43621913637E+02  0.00000000000E+00 0.  1.
</event>
<event>
 7    1  0.1999542E-015  0.9000781E+02  0.7816164E-02  0.1186339E+00
        -11   -1    0    0    0    0  0.00000000000E+00  0.00000000000E+00  0.45593999997E+02  0.45594000000E+02  0.51100000000E-03 0. -1.
         11   -1    0    0    0    0 -0.00000000000E+00 -0.00000000000E+00 -0.45593999997E+02  0.45594000000E+02  0.51100000000E-03 0.  1.
    9900012    2    1    2    0    0 -0.90199868975E+00 -0.75895339812E+00 -0.56818067558E-01  0.90007813494E+02  0.90000075832E+02 0.  0.
         12    1    1    2    0    0  0.90199868975E+00  0.75895339812E+00  0.56818067558E-01  0.11801865063E+01  0.00000000000E+00 0. -1.
         11    1    3    3    0    0  0.17151010959E+02  0.12887201229E+02  0.31715280379E+02  0.38289634919E+02  0.51100000000E-03 0. -1.
        -11    1    3    3    0    0  0.97283448138E+01 -0.15627445028E+01 -0.40489381230E+01  0.10652547272E+02  0.51100000000E-03 0.  1.
        -12    1    3    3    0    0 -0.27781354462E+02 -0.12083410124E+02 -0.27723160324E+02  0.41065631303E+02  0.00000000000E+00 0.  1.
</event>
<event>
 7    1  0.1999542E-015  0.9000788E+02  0.7816164E-02  0.1186339E+00
        -11   -1    0    0    0    0  0.00000000000E+00  0.00000000000E+00  0.45593999997E+02  0.45594000000E+02  0.51100000000E-03 0.  1.
         11   -1    0    0    0    0 -0.00000000000E+00 -0.00000000000E+00 -0.45593999997E+02  0.45594000000E+02  0.51100000000E-03 0. -1.
    9900012    2    1    2    0    0  0.10267272211E+01 -0.41272284920E+00  0.41009268679E+00  0.90007879265E+02  0.90000142471E+02 0.  0.
         12    1    1    2    0    0 -0.10267272211E+01  0.41272284920E+00 -0.41009268679E+00  0.11801207347E+01  0.00000000000E+00 0. -1.
         11    1    3    3    0    0  0.21708872702E+02  0.22183769232E+02  0.24313785286E+02  0.39427844559E+02  0.51100000000E-03 0. -1.
        -11    1    3    3    0    0 -0.28777398154E+01  0.81840970929E+01 -0.23083845056E+01  0.89771638594E+01  0.51100000000E-03 0.  1.
        -12    1    3    3    0    0 -0.17804405666E+02 -0.30780589175E+02 -0.21595308094E+02  0.41602870847E+02  0.00000000000E+00 0.  1.
</event>
<event>
 7    1  0.1999542E-015  0.9000784E+02  0.7816164E-02  0.1186339E+00
        -11   -1    0    0    0    0  0.00000000000E+00  0.00000000000E+00  0.45593999997E+02  0.45594000000E+02  0.51100000000E-03 0.  1.
         11   -1    0    0    0    0 -0.00000000000E+00 -0.00000000000E+00 -0.45593999997E+02  0.45594000000E+02  0.51100000000E-03 0. -1.
    9900012    2    1    2    0    0  0.57037084890E+00 -0.83337405515E+00  0.61068364676E+00  0.90007843342E+02  0.90000106074E+02 0.  0.
         12    1    1    2    0    0 -0.57037084890E+00  0.83337405515E+00 -0.61068364676E+00  0.11801566580E+01  0.00000000000E+00 0. -1.
         11    1    3    3    0    0  0.35555610609E+01  0.47194848599E+01  0.37107849675E+01  0.69774979138E+01  0.51100000000E-03 0. -1.
        -11    1    3    3    0    0  0.13471087118E+02  0.34647075355E+01  0.36580867530E+02  0.39136099141E+02  0.51100000000E-03 0.  1.
         12    1    3    3    0    0 -0.16456277330E+02 -0.90175664506E+01 -0.39680968851E+02  0.43894246288E+02  0.00000000000E+00 0. -1.
</event>
<event>
 7    1  0.1999542E-015  0.9000772E+02  0.7816164E-02  0.1186339E+00
        -11   -1    0    0    0    0  0.00000000000E+00  0.00000000000E+00  0.45593999997E+02  0.45594000000E+02  0.51100000000E-03 0.  1.
         11   -1    0    0    0    0 -0.00000000000E+00 -0.00000000000E+00 -0.45593999997E+02  0.45594000000E+02  0.51100000000E-03 0. -1.
    9900012    2    1    2    0    0 -0.55677582255E+00  0.10333796666E+01  0.12325086650E+00  0.90007718835E+02  0.89999979924E+02 0.  0.
         12    1    1    2    0    0  0.55677582255E+00 -0.10333796666E+01 -0.12325086650E+00  0.11802811648E+01  0.00000000000E+00 0. -1.
         11    1    3    3    0    0 -0.14037105449E+02 -0.21680626316E+02 -0.26433826151E+02  0.36957232744E+02  0.51100000000E-03 0. -1.
        -11    1    3    3    0    0 -0.79223207190E+01 -0.23807862537E+01 -0.29630303213E+01  0.87869709062E+01  0.51100000000E-03 0.  1.
        -12    1    3    3    0    0  0.21402650346E+02  0.25094792236E+02  0.29520107339E+02  0.44263515185E+02  0.00000000000E+00 0.  1.
</event>
<event>
 7    1  0.1999542E-015  0.9000833E+02  0.7816164E-02  0.1186338E+00
        -11   -1    0    0    0    0  0.00000000000E+00  0.00000000000E+00  0.45593999997E+02  0.45594000000E+02  0.51100000000E-03 0. -1.
         11   -1    0    0    0    0 -0.00000000000E+00 -0.00000000000E+00 -0.45593999997E+02  0.45594000000E+02  0.51100000000E-03 0.  1.
    9900012    2    1    2    0    0 -0.74915452740E+00 -0.67746458143E+00 -0.60945329748E+00  0.90008328823E+02  0.90000597961E+02 0.  0.
         12    1    1    2    0    0  0.74915452740E+00  0.67746458143E+00  0.60945329748E+00  0.11796711774E+01  0.00000000000E+00 0. -1.
         11    1    3    3    0    0 -0.59574380362E+00  0.10634571840E+02  0.42900776925E+01  0.11482760808E+02  0.51100000000E-03 0. -1.
        -11    1    3    3    0    0 -0.25425259161E+02  0.19573869123E+02 -0.17662245321E+02  0.36626971836E+02  0.51100000000E-03 0.  1.
         12    1    3    3    0    0  0.25271848437E+02 -0.30885905544E+02  0.12762714331E+02  0.41898596179E+02  0.00000000000E+00 0. -1.
</event>
<event>
 7    1  0.1999542E-015  0.9000789E+02  0.7816164E-02  0.1186339E+00
        -11   -1    0    0    0    0  0.00000000000E+00  0.00000000000E+00  0.45593999997E+02  0.45594000000E+02  0.51100000000E-03 0.  1.
         11   -1    0    0    0    0 -0.00000000000E+00 -0.00000000000E+00 -0.45593999997E+02  0.45594000000E+02  0.51100000000E-03 0. -1.
    9900012    2    1    2    0    0  0.80300760614E+00  0.58946425467E+00  0.63275710138E+00  0.90007885229E+02  0.90000148514E+02 0.  0.
         12    1    1    2    0    0 -0.80300760614E+00 -0.58946425467E+00 -0.63275710138E+00  0.11801147709E+01  0.00000000000E+00 0. -1.
         11    1    3    3    0    0 -0.99180391411E+00  0.61539592744E+01  0.40208749026E+01  0.74177034855E+01  0.51100000000E-03 0. -1.
        -11    1    3    3    0    0  0.28362169096E+02  0.20369540234E+02  0.18474117549E+02  0.39504731675E+02  0.51100000000E-03 0.  1.
         12    1    3    3    0    0 -0.26567357576E+02 -0.25934035254E+02 -0.21862235350E+02  0.43085450069E+02  0.00000000000E+00 0. -1.
</event>
<event>
 7    1  0.1999542E-015  0.9000771E+02  0.7816164E-02  0.1186339E+00
        -11   -1    0    0    0    0  0.00000000000E+00  0.00000000000E+00  0.45593999997E+02  0.45594000000E+02  0.51100000000E-03 0. -1.
         11   -1    0    0    0    0 -0.00000000000E+00 -0.00000000000E+00 -0.45593999997E+02  0.45594000000E+02  0.51100000000E-03 0.  1.
    9900012    2    1    2    0    0  0.10267663713E+01 -0.51802499813E+00 -0.26547329742E+00  0.90007713953E+02  0.89999974978E+02 0.  0.
         12    1    1    2    0    0 -0.10267663713E+01  0.51802499813E+00  0.26547329742E+00  0.11802860465E+01  0.00000000000E+00 0. -1.
         11    1    3    3    0    0 -0.38511035774E+01  0.91698773080E+01  0.14371977412E+01  0.10049039069E+02  0.51100000000E-03 0. -1.
        -11    1    3    3    0    0 -0.13778839771E+02  0.27972491138E+02 -0.16653313434E+02  0.35350382381E+02  0.51100000000E-03 0.  1.
         12    1    3    3    0    0  0.18656709720E+02 -0.37660393445E+02  0.14950642395E+02  0.44608292503E+02  0.00000000000E+00 0. -1.
</event>
<event>
 7    1  0.1999542E-015  0.9000767E+02  0.7816164E-02  0.1186339E+00
        -11   -1    0    0    0    0  0.00000000000E+00  0.00000000000E+00  0.45593999997E+02  0.45594000000E+02  0.51100000000E-03 0. -1.
         11   -1    0    0    0    0 -0.00000000000E+00 -0.00000000000E+00 -0.45593999997E+02  0.45594000000E+02  0.51100000000E-03 0.  1.
    9900012    2    1    2    0    0  0.70564565777E-01  0.99218825026E+00  0.63541419915E+00  0.90007674585E+02  0.89999935089E+02 0.  0.
         12    1    1    2    0    0 -0.70564565777E-01 -0.99218825026E+00 -0.63541419915E+00  0.11803254155E+01  0.00000000000E+00 0. -1.
         11    1    3    3    0    0  0.27843336776E+02 -0.16270432324E+02  0.16466431929E+02  0.36209415234E+02  0.51100000000E-03 0. -1.
        -11    1    3    3    0    0  0.20293432073E+01 -0.10323936665E+02 -0.10171462026E+01  0.10570548177E+02  0.51100000000E-03 0.  1.
        -12    1    3    3    0    0 -0.29802115417E+02  0.27586557239E+02 -0.14813871528E+02  0.43227711173E+02  0.00000000000E+00 0.  1.
</event>
<event>
 7    1  0.1999542E-015  0.9000771E+02  0.7816164E-02  0.1186339E+00
        -11   -1    0    0    0    0  0.00000000000E+00  0.00000000000E+00  0.45593999997E+02  0.45594000000E+02  0.51100000000E-03 0. -1.
         11   -1    0    0    0    0 -0.00000000000E+00 -0.00000000000E+00 -0.45593999997E+02  0.45594000000E+02  0.51100000000E-03 0.  1.
    9900012    2    1    2    0    0 -0.51183733329E+00 -0.85744581599E+00 -0.62919985789E+00  0.90007710525E+02  0.89999971504E+02 0.  0.
         12    1    1    2    0    0  0.51183733329E+00  0.85744581599E+00  0.62919985789E+00  0.11802894748E+01  0.00000000000E+00 0. -1.
         11    1    3    3    0    0 -0.34124309074E+02  0.11868391624E+02  0.72847636622E+01  0.36856410181E+02  0.51100000000E-03 0. -1.
        -11    1    3    3    0    0 -0.12247096275E+01  0.10555949955E+02 -0.86638961186E+00  0.10662017837E+02  0.51100000000E-03 0.  1.
        -12    1    3    3    0    0  0.34837181369E+02 -0.23281787395E+02 -0.70475739082E+01  0.42489282508E+02  0.00000000000E+00 0.  1.
</event>
<event>
 7    1  0.1999542E-015  0.9000770E+02  0.7816164E-02  0.1186339E+00
        -11   -1    0    0    0    0  0.00000000000E+00  0.00000000000E+00  0.45593999997E+02  0.45594000000E+02  0.51100000000E-03 0. -1.
         11   -1    0    0    0    0 -0.00000000000E+00 -0.00000000000E+00 -0.45593999997E+02  0.45594000000E+02  0.51100000000E-03 0.  1.
    9900012    2    1    2    0    0 -0.49297072271E+00  0.80970796022E+00 -0.70317699161E+00  0.90007701311E+02  0.89999962168E+02 0.  0.
         12    1    1    2    0    0  0.49297072271E+00 -0.80970796022E+00  0.70317699161E+00  0.11802986892E+01  0.00000000000E+00 0. -1.
         11    1    3    3    0    0 -0.31940728711E+02  0.21626750329E+02  0.10058304374E+02  0.39863466577E+02  0.51100000000E-03 0. -1.
        -11    1    3    3    0    0 -0.62619537665E+01 -0.30781157023E+01 -0.36281424990E+01  0.78644948665E+01  0.51100000000E-03 0.  1.
        -12    1    3    3    0    0  0.37709711755E+02 -0.17738926666E+02 -0.71333388668E+01  0.42279739868E+02  0.00000000000E+00 0.  1.
</event>
<event>
 7    1  0.1999542E-015  0.9000837E+02  0.7816164E-02  0.1186338E+00
        -11   -1    0    0    0    0  0.00000000000E+00  0.00000000000E+00  0.45593999997E+02  0.45594000000E+02  0.51100000000E-03 0.  1.
         11   -1    0    0    0    0 -0.00000000000E+00 -0.00000000000E+00 -0.45593999997E+02  0.45594000000E+02  0.51100000000E-03 0. -1.
    9900012    2    1    2    0    0  0.71685784150E+00  0.67450622533E+00 -0.65014496541E+00  0.90008367731E+02  0.90000637383E+02 0.  0.
         12    1    1    2    0    0 -0.71685784150E+00 -0.67450622533E+00  0.65014496541E+00  0.11796322685E+01  0.00000000000E+00 0. -1.
         11    1    3    3    0    0  0.12326414297E+01 -0.40314110064E+02 -0.11534544753E+02  0.41949881979E+02  0.51100000000E-03 0. -1.
        -11    1    3    3    0    0 -0.61265398584E+01  0.44010427335E+01  0.79000130487E+01  0.10923089042E+02  0.51100000000E-03 0.  1.
        -12    1    3    3    0    0  0.56107562702E+01  0.36587573556E+02  0.29843867389E+01  0.37135396711E+02  0.00000000000E+00 0.  1.
</event>
<event>
 7    1  0.1999542E-015  0.9000755E+02  0.7816164E-02  0.1186339E+00
        -11   -1    0    0    0    0  0.00000000000E+00  0.00000000000E+00  0.45593999997E+02  0.45594000000E+02  0.51100000000E-03 0.  1.
         11   -1    0    0    0    0 -0.00000000000E+00 -0.00000000000E+00 -0.45593999997E+02  0.45594000000E+02  0.51100000000E-03 0. -1.
    9900012    2    1    2    0    0 -0.77446058692E+00  0.39642088107E+00  0.79782330037E+00  0.90007550622E+02  0.89999809490E+02 0.  0.
         12    1    1    2    0    0  0.77446058692E+00 -0.39642088107E+00 -0.79782330037E+00  0.11804493781E+01  0.00000000000E+00 0. -1.
         11    1    3    3    0    0 -0.90256268549E+01  0.41539288592E+01  0.10136830885E+02  0.14194097567E+02  0.51100000000E-03 0. -1.
        -11    1    3    3    0    0 -0.21760538900E+02 -0.12099088943E+02  0.20820281536E+02  0.32456018394E+02  0.51100000000E-03 0.  1.
         12    1    3    3    0    0  0.30011705168E+02  0.83415809649E+01 -0.30159289121E+02  0.43357434661E+02  0.00000000000E+00 0. -1.
</event>
<event>
 7    1  0.1999542E-015  0.9000769E+02  0.7816164E-02  0.1186339E+00
        -11   -1    0    0    0    0  0.00000000000E+00  0.00000000000E+00  0.45593999997E+02  0.45594000000E+02  0.51100000000E-03 0.  1.
         11   -1    0    0    0    0 -0.00000000000E+00 -0.00000000000E+00 -0.45593999997E+02  0.45594000000E+02  0.51100000000E-03 0. -1.
    9900012    2    1    2    0    0 -0.84825562746E+00  0.54850209826E+00  0.61052914144E+00  0.90007687332E+02  0.89999948005E+02 0.  0.
         12    1    1    2    0    0  0.84825562746E+00 -0.54850209826E+00 -0.61052914144E+00  0.11803126678E+01  0.00000000000E+00 0. -1.
         11    1    3    3    0    0 -0.88251973897E+01 -0.13981983528E+02 -0.34168870968E+02  0.37959079491E+02  0.51100000000E-03 0. -1.
        -11    1    3    3    0    0 -0.53028854729E+00 -0.10192665890E+02  0.24990828250E+01  0.10507952184E+02  0.51100000000E-03 0.  1.
        -12    1    3    3    0    0  0.85072303095E+01  0.24723151516E+02  0.32280317284E+02  0.41540655657E+02  0.00000000000E+00 0.  1.
</event>
<event>
 7    1  0.1999542E-015  0.9000774E+02  0.7816164E-02  0.1186339E+00
        -11   -1    0    0    0    0  0.00000000000E+00  0.00000000000E+00  0.45593999997E+02  0.45594000000E+02  0.51100000000E-03 0.  1.
         11   -1    0    0    0    0 -0.00000000000E+00 -0.00000000000E+00 -0.45593999997E+02  0.45594000000E+02  0.51100000000E-03 0. -1.
    9900012    2    1    2    0    0  0.30426580289E+00 -0.20453597164E+00  0.11218701735E+01  0.90007743533E+02  0.90000004947E+02 0.  0.
         12    1    1    2    0    0 -0.30426580289E+00  0.20453597164E+00 -0.11218701735E+01  0.11802564673E+01  0.00000000000E+00 0. -1.
         11    1    3    3    0    0  0.59770131600E+01  0.67556985735E+01  0.16362761366E-01  0.90202226986E+01  0.51100000000E-03 0. -1.
        -11    1    3    3    0    0 -0.19983130984E+02  0.95890363452E+01  0.34534546689E+02  0.41035473158E+02  0.51100000000E-03 0.  1.
         12    1    3    3    0    0  0.14310383627E+02 -0.16549270890E+02 -0.33429039277E+02  0.39952047677E+02  0.00000000000E+00 0. -1.
</event>
<event>
 7    1  0.1999542E-015  0.9000774E+02  0.7816164E-02  0.1186339E+00
        -11   -1    0    0    0    0  0.00000000000E+00  0.00000000000E+00  0.45593999997E+02  0.45594000000E+02  0.51100000000E-03 0. -1.
         11   -1    0    0    0    0 -0.00000000000E+00 -0.00000000000E+00 -0.45593999997E+02  0.45594000000E+02  0.51100000000E-03 0.  1.
    9900012    2    1    2    0    0 -0.97737463531E+00  0.33331845847E+00  0.57152606681E+00  0.90007743919E+02  0.90000005338E+02 0.  0.
         12    1    1    2    0    0  0.97737463531E+00 -0.33331845847E+00 -0.57152606681E+00  0.11802560813E+01  0.00000000000E+00 0. -1.
         11    1    3    3    0    0  0.11514002620E+02  0.17256974963E+02  0.36138560666E+02  0.41669785318E+02  0.51100000000E-03 0. -1.
        -11    1    3    3    0    0 -0.82777011067E+01  0.20983430114E+01 -0.92038740470E+00  0.85889750402E+01  0.51100000000E-03 0.  1.
        -12    1    3    3    0    0 -0.42136761489E+01 -0.19021999516E+02 -0.34646647194E+02  0.39748983560E+02  0.00000000000E+00 0.  1.
</event>
<event>
 7    1  0.1999542E-015  0.9000732E+02  0.7816164E-02  0.1186340E+00
        -11   -1    0    0    0    0  0.00000000000E+00  0.00000000000E+00  0.45593999997E+02  0.45594000000E+02  0.51100000000E-03 0.  1.
         11   -1    0    0    0    0 -0.00000000000E+00 -0.00000000000E+00 -0.45593999997E+02  0.45594000000E+02  0.51100000000E-03 0. -1.
    9900012    2    1    2    0    0  0.34641702853E+00 -0.13403191122E+00  0.11207326031E+01  0.90007317622E+02  0.89999573413E+02 0.  0.
         12    1    1    2    0    0 -0.34641702853E+00  0.13403191122E+00 -0.11207326031E+01  0.11806823783E+01  0.00000000000E+00 0. -1.
         11    1    3    3    0    0  0.19122079954E+02 -0.30455924366E+02  0.13174864263E+02  0.38298750885E+02  0.51100000000E-03 0. -1.
        -11    1    3    3    0    0  0.35912187366E+01 -0.54282842495E+01 -0.64570414297E+01  0.91682335372E+01  0.51100000000E-03 0.  1.
        -12    1    3    3    0    0 -0.22366881662E+02  0.35750176704E+02 -0.55970902304E+01  0.42540333199E+02  0.00000000000E+00 0.  1.
</event>
<event>
 7    1  0.1999542E-015  0.9000797E+02  0.7816164E-02  0.1186339E+00
        -11   -1    0    0    0    0  0.00000000000E+00  0.00000000000E+00  0.45593999997E+02  0.45594000000E+02  0.51100000000E-03 0. -1.
         11   -1    0    0    0    0 -0.00000000000E+00 -0.00000000000E+00 -0.45593999997E+02  0.45594000000E+02  0.51100000000E-03 0.  1.
    9900012    2    1    2    0    0 -0.48290905743E+00 -0.10613931618E+01 -0.18089984492E+00  0.90007965528E+02  0.90000229873E+02 0.  0.
         12    1    1    2    0    0  0.48290905743E+00  0.10613931618E+01  0.18089984492E+00  0.11800344722E+01  0.00000000000E+00 0. -1.
         11    1    3    3    0    0  0.24595709384E+01 -0.41384319253E+01  0.10862383538E+02  0.11881392359E+02  0.51100000000E-03 0. -1.
        -11    1    3    3    0    0 -0.21355968323E+02 -0.26937894921E+02 -0.22513679425E+02  0.41092497214E+02  0.51100000000E-03 0.  1.
         12    1    3    3    0    0  0.18413488328E+02  0.30014933684E+02  0.11470396042E+02  0.37034075955E+02  0.00000000000E+00 0. -1.
</event>
<event>
 7    1  0.1999542E-015  0.9000774E+02  0.7816164E-02  0.1186339E+00
        -11   -1    0    0    0    0  0.00000000000E+00  0.00000000000E+00  0.45593999997E+02  0.45594000000E+02  0.51100000000E-03 0. -1.
         11   -1    0    0    0    0 -0.00000000000E+00 -0.00000000000E+00 -0.45593999997E+02  0.45594000000E+02  0.51100000000E-03 0.  1.
    9900012    2    1    2    0    0 -0.94578380816E+00 -0.47650778830E+00  0.52100785772E+00  0.90007739066E+02  0.90000000422E+02 0.  0.
         12    1    1    2    0    0  0.94578380816E+00  0.47650778830E+00 -0.52100785772E+00  0.11802609338E+01  0.00000000000E+00 0. -1.
         11    1    3    3    0    0  0.12594178597E+02 -0.35720564918E+00 -0.58903866027E+01  0.13908184101E+02  0.51100000000E-03 0. -1.
        -11    1    3    3    0    0 -0.17074643538E+02 -0.23201612500E+02 -0.24182768386E+02  0.37612026822E+02  0.51100000000E-03 0.  1.
         12    1    3    3    0    0  0.35346811336E+01  0.23082310361E+02  0.30594162846E+02  0.38487528143E+02  0.00000000000E+00 0. -1.
</event>
<event>
 7    1  0.1999542E-015  0.9000773E+02  0.7816164E-02  0.1186339E+00
        -11   -1    0    0    0    0  0.00000000000E+00  0.00000000000E+00  0.45593999997E+02  0.45594000000E+02  0.51100000000E-03 0. -1.
         11   -1    0    0    0    0 -0.00000000000E+00 -0.00000000000E+00 -0.45593999997E+02  0.45594000000E+02  0.51100000000E-03 0.  1.
    9900012    2    1    2    0    0  0.71471313510E-01  0.92678942552E-01 -0.11744520764E+01  0.90007730872E+02  0.89999992119E+02 0.  0.
         12    1    1    2    0    0 -0.71471313510E-01 -0.92678942552E-01  0.11744520764E+01  0.11802691281E+01  0.00000000000E+00 0. -1.
         11    1    3    3    0    0  0.57214006965E+01 -0.38855053465E+02  0.87479529691E+01  0.40236504409E+02  0.51100000000E-03 0. -1.
        -11    1    3    3    0    0 -0.11497313779E+02  0.58605091915E+01  0.38369807173E+01  0.13463142776E+02  0.51100000000E-03 0.  1.
        -12    1    3    3    0    0  0.58473843961E+01  0.33087223216E+02 -0.13759385763E+02  0.36308083687E+02  0.00000000000E+00 0.  1.
</event>
<event>
 7    1  0.1999542E-015  0.9000775E+02  0.7816164E-02  0.1186339E+00
        -11   -1    0    0    0    0  0.00000000000E+00  0.00000000000E+00  0.45593999997E+02  0.45594000000E+02  0.51100000000E-03 0.  1.
         11   -1    0    0    0    0 -0.00000000000E+00 -0.00000000000E+00 -0.45593999997E+02  0.45594000000E+02  0.51100000000E-03 0. -1.
    9900012    2    1    2    0    0 -0.12734462277E+00 -0.41092708226E+00  0.10990472285E+01  0.90007753191E+02  0.90000014733E+02 0.  0.
         12    1    1    2    0    0  0.12734462277E+00  0.41092708226E+00 -0.10990472285E+01  0.11802468091E+01  0.00000000000E+00 0. -1.
         11    1    3    3    0    0 -0.44183734341E+01  0.19937456484E+02 -0.22186125158E+02  0.30153745118E+02  0.51100000000E-03 0. -1.
        -11    1    3    3    0    0  0.19954517736E+02  0.67382499843E+01  0.18824878475E+02  0.28248236065E+02  0.51100000000E-03 0.  1.
         12    1    3    3    0    0 -0.15663488925E+02 -0.27086633551E+02  0.44602939115E+01  0.31605772007E+02  0.00000000000E+00 0. -1.
</event>
<event>
 7    1  0.1999542E-015  0.9000791E+02  0.7816164E-02  0.1186339E+00
        -11   -1    0    0    0    0  0.00000000000E+00  0.00000000000E+00  0.45593999997E+02  0.45594000000E+02  0.51100000000E-03 0.  1.
         11   -1    0    0    0    0 -0.00000000000E+00 -0.00000000000E+00 -0.45593999997E+02  0.45594000000E+02  0.51100000000E-03 0. -1.
    9900012    2    1    2    0    0 -0.10260603836E+01  0.54161776594E+00  0.21557440509E+00  0.90007905919E+02  0.90000169477E+02 0.  0.
         12    1    1    2    0    0  0.10260603836E+01 -0.54161776594E+00 -0.21557440509E+00  0.11800940807E+01  0.00000000000E+00 0. -1.
         11    1    3    3    0    0 -0.83139096976E+01  0.17238161191E+01  0.10893472036E+01  0.85603337589E+01  0.51100000000E-03 0. -1.
        -11    1    3    3    0    0 -0.33815479803E+02  0.19408682672E+01 -0.16100931798E+02  0.37503248513E+02  0.51100000000E-03 0.  1.
         12    1    3    3    0    0  0.41103329117E+02 -0.31230666204E+01  0.15227159000E+02  0.43944323648E+02  0.00000000000E+00 0. -1.
</event>
<event>
 7    1  0.1999542E-015  0.9000772E+02  0.7816164E-02  0.1186339E+00
        -11   -1    0    0    0    0  0.00000000000E+00  0.00000000000E+00  0.45593999997E+02  0.45594000000E+02  0.51100000000E-03 0.  1.
         11   -1    0    0    0    0 -0.00000000000E+00 -0.00000000000E+00 -0.45593999997E+02  0.45594000000E+02  0.51100000000E-03 0. -1.
    9900012    2    1    2    0    0 -0.11704400738E+00  0.39733821690E-01  0.11737858246E+01  0.90007724084E+02  0.89999985242E+02 0.  0.
         12    1    1    2    0    0  0.11704400738E+00 -0.39733821690E-01 -0.11737858246E+01  0.11802759162E+01  0.00000000000E+00 0. -1.
         11    1    3    3    0    0 -0.54511586992E+01  0.69031013871E+01  0.30049477023E+01  0.92950336675E+01  0.51100000000E-03 0. -1.
        -11    1    3    3    0    0  0.14938772616E+02  0.31122484331E+02  0.15533538085E+02  0.37855868289E+02  0.51100000000E-03 0.  1.
         12    1    3    3    0    0 -0.96046579242E+01 -0.37985851896E+02 -0.17364699962E+02  0.42856822128E+02  0.00000000000E+00 0. -1.
</event>
<event>
 7    1  0.1999542E-015  0.9000775E+02  0.7816164E-02  0.1186339E+00
        -11   -1    0    0    0    0  0.00000000000E+00  0.00000000000E+00  0.45593999997E+02  0.45594000000E+02  0.51100000000E-03 0. -1.
         11   -1    0    0    0    0 -0.00000000000E+00 -0.00000000000E+00 -0.45593999997E+02  0.45594000000E+02  0.51100000000E-03 0.  1.
    9900012    2    1    2    0    0 -0.80428530237E+00  0.86376184259E+00 -0.64560499488E-02  0.90007745346E+02  0.90000006784E+02 0.  0.
         12    1    1    2    0    0  0.80428530237E+00 -0.86376184259E+00  0.64560499488E-02  0.11802546543E+01  0.00000000000E+00 0. -1.
         11    1    3    3    0    0 -0.92020059600E+01 -0.21110831514E+02  0.33312275600E+02  0.40497553343E+02  0.51100000000E-03 0. -1.
        -11    1    3    3    0    0 -0.26049892172E+01  0.82815170647E+01  0.29847100040E+01  0.91803043405E+01  0.51100000000E-03 0.  1.
        -12    1    3    3    0    0  0.11002709875E+02  0.13693076292E+02 -0.36303441654E+02  0.40329887662E+02  0.00000000000E+00 0.  1.
</event>
<event>
 7    1  0.1999542E-015  0.9000768E+02  0.7816164E-02  0.1186339E+00
        -11   -1    0    0    0    0  0.00000000000E+00  0.00000000000E+00  0.45593999997E+02  0.45594000000E+02  0.51100000000E-03 0.  1.
         11   -1    0    0    0    0 -0.00000000000E+00 -0.00000000000E+00 -0.45593999997E+02  0.45594000000E+02  0.51100000000E-03 0. -1.
    9900012    2    1    2    0    0  0.24477739790E+00 -0.31302561144E+00  0.11114199949E+01  0.90007679953E+02  0.89999940529E+02 0.  0.
         12    1    1    2    0    0 -0.24477739790E+00  0.31302561144E+00 -0.11114199949E+01  0.11803200468E+01  0.00000000000E+00 0. -1.
         11    1    3    3    0    0  0.27337694508E+01 -0.22244290603E+02 -0.36035126114E+02  0.42435978535E+02  0.51100000000E-03 0. -1.
        -11    1    3    3    0    0 -0.55595356190E+01 -0.17280920188E+01  0.82844298266E+01  0.10125537820E+02  0.51100000000E-03 0.  1.
        -12    1    3    3    0    0  0.30705435661E+01  0.23659357011E+02  0.28862116283E+02  0.37446163599E+02  0.00000000000E+00 0.  1.
</event>
<event>
 7    1  0.1999542E-015  0.9000771E+02  0.7816164E-02  0.1186339E+00
        -11   -1    0    0    0    0  0.00000000000E+00  0.00000000000E+00  0.45593999997E+02  0.45594000000E+02  0.51100000000E-03 0.  1.
         11   -1    0    0    0    0 -0.00000000000E+00 -0.00000000000E+00 -0.45593999997E+02  0.45594000000E+02  0.51100000000E-03 0. -1.
    9900012    2    1    2    0    0 -0.91822410623E+00  0.64128670539E+00  0.37241886780E+00  0.90007711916E+02  0.89999972913E+02 0.  0.
         12    1    1    2    0    0  0.91822410623E+00 -0.64128670539E+00 -0.37241886780E+00  0.11802880838E+01  0.00000000000E+00 0. -1.
         11    1    3    3    0    0  0.69279148636E+01 -0.63854441064E+01 -0.29572627879E+00  0.94264179350E+01  0.51100000000E-03 0. -1.
        -11    1    3    3    0    0 -0.18688180997E+02  0.13155812153E+02  0.36266552542E+02  0.42867077530E+02  0.51100000000E-03 0.  1.
         12    1    3    3    0    0  0.10842042027E+02 -0.61290813415E+01 -0.35598407396E+02  0.37714216451E+02  0.00000000000E+00 0. -1.
</event>
<event>
 7    1  0.1999542E-015  0.9000774E+02  0.7816164E-02  0.1186339E+00
        -11   -1    0    0    0    0  0.00000000000E+00  0.00000000000E+00  0.45593999997E+02  0.45594000000E+02  0.51100000000E-03 0. -1.
         11   -1    0    0    0    0 -0.00000000000E+00 -0.00000000000E+00 -0.45593999997E+02  0.45594000000E+02  0.51100000000E-03 0.  1.
    9900012    2    1    2    0    0  0.10291237533E+01 -0.31227293334E+00 -0.48622070004E+00  0.90007737040E+02  0.89999998369E+02 0.  0.
         12    1    1    2    0    0 -0.10291237533E+01  0.31227293334E+00  0.48622070004E+00  0.11802629595E+01  0.00000000000E+00 0. -1.
         11    1    3    3    0    0  0.41255048370E+02  0.77520115021E+01  0.12336551978E+02  0.43752293806E+02  0.51100000000E-03 0. -1.
        -11    1    3    3    0    0 -0.32429678196E+01 -0.41056548750E+01 -0.67951590402E+01  0.85759797617E+01  0.51100000000E-03 0.  1.
        -12    1    3    3    0    0 -0.36982956797E+02 -0.39586295605E+01 -0.60276136377E+01  0.37679463473E+02  0.00000000000E+00 0.  1.
</event>
<event>
 7    1  0.1999542E-015  0.9000769E+02  0.7816164E-02  0.1186339E+00
        -11   -1    0    0    0    0  0.00000000000E+00  0.00000000000E+00  0.45593999997E+02  0.45594000000E+02  0.51100000000E-03 0. -1.
         11   -1    0    0    0    0 -0.00000000000E+00 -0.00000000000E+00 -0.45593999997E+02  0.45594000000E+02  0.51100000000E-03 0.  1.
    9900012    2    1    2    0    0  0.45320247783E+00  0.67927831966E+00 -0.85225027490E+00  0.90007685613E+02  0.89999946263E+02 0.  0.
         12    1    1    2    0    0 -0.45320247783E+00 -0.67927831966E+00  0.85225027490E+00  0.11803143872E+01  0.00000000000E+00 0. -1.
         11    1    3    3    0    0  0.21237572632E+01 -0.85848974864E+01  0.17426524222E+01  0.90137476939E+01  0.51100000000E-03 0. -1.
        -11    1    3    3    0    0 -0.56468522273E+01 -0.13776300933E+02 -0.36722110419E+02  0.39625582663E+02  0.51100000000E-03 0.  1.
         12    1    3    3    0    0  0.39762974419E+01  0.23040476739E+02  0.34127207722E+02  0.41368355256E+02  0.00000000000E+00 0. -1.
</event>
<event>
 7    1  0.1999542E-015  0.9000771E+02  0.7816164E-02  0.1186339E+00
        -11   -1    0    0    0    0  0.00000000000E+00  0.00000000000E+00  0.45593999997E+02  0.45594000000E+02  0.51100000000E-03 0. -1.
         11   -1    0    0    0    0 -0.00000000000E+00 -0.00000000000E+00 -0.45593999997E+02  0.45594000000E+02  0.51100000000E-03 0.  1.
    9900012    2    1    2    0    0 -0.38682033227E+00  0.39579207168E+00 -0.10425029344E+01  0.90007706095E+02  0.89999967016E+02 0.  0.
         12    1    1    2    0    0  0.38682033227E+00 -0.39579207168E+00  0.10425029344E+01  0.11802939048E+01  0.00000000000E+00 0. -1.
         11    1    3    3    0    0 -0.88772480562E+01 -0.70535562542E+01  0.33956514149E+01  0.11835904599E+02  0.51100000000E-03 0. -1.
        -11    1    3    3    0    0 -0.22239704930E+01  0.41703993146E+02  0.15125234090E+01  0.41790630725E+02  0.51100000000E-03 0.  1.
         12    1    3    3    0    0  0.10714398217E+02 -0.34254644820E+02 -0.59506777583E+01  0.36381170771E+02  0.00000000000E+00 0. -1.
</event>
<event>
 7    1  0.1999542E-015  0.9000775E+02  0.7816164E-02  0.1186339E+00
        -11   -1    0    0    0    0  0.00000000000E+00  0.00000000000E+00  0.45593999997E+02  0.45594000000E+02  0.51100000000E-03 0.  1.
         11   -1    0    0    0    0 -0.00000000000E+00 -0.00000000000E+00 -0.45593999997E+02  0.45594000000E+02  0.51100000000E-03 0. -1.
    9900012    2    1    2    0    0 -0.85110438968E+00  0.23903699640E+00 -0.78197375916E+00  0.90007745651E+02  0.90000007094E+02 0.  0.
         12    1    1    2    0    0  0.85110438968E+00 -0.23903699640E+00  0.78197375916E+00  0.11802543488E+01  0.00000000000E+00 0. -1.
         11    1    3    3    0    0  0.22610797527E+02 -0.26833451460E+02 -0.12656341480E+02  0.37302349282E+02  0.51100000000E-03 0. -1.
        -11    1    3    3    0    0  0.30648420889E+01 -0.66108522662E+00 -0.86385227363E+01  0.91899056596E+01  0.51100000000E-03 0.  1.
        -12    1    3    3    0    0 -0.26526744005E+02  0.27733573683E+02  0.20512890457E+02  0.43515490709E+02  0.00000000000E+00 0.  1.
</event>
<event>
 7    1  0.1999542E-015  0.9000772E+02  0.7816164E-02  0.1186339E+00
        -11   -1    0    0    0    0  0.00000000000E+00  0.00000000000E+00  0.45593999997E+02  0.45594000000E+02  0.51100000000E-03 0. -1.
         11   -1    0    0    0    0 -0.00000000000E+00 -0.00000000000E+00 -0.45593999997E+02  0.45594000000E+02  0.51100000000E-03 0.  1.
    9900012    2    1    2    0    0 -0.72728307789E+00 -0.44953583532E+00 -0.81365440523E+00  0.90007721798E+02  0.89999982926E+02 0.  0.
         12    1    1    2    0    0  0.72728307789E+00  0.44953583532E+00  0.81365440523E+00  0.11802782019E+01  0.00000000000E+00 0. -1.
         11    1    3    3    0    0 -0.13430002278E+02  0.29321979362E+02  0.20939579908E+02  0.38452690958E+02  0.51100000000E-03 0. -1.
        -11    1    3    3    0    0 -0.15508816355E+00  0.69741761009E+01 -0.34062441305E-01  0.69759834530E+01  0.51100000000E-03 0.  1.
        -12    1    3    3    0    0  0.12857807364E+02 -0.36745691298E+02 -0.21719171872E+02  0.44579047388E+02  0.00000000000E+00 0.  1.
</event>
<event>
 7    1  0.1999542E-015  0.9000774E+02  0.7816164E-02  0.1186339E+00
        -11   -1    0    0    0    0  0.00000000000E+00  0.00000000000E+00  0.45593999997E+02  0.45594000000E+02  0.51100000000E-03 0.  1.
         11   -1    0    0    0    0 -0.00000000000E+00 -0.00000000000E+00 -0.45593999997E+02  0.45594000000E+02  0.51100000000E-03 0. -1.
    9900012    2    1    2    0    0  0.11206256699E+01  0.21244548452E+00  0.30344220242E+00  0.90007740645E+02  0.90000002021E+02 0.  0.
         12    1    1    2    0    0 -0.11206256699E+01 -0.21244548452E+00 -0.30344220242E+00  0.11802593554E+01  0.00000000000E+00 0. -1.
         11    1    3    3    0    0  0.21094054238E+01 -0.97391985614E+01  0.48246567241E+01  0.11071535242E+02  0.51100000000E-03 0. -1.
        -11    1    3    3    0    0  0.86220462294E+01 -0.11035944182E+02  0.32454168247E+02  0.35346920404E+02  0.51100000000E-03 0.  1.
         12    1    3    3    0    0 -0.96108259833E+01  0.20987588228E+02 -0.36975382769E+02  0.43589284998E+02  0.00000000000E+00 0. -1.
</event>
<event>
 7    1  0.1999542E-015  0.9000781E+02  0.7816164E-02  0.1186339E+00
        -11   -1    0    0    0    0  0.00000000000E+00  0.00000000000E+00  0.45593999997E+02  0.45594000000E+02  0.51100000000E-03 0.  1.
         11   -1    0    0    0    0 -0.00000000000E+00 -0.00000000000E+00 -0.45593999997E+02  0.45594000000E+02  0.51100000000E-03 0. -1.
    9900012    2    1    2    0    0  0.90867279049E+00 -0.61346878542E+00 -0.43681844697E+00  0.90007813343E+02  0.90000075679E+02 0.  0.
         12    1    1    2    0    0 -0.90867279049E+00  0.61346878542E+00  0.43681844697E+00  0.11801866575E+01  0.00000000000E+00 0. -1.
         11    1    3    3    0    0  0.68437922387E+01 -0.46843433246E+01 -0.45561429694E+01  0.94625051444E+01  0.51100000000E-03 0. -1.
        -11    1    3    3    0    0 -0.21468998322E+02 -0.32516320117E+02 -0.62602856617E+01  0.39464162727E+02  0.51100000000E-03 0.  1.
         12    1    3    3    0    0  0.15533878873E+02  0.36587194656E+02  0.10379610184E+02  0.41081145471E+02  0.00000000000E+00 0. -1.
</event>
<event>
 7    1  0.1999542E-015  0.9000770E+02  0.7816164E-02  0.1186339E+00
        -11   -1    0    0    0    0  0.00000000000E+00  0.00000000000E+00  0.45593999997E+02  0.45594000000E+02  0.51100000000E-03 0. -1.
         11   -1    0    0    0    0 -0.00000000000E+00 -0.00000000000E+00 -0.45593999997E+02  0.45594000000E+02  0.51100000000E-03 0.  1.
    9900012    2    1    2    0    0 -0.68483224913E+00  0.16970587011E-01 -0.96115661136E+00  0.90007701207E+02  0.89999962062E+02 0.  0.
         12    1    1    2    0    0  0.68483224913E+00 -0.16970587011E-01  0.96115661136E+00  0.11802987935E+01  0.00000000000E+00 0. -1.
         11    1    3    3    0    0  0.27431448264E+02 -0.52860181691E+01  0.14205888608E+02  0.31340606461E+02  0.51100000000E-03 0. -1.
        -11    1    3    3    0    0  0.53773855126E+00 -0.48055096289E+01  0.15054365342E+02  0.15811894310E+02  0.51100000000E-03 0.  1.
        -12    1    3    3    0    0 -0.28654019064E+02  0.10108498385E+02 -0.30221410561E+02  0.42855200436E+02  0.00000000000E+00 0.  1.
</event>
<event>
 7    1  0.1999542E-015  0.9000800E+02  0.7816164E-02  0.1186339E+00
        -11   -1    0    0    0    0  0.00000000000E+00  0.00000000000E+00  0.45593999997E+02  0.45594000000E+02  0.51100000000E-03 0.  1.
         11   -1    0    0    0    0 -0.00000000000E+00 -0.00000000000E+00 -0.45593999997E+02  0.45594000000E+02  0.51100000000E-03 0. -1.
    9900012    2    1    2    0    0 -0.18113766805E+00  0.10926519157E+01  0.40707428350E+00  0.90007996383E+02  0.90000261135E+02 0.  0.
         12    1    1    2    0    0  0.18113766805E+00 -0.10926519157E+01 -0.40707428350E+00  0.11800036169E+01  0.00000000000E+00 0. -1.
         11    1    3    3    0    0  0.11667810008E+02 -0.36707888893E+02 -0.12211572025E+02  0.40407046278E+02  0.51100000000E-03 0. -1.
        -11    1    3    3    0    0  0.66292809738E+01  0.13508586261E+01  0.39212607982E+01  0.78197488301E+01  0.51100000000E-03 0.  1.
        -12    1    3    3    0    0 -0.18478228650E+02  0.36449682182E+02  0.86973855103E+01  0.41781201275E+02  0.00000000000E+00 0.  1.
</event>
<event>
 7    1  0.1999542E-015  0.9000782E+02  0.7816164E-02  0.1186339E+00
        -11   -1    0    0    0    0  0.00000000000E+00  0.00000000000E+00  0.45593999997E+02  0.45594000000E+02  0.51100000000E-03 0.  1.
         11   -1    0    0    0    0 -0.00000000000E+00 -0.00000000000E+00 -0.45593999997E+02  0.45594000000E+02  0.51100000000E-03 0. -1.
    9900012    2    1    2    0    0  0.39860940260E+00 -0.41755226360E+00  0.10293636438E+01  0.90007818294E+02  0.90000080695E+02 0.  0.
         12    1    1    2    0    0 -0.39860940260E+00  0.41755226360E+00 -0.10293636438E+01  0.11801817063E+01  0.00000000000E+00 0. -1.
         11    1    3    3    0    0  0.59484754339E+01 -0.19173529964E+01  0.86739605686E+01  0.10691033379E+02  0.51100000000E-03 0. -1.
        -11    1    3    3    0    0 -0.11896542945E+02 -0.30835602746E+02  0.17933023516E+02  0.37602599158E+02  0.51100000000E-03 0.  1.
         12    1    3    3    0    0  0.63466769142E+01  0.32335403479E+02 -0.25577620441E+02  0.41714185757E+02  0.00000000000E+00 0. -1.
</event>
<event>
 7    1  0.1999542E-015  0.9000772E+02  0.7816164E-02  0.1186339E+00
        -11   -1    0    0    0    0  0.00000000000E+00  0.00000000000E+00  0.45593999997E+02  0.45594000000E+02  0.51100000000E-03 0.  1.
         11   -1    0    0    0    0 -0.00000000000E+00 -0.00000000000E+00 -0.45593999997E+02  0.45594000000E+02  0.51100000000E-03 0. -1.
    9900012    2    1    2    0    0  0.74349247210E-01  0.11670344146E+01  0.15988752667E+00  0.90007719882E+02  0.89999980985E+02 0.  0.
         12    1    1    2    0    0 -0.74349247210E-01 -0.11670344146E+01 -0.15988752667E+00  0.11802801179E+01  0.00000000000E+00 0. -1.
         11    1    3    3    0    0 -0.38413589904E+02  0.69189591521E+01 -0.11612345610E+02  0.40722505521E+02  0.51100000000E-03 0. -1.
        -11    1    3    3    0    0  0.34496154730E+01  0.76439206661E+01 -0.30887115501E+01  0.89369742845E+01  0.51100000000E-03 0.  1.
        -12    1    3    3    0    0  0.35038323679E+02 -0.13395845404E+02  0.14860944687E+02  0.40348240076E+02  0.00000000000E+00 0.  1.
</event>
<event>
 7    1  0.1999542E-015  0.9000792E+02  0.7816164E-02  0.1186339E+00
        -11   -1    0    0    0    0  0.00000000000E+00  0.00000000000E+00  0.45593999997E+02  0.45594000000E+02  0.51100000000E-03 0. -1.
         11   -1    0    0    0    0 -0.00000000000E+00 -0.00000000000E+00 -0.45593999997E+02  0.45594000000E+02  0.51100000000E-03 0.  1.
    9900012    2    1    2    0    0  0.28548803785E+00  0.68703625447E+00 -0.91600072829E+00  0.90007923914E+02  0.90000187709E+02 0.  0.
         12    1    1    2    0    0 -0.28548803785E+00 -0.68703625447E+00  0.91600072829E+00  0.11800760861E+01  0.00000000000E+00 0. -1.
         11    1    3    3    0    0 -0.48302282139E+01 -0.73052429489E+00  0.12622334824E+01  0.50455925290E+01  0.51100000000E-03 0. -1.
        -11    1    3    3    0    0  0.30080082299E+02 -0.88370287737E+01 -0.31960854415E+02  0.44770533210E+02  0.51100000000E-03 0.  1.
         12    1    3    3    0    0 -0.24964366047E+02  0.10254589323E+02  0.29782620204E+02  0.40191798175E+02  0.00000000000E+00 0. -1.
</event>
<event>
 7    1  0.1999542E-015  0.9000779E+02  0.7816164E-02  0.1186339E+00
        -11   -1    0    0    0    0  0.00000000000E+00  0.00000000000E+00  0.45593999997E+02  0.45594000000E+02  0.51100000000E-03 0. -1.
         11   -1    0    0    0    0 -0.00000000000E+00 -0.00000000000E+00 -0.45593999997E+02  0.45594000000E+02  0.51100000000E-03 0.  1.
    9900012    2    1    2    0    0 -0.10575468536E+01 -0.20970305904E+00 -0.48012226950E+00  0.90007788953E+02  0.90000050968E+02 0.  0.
         12    1    1    2    0    0  0.10575468536E+01  0.20970305904E+00  0.48012226950E+00  0.11802110465E+01  0.00000000000E+00 0. -1.
         11    1    3    3    0    0 -0.91970122916E+01  0.30708148889E+02  0.20685170461E+02  0.38150382967E+02  0.51100000000E-03 0. -1.
        -11    1    3    3    0    0  0.91665145466E+00  0.44497197003E+01  0.53863030481E+01  0.70464541500E+01  0.51100000000E-03 0.  1.
        -12    1    3    3    0    0  0.72228139833E+01 -0.35367571648E+02 -0.26551595778E+02  0.44810951837E+02  0.00000000000E+00 0.  1.
</event>
<event>
 7    1  0.1999542E-015  0.9000781E+02  0.7816164E-02  0.1186339E+00
        -11   -1    0    0    0    0  0.00000000000E+00  0.00000000000E+00  0.45593999997E+02  0.45594000000E+02  0.51100000000E-03 0. -1.
         11   -1    0    0    0    0 -0.00000000000E+00 -0.00000000000E+00 -0.45593999997E+02  0.45594000000E+02  0.51100000000E-03 0.  1.
    9900012    2    1    2    0    0  0.30103046841E+00 -0.11405006034E+01 -0.38503688004E-01  0.90007812090E+02  0.90000074409E+02 0.  0.
         12    1    1    2    0    0 -0.30103046841E+00  0.11405006034E+01  0.38503688004E-01  0.11801879102E+01  0.00000000000E+00 0. -1.
         11    1    3    3    0    0 -0.72588695585E+01 -0.38184964012E+01  0.12095377254E+01  0.82906624466E+01  0.51100000000E-03 0. -1.
        -11    1    3    3    0    0 -0.18204057995E+02  0.33444063154E+02 -0.12437698052E+02  0.40057326681E+02  0.51100000000E-03 0.  1.
         12    1    3    3    0    0  0.25763958022E+02 -0.30766067357E+02  0.11189656638E+02  0.41659822962E+02  0.00000000000E+00 0. -1.
</event>
<event>
 7    1  0.1999542E-015  0.9000771E+02  0.7816164E-02  0.1186339E+00
        -11   -1    0    0    0    0  0.00000000000E+00  0.00000000000E+00  0.45593999997E+02  0.45594000000E+02  0.51100000000E-03 0. -1.
         11   -1    0    0    0    0 -0.00000000000E+00 -0.00000000000E+00 -0.45593999997E+02  0.45594000000E+02  0.51100000000E-03 0.  1.
    9900012    2    1    2    0    0  0.10764549619E+01 -0.39635668963E+00  0.27791730566E+00  0.90007706842E+02  0.89999967772E+02 0.  0.
         12    1    1    2    0    0 -0.10764549619E+01  0.39635668963E+00 -0.27791730566E+00  0.11802931581E+01  0.00000000000E+00 0. -1.
         11    1    3    3    0    0  0.13737371523E+02 -0.39120149926E+02  0.12851634792E+02  0.43408133152E+02  0.51100000000E-03 0. -1.
        -11    1    3    3    0    0 -0.32318007212E+01  0.13894574520E+01 -0.68086956602E+01  0.76637761427E+01  0.51100000000E-03 0.  1.
        -12    1    3    3    0    0 -0.94291158399E+01  0.37334335785E+02 -0.57650218266E+01  0.38935797548E+02  0.00000000000E+00 0.  1.
</event>
<event>
 7    1  0.1999542E-015  0.9000783E+02  0.7816164E-02  0.1186339E+00
        -11   -1    0    0    0    0  0.00000000000E+00  0.00000000000E+00  0.45593999997E+02  0.45594000000E+02  0.51100000000E-03 0. -1.
         11   -1    0    0    0    0 -0.00000000000E+00 -0.00000000000E+00 -0.45593999997E+02  0.45594000000E+02  0.51100000000E-03 0.  1.
    9900012    2    1    2    0    0 -0.22366855451E+00  0.33540626953E+00 -0.11091809468E+01  0.90007827402E+02  0.90000089924E+02 0.  0.
         12    1    1    2    0    0  0.22366855451E+00 -0.33540626953E+00  0.11091809468E+01  0.11801725978E+01  0.00000000000E+00 0. -1.
         11    1    3    3    0    0  0.36554689829E+02 -0.16292924904E+02  0.33306567723E+01  0.40159656687E+02  0.51100000000E-03 0. -1.
        -11    1    3    3    0    0 -0.31253716320E+01 -0.58990323639E+01  0.49085945240E+01  0.82861831461E+01  0.51100000000E-03 0.  1.
        -12    1    3    3    0    0 -0.33652986752E+02  0.22527363538E+02 -0.93484322431E+01  0.41561987569E+02  0.00000000000E+00 0.  1.
</event>
<event>
 7    1  0.1999542E-015  0.9000800E+02  0.7816164E-02  0.1186339E+00
        -11   -1    0    0    0    0  0.00000000000E+00  0.00000000000E+00  0.45593999997E+02  0.45594000000E+02  0.51100000000E-03 0.  1.
         11   -1    0    0    0    0 -0.00000000000E+00 -0.00000000000E+00 -0.45593999997E+02  0.45594000000E+02  0.51100000000E-03 0. -1.
    9900012    2    1    2    0    0 -0.19907788796E+00  0.11617761225E+01  0.55187853967E-01  0.90007999380E+02  0.90000264171E+02 0.  0.
         12    1    1    2    0    0  0.19907788796E+00 -0.11617761225E+01 -0.55187853967E-01  0.11800006201E+01  0.00000000000E+00 0. -1.
         11    1    3    3    0    0  0.67485600843E+00 -0.51695121609E+01  0.64860201660E+01  0.83215229657E+01  0.51100000000E-03 0. -1.
        -11    1    3    3    0    0  0.18192803550E+01 -0.36349609974E+02  0.65803708262E+01  0.36985202538E+02  0.51100000000E-03 0.  1.
         12    1    3    3    0    0 -0.26932142514E+01  0.42680898258E+02 -0.13011203138E+02  0.44701273876E+02  0.00000000000E+00 0. -1.
</event>
<event>
 7    1  0.1999542E-015  0.9000776E+02  0.7816164E-02  0.1186339E+00
        -11   -1    0    0    0    0  0.00000000000E+00  0.00000000000E+00  0.45593999997E+02  0.45594000000E+02  0.51100000000E-03 0.  1.
         11   -1    0    0    0    0 -0.00000000000E+00 -0.00000000000E+00 -0.45593999997E+02  0.45594000000E+02  0.51100000000E-03 0. -1.
    9900012    2    1    2    0    0  0.87625056393E+00  0.53270873098E+00  0.58427482685E+00  0.90007758196E+02  0.90000019804E+02 0.  0.
         12    1    1    2    0    0 -0.87625056393E+00 -0.53270873098E+00 -0.58427482685E+00  0.11802418041E+01  0.00000000000E+00 0. -1.
         11    1    3    3    0    0 -0.18530874937E+02 -0.16742934921E+02 -0.13569470623E+02  0.28422697426E+02  0.51100000000E-03 0. -1.
        -11    1    3    3    0    0 -0.11632355663E+02  0.16305269128E+02  0.21798621574E+02  0.29603266752E+02  0.51100000000E-03 0.  1.
        -12    1    3    3    0    0  0.31039481164E+02  0.97037452335E+00 -0.76448761248E+01  0.31981794018E+02  0.00000000000E+00 0.  1.
</event>
<event>
 7    1  0.1999542E-015  0.9000775E+02  0.7816164E-02  0.1186339E+00
        -11   -1    0    0    0    0  0.00000000000E+00  0.00000000000E+00  0.45593999997E+02  0.45594000000E+02  0.51100000000E-03 0. -1.
         11   -1    0    0    0    0 -0.00000000000E+00 -0.00000000000E+00 -0.45593999997E+02  0.45594000000E+02  0.51100000000E-03 0.  1.
    9900012    2    1    2    0    0 -0.10066773088E+01 -0.60179400165E+00 -0.13201566869E+00  0.90007752839E+02  0.90000014376E+02 0.  0.
         12    1    1    2    0    0  0.10066773088E+01  0.60179400165E+00  0.13201566869E+00  0.11802471611E+01  0.00000000000E+00 0. -1.
         11    1    3    3    0    0  0.62962478092E+01  0.35990267802E+01  0.36579890411E+01  0.81225989883E+01  0.51100000000E-03 0. -1.
        -11    1    3    3    0    0  0.31411249612E+02 -0.19352621839E+02  0.97523395519E+01  0.38161481905E+02  0.51100000000E-03 0.  1.
         12    1    3    3    0    0 -0.38714174730E+02  0.15151801057E+02 -0.13542344262E+02  0.43723671945E+02  0.00000000000E+00 0. -1.
</event>
<event>
 7    1  0.1999542E-015  0.9000774E+02  0.7816164E-02  0.1186339E+00
        -11   -1    0    0    0    0  0.00000000000E+00  0.00000000000E+00  0.45593999997E+02  0.45594000000E+02  0.51100000000E-03 0.  1.
         11   -1    0    0    0    0 -0.00000000000E+00 -0.00000000000E+00 -0.45593999997E+02  0.45594000000E+02  0.51100000000E-03 0. -1.
    9900012    2    1    2    0    0  0.80932134261E-01 -0.87195432098E+00 -0.79130441924E+00  0.90007738575E+02  0.89999999924E+02 0.  0.
         12    1    1    2    0    0 -0.80932134261E-01  0.87195432098E+00  0.79130441924E+00  0.11802614253E+01  0.00000000000E+00 0. -1.
         11    1    3    3    0    0  0.27163672120E+01  0.14303379007E+02  0.16684610337E+01  0.14654318965E+02  0.51100000000E-03 0. -1.
        -11    1    3    3    0    0 -0.12442621300E+02  0.28083408026E+02  0.19501618660E+01  0.30778235212E+02  0.51100000000E-03 0.  1.
         12    1    3    3    0    0  0.98071862226E+01 -0.43258741354E+02 -0.44099273189E+01  0.44575184398E+02  0.00000000000E+00 0. -1.
</event>
<event>
 7    1  0.1999542E-015  0.9000769E+02  0.7816164E-02  0.1186339E+00
        -11   -1    0    0    0    0  0.00000000000E+00  0.00000000000E+00  0.45593999997E+02  0.45594000000E+02  0.51100000000E-03 0. -1.
         11   -1    0    0    0    0 -0.00000000000E+00 -0.00000000000E+00 -0.45593999997E+02  0.45594000000E+02  0.51100000000E-03 0.  1.
    9900012    2    1    2    0    0 -0.10739213832E+01 -0.45849432187E+00  0.17208605243E+00  0.90007687419E+02  0.89999948092E+02 0.  0.
         12    1    1    2    0    0  0.10739213832E+01  0.45849432187E+00 -0.17208605243E+00  0.11803125815E+01  0.00000000000E+00 0. -1.
         11    1    3    3    0    0 -0.50121960230E+01 -0.67461369044E+01 -0.44581243235E+01  0.95135348242E+01  0.51100000000E-03 0. -1.
        -11    1    3    3    0    0  0.25288367120E+02  0.29377315962E+02 -0.16999299273E+02  0.42326166620E+02  0.51100000000E-03 0.  1.
         12    1    3    3    0    0 -0.21350092480E+02 -0.23089673380E+02  0.21629509649E+02  0.38167985974E+02  0.00000000000E+00 0. -1.
</event>
<event>
 7    1  0.1999542E-015  0.9000774E+02  0.7816164E-02  0.1186339E+00
        -11   -1    0    0    0    0  0.00000000000E+00  0.00000000000E+00  0.45593999997E+02  0.45594000000E+02  0.51100000000E-03 0. -1.
         11   -1    0    0    0    0 -0.00000000000E+00 -0.00000000000E+00 -0.45593999997E+02  0.45594000000E+02  0.51100000000E-03 0.  1.
    9900012    2    1    2    0    0 -0.87756324421E-01 -0.22871347463E+00 -0.11545579236E+01  0.90007739425E+02  0.90000000785E+02 0.  0.
         12    1    1    2    0    0  0.87756324421E-01  0.22871347463E+00  0.11545579236E+01  0.11802605750E+01  0.00000000000E+00 0. -1.
         11    1    3    3    0    0  0.26636757253E+02 -0.17264987018E+02  0.28216408801E+02  0.42470723323E+02  0.51100000000E-03 0. -1.
        -11    1    3    3    0    0 -0.77808919354E+01  0.45381857451E+01  0.15920947130E+01  0.91472495869E+01  0.51100000000E-03 0.  1.
        -12    1    3    3    0    0 -0.18943621642E+02  0.12498087798E+02 -0.30963061437E+02  0.38389766515E+02  0.00000000000E+00 0.  1.
</event>
<event>
 7    1  0.1999542E-015  0.9000797E+02  0.7816164E-02  0.1186339E+00
        -11   -1    0    0    0    0  0.00000000000E+00  0.00000000000E+00  0.45593999997E+02  0.45594000000E+02  0.51100000000E-03 0. -1.
         11   -1    0    0    0    0 -0.00000000000E+00 -0.00000000000E+00 -0.45593999997E+02  0.45594000000E+02  0.51100000000E-03 0.  1.
    9900012    2    1    2    0    0  0.94100975407E+00 -0.65613704062E+00  0.27650202628E+00  0.90007970956E+02  0.90000235373E+02 0.  0.
         12    1    1    2    0    0 -0.94100975407E+00  0.65613704062E+00 -0.27650202628E+00  0.11800290437E+01  0.00000000000E+00 0. -1.
         11    1    3    3    0    0 -0.11455600663E+02  0.81486185105E+01  0.34557915347E+02  0.37307911810E+02  0.51100000000E-03 0. -1.
        -11    1    3    3    0    0  0.43145413850E+01  0.18885149816E+01  0.74805703446E+01  0.88397222321E+01  0.51100000000E-03 0.  1.
        -12    1    3    3    0    0  0.80820690326E+01 -0.10693270533E+02 -0.41761983666E+02  0.43860336914E+02  0.00000000000E+00 0.  1.
</event>
<event>
 7    1  0.1999542E-015  0.9000780E+02  0.7816164E-02  0.1186339E+00
        -11   -1    0    0    0    0  0.00000000000E+00  0.00000000000E+00  0.45593999997E+02  0.45594000000E+02  0.51100000000E-03 0.  1.
         11   -1    0    0    0    0 -0.00000000000E+00 -0.00000000000E+00 -0.45593999997E+02  0.45594000000E+02  0.51100000000E-03 0. -1.
    9900012    2    1    2    0    0 -0.10916715805E+01 -0.11938373402E+00 -0.43229959567E+00  0.90007795672E+02  0.90000057775E+02 0.  0.
         12    1    1    2    0    0  0.10916715805E+01  0.11938373402E+00  0.43229959567E+00  0.11802043281E+01  0.00000000000E+00 0. -1.
         11    1    3    3    0    0 -0.21185911883E+02 -0.29301440715E+02  0.17696919864E+02  0.40256654893E+02  0.51100000000E-03 0. -1.
        -11    1    3    3    0    0 -0.32731247968E+01  0.21474597765E+02 -0.87394155903E+01  0.23414719307E+02  0.51100000000E-03 0.  1.
        -12    1    3    3    0    0  0.23367365099E+02  0.77074592162E+01 -0.93898038697E+01  0.26336421472E+02  0.00000000000E+00 0.  1.
</event>
<event>
 7    1  0.1999542E-015  0.9000766E+02  0.7816164E-02  0.1186339E+00
        -11   -1    0    0    0    0  0.00000000000E+00  0.00000000000E+00  0.45593999997E+02  0.45594000000E+02  0.51100000000E-03 0. -1.
         11   -1    0    0    0    0 -0.00000000000E+00 -0.00000000000E+00 -0.45593999997E+02  0.45594000000E+02  0.51100000000E-03 0.  1.
    9900012    2    1    2    0    0  0.10893653908E+01 -0.44963621138E+00 -0.65642140998E-01  0.90007661672E+02  0.89999922006E+02 0.  0.
         12    1    1    2    0    0 -0.10893653908E+01  0.44963621138E+00  0.65642140998E-01  0.11803383277E+01  0.00000000000E+00 0. -1.
         11    1    3    3    0    0  0.10558344342E+01  0.30588930962E+02 -0.21129885767E+02  0.37192331959E+02  0.51100000000E-03 0. -1.
        -11    1    3    3    0    0  0.72024812514E+01  0.24692109895E+01 -0.55547211689E+01  0.94248430551E+01  0.51100000000E-03 0.  1.
        -12    1    3    3    0    0 -0.71689502948E+01 -0.33507778163E+02  0.26618964794E+02  0.43390486659E+02  0.00000000000E+00 0.  1.
</event>
<event>
 7    1  0.1999542E-015  0.9000782E+02  0.7816164E-02  0.1186339E+00
        -11   -1    0    0    0    0  0.00000000000E+00  0.00000000000E+00  0.45593999997E+02  0.45594000000E+02  0.51100000000E-03 0.  1.
         11   -1    0    0    0    0 -0.00000000000E+00 -0.00000000000E+00 -0.45593999997E+02  0.45594000000E+02  0.51100000000E-03 0. -1.
    9900012    2    1    2    0    0  0.98765726886E+00  0.32152820955E+00  0.56034374921E+00  0.90007816799E+02  0.90000079181E+02 0.  0.
         12    1    1    2    0    0 -0.98765726886E+00 -0.32152820955E+00 -0.56034374921E+00  0.11801832008E+01  0.00000000000E+00 0. -1.
         11    1    3    3    0    0 -0.34033313717E+01  0.76526049708E+00 -0.64239564252E+01  0.73099592658E+01  0.51100000000E-03 0. -1.
        -11    1    3    3    0    0  0.21370873432E+02 -0.30964218235E+02  0.23189496537E+02  0.44195585663E+02  0.51100000000E-03 0.  1.
         12    1    3    3    0    0 -0.16979884791E+02  0.30520485948E+02 -0.16205196363E+02  0.38502271870E+02  0.00000000000E+00 0. -1.
</event>
<event>
 7    1  0.1999542E-015  0.9000772E+02  0.7816164E-02  0.1186339E+00
        -11   -1    0    0    0    0  0.00000000000E+00  0.00000000000E+00  0.45593999997E+02  0.45594000000E+02  0.51100000000E-03 0. -1.
         11   -1    0    0    0    0 -0.00000000000E+00 -0.00000000000E+00 -0.45593999997E+02  0.45594000000E+02  0.51100000000E-03 0.  1.
    9900012    2    1    2    0    0 -0.53402715431E+00 -0.73713235890E+00 -0.75134630657E+00  0.90007715971E+02  0.89999977022E+02 0.  0.
         12    1    1    2    0    0  0.53402715431E+00  0.73713235890E+00  0.75134630657E+00  0.11802840287E+01  0.00000000000E+00 0. -1.
         11    1    3    3    0    0 -0.47268912510E+01 -0.33646908315E+02 -0.96063248393E+01  0.35309197346E+02  0.51100000000E-03 0. -1.
        -11    1    3    3    0    0  0.49141779108E+01  0.71884117139E+01 -0.16447818191E+02  0.18610565038E+02  0.51100000000E-03 0.  1.
        -12    1    3    3    0    0 -0.72131381406E+00  0.25721364242E+02  0.25302796724E+02  0.36087953588E+02  0.00000000000E+00 0.  1.
</event>
<event>
 7    1  0.1999542E-015  0.9000764E+02  0.7816164E-02  0.1186339E+00
        -11   -1    0    0    0    0  0.00000000000E+00  0.00000000000E+00  0.45593999997E+02  0.45594000000E+02  0.51100000000E-03 0.  1.
         11   -1    0    0    0    0 -0.00000000000E+00 -0.00000000000E+00 -0.45593999997E+02  0.45594000000E+02  0.51100000000E-03 0. -1.
    9900012    2    1    2    0    0  0.91607516574E+00 -0.14330884332E+00  0.73042543479E+00  0.90007638848E+02  0.89999898881E+02 0.  0.
         12    1    1    2    0    0 -0.91607516574E+00  0.14330884332E+00 -0.73042543479E+00  0.11803611522E+01  0.00000000000E+00 0. -1.
         11    1    3    3    0    0 -0.13917591171E+02 -0.33307297484E+02 -0.22876981171E+01  0.36170553944E+02  0.51100000000E-03 0. -1.
        -11    1    3    3    0    0 -0.41209557633E+01 -0.76844418218E+01  0.60022915396E+00  0.87403202352E+01  0.51100000000E-03 0.  1.
        -12    1    3    3    0    0  0.18954622100E+02  0.40848430463E+02  0.24178943979E+01  0.45096764668E+02  0.00000000000E+00 0.  1.
</event>
<event>
 7    1  0.2638811E-015  0.9000778E+02  0.7816164E-02  0.1186339E+00
        -11   -1    0    0    0    0  0.00000000000E+00  0.00000000000E+00  0.45593999997E+02  0.45594000000E+02  0.51100000000E-03 0. -1.
         11   -1    0    0    0    0 -0.00000000000E+00 -0.00000000000E+00 -0.45593999997E+02  0.45594000000E+02  0.51100000000E-03 0.  1.
    9900012    2    1    2    0    0 -0.68362892285E+00 -0.17290826442E+00 -0.94639553501E+00  0.90007783799E+02  0.90000045745E+02 0.  0.
         12    1    1    2    0    0  0.68362892285E+00  0.17290826442E+00  0.94639553501E+00  0.11802162008E+01  0.00000000000E+00 0. -1.
         11    1    3    3    0    0  0.28896666450E+02 -0.55268633528E-02  0.30313621164E+02  0.41879983176E+02  0.51100000000E-03 0. -1.
        -11    1    3    3    0    0  0.79369762638E+00 -0.51956316157E+01 -0.78675890270E+01  0.94616859580E+01  0.51100000000E-03 0.  1.
        -12    1    3    3    0    0 -0.30373993000E+02  0.50282502147E+01 -0.23392427672E+02  0.38666114666E+02  0.00000000000E+00 0.  1.
</event>
<event>
 7    1  0.1999542E-015  0.9000767E+02  0.7816164E-02  0.1186339E+00
        -11   -1    0    0    0    0  0.00000000000E+00  0.00000000000E+00  0.45593999997E+02  0.45594000000E+02  0.51100000000E-03 0.  1.
         11   -1    0    0    0    0 -0.00000000000E+00 -0.00000000000E+00 -0.45593999997E+02  0.45594000000E+02  0.51100000000E-03 0. -1.
    9900012    2    1    2    0    0  0.91128912524E+00  0.60160821884E-01  0.74774418210E+00  0.90007665913E+02  0.89999926303E+02 0.  0.
         12    1    1    2    0    0 -0.91128912524E+00 -0.60160821884E-01 -0.74774418210E+00  0.11803340867E+01  0.00000000000E+00 0. -1.
         11    1    3    3    0    0 -0.32238350829E+02  0.98463085238E+01  0.23126283196E+02  0.40878919144E+02  0.51100000000E-03 0. -1.
        -11    1    3    3    0    0  0.13302374360E+02 -0.43526760762E+01  0.50146819736E+01  0.14867615417E+02  0.51100000000E-03 0.  1.
        -12    1    3    3    0    0  0.19847265594E+02 -0.54334716257E+01 -0.27393220987E+02  0.34261131352E+02  0.00000000000E+00 0.  1.
</event>
<event>
 7    1  0.1999542E-015  0.9000773E+02  0.7816164E-02  0.1186339E+00
        -11   -1    0    0    0    0  0.00000000000E+00  0.00000000000E+00  0.45593999997E+02  0.45594000000E+02  0.51100000000E-03 0. -1.
         11   -1    0    0    0    0 -0.00000000000E+00 -0.00000000000E+00 -0.45593999997E+02  0.45594000000E+02  0.51100000000E-03 0.  1.
    9900012    2    1    2    0    0  0.63266335677E+00  0.49341735750E+00 -0.86562532424E+00  0.90007732736E+02  0.89999994008E+02 0.  0.
         12    1    1    2    0    0 -0.63266335677E+00 -0.49341735750E+00  0.86562532424E+00  0.11802672637E+01  0.00000000000E+00 0. -1.
         11    1    3    3    0    0 -0.11417521124E+02 -0.59924395082E+01 -0.46609371320E+00  0.12902959486E+02  0.51100000000E-03 0. -1.
        -11    1    3    3    0    0 -0.29633573021E+02  0.30330392330E+01 -0.14281210847E+02  0.33034844642E+02  0.51100000000E-03 0.  1.
         12    1    3    3    0    0  0.41683757503E+02  0.34528176327E+01  0.13881679236E+02  0.44069928608E+02  0.00000000000E+00 0. -1.
</event>
<event>
 7    1  0.1999542E-015  0.9000781E+02  0.7816164E-02  0.1186339E+00
        -11   -1    0    0    0    0  0.00000000000E+00  0.00000000000E+00  0.45593999997E+02  0.45594000000E+02  0.51100000000E-03 0. -1.
         11   -1    0    0    0    0 -0.00000000000E+00 -0.00000000000E+00 -0.45593999997E+02  0.45594000000E+02  0.51100000000E-03 0.  1.
    9900012    2    1    2    0    0 -0.36162855623E+00  0.97930195953E+00 -0.55048754229E+00  0.90007811848E+02  0.90000074164E+02 0.  0.
         12    1    1    2    0    0  0.36162855623E+00 -0.97930195953E+00  0.55048754229E+00  0.11801881523E+01  0.00000000000E+00 0. -1.
         11    1    3    3    0    0 -0.76462426399E+01 -0.15750210457E+02  0.13130110688E+02  0.21884559919E+02  0.51100000000E-03 0. -1.
        -11    1    3    3    0    0 -0.23779964309E+02  0.42359515226E+01  0.10986233059E+02  0.26535397207E+02  0.51100000000E-03 0.  1.
         12    1    3    3    0    0  0.31064578393E+02  0.12493560894E+02 -0.24666831289E+02  0.41587854722E+02  0.00000000000E+00 0. -1.
</event>
<event>
 7    1  0.1999542E-015  0.9000779E+02  0.7816164E-02  0.1186339E+00
        -11   -1    0    0    0    0  0.00000000000E+00  0.00000000000E+00  0.45593999997E+02  0.45594000000E+02  0.51100000000E-03 0. -1.
         11   -1    0    0    0    0 -0.00000000000E+00 -0.00000000000E+00 -0.45593999997E+02  0.45594000000E+02  0.51100000000E-03 0.  1.
    9900012    2    1    2    0    0  0.60870826825E+00 -0.76205721785E+00 -0.66455370185E+00  0.90007792992E+02  0.90000055059E+02 0.  0.
         12    1    1    2    0    0 -0.60870826825E+00  0.76205721785E+00  0.66455370185E+00  0.11802070080E+01  0.00000000000E+00 0. -1.
         11    1    3    3    0    0 -0.23755425081E+01 -0.77397777502E+01 -0.53210225928E+01  0.96881702877E+01  0.51100000000E-03 0. -1.
        -11    1    3    3    0    0 -0.11789288457E+02 -0.78045925815E+01 -0.33751837720E+02  0.36593517696E+02  0.51100000000E-03 0.  1.
         12    1    3    3    0    0  0.14773539233E+02  0.14782313114E+02  0.38408306611E+02  0.43726105008E+02  0.00000000000E+00 0. -1.
</event>
<event>
 7    1  0.1999542E-015  0.9000770E+02  0.7816164E-02  0.1186339E+00
        -11   -1    0    0    0    0  0.00000000000E+00  0.00000000000E+00  0.45593999997E+02  0.45594000000E+02  0.51100000000E-03 0. -1.
         11   -1    0    0    0    0 -0.00000000000E+00 -0.00000000000E+00 -0.45593999997E+02  0.45594000000E+02  0.51100000000E-03 0.  1.
    9900012    2    1    2    0    0 -0.69079927689E+00  0.85134634741E+00 -0.43715963142E+00  0.90007702246E+02  0.89999963116E+02 0.  0.
         12    1    1    2    0    0  0.69079927689E+00 -0.85134634741E+00  0.43715963142E+00  0.11802977538E+01  0.00000000000E+00 0. -1.
         11    1    3    3    0    0 -0.13014417690E+02 -0.26474783088E+02  0.22263312322E+02  0.36958683461E+02  0.51100000000E-03 0. -1.
        -11    1    3    3    0    0 -0.65383301119E+01 -0.63837051951E+01 -0.62097402626E+01  0.11048182070E+02  0.51100000000E-03 0.  1.
        -12    1    3    3    0    0  0.18861948525E+02  0.33709834631E+02 -0.16490731691E+02  0.42000836714E+02  0.00000000000E+00 0.  1.
</event>
<event>
 7    1  0.1999542E-015  0.9000743E+02  0.7816164E-02  0.1186340E+00
        -11   -1    0    0    0    0  0.00000000000E+00  0.00000000000E+00  0.45593999997E+02  0.45594000000E+02  0.51100000000E-03 0.  1.
         11   -1    0    0    0    0 -0.00000000000E+00 -0.00000000000E+00 -0.45593999997E+02  0.45594000000E+02  0.51100000000E-03 0. -1.
    9900012    2    1    2    0    0 -0.59332019169E+00 -0.98891838251E+00  0.25249880184E+00  0.90007430620E+02  0.89999687903E+02 0.  0.
         12    1    1    2    0    0  0.59332019169E+00  0.98891838251E+00 -0.25249880184E+00  0.11805693804E+01  0.00000000000E+00 0. -1.
         11    1    3    3    0    0  0.33204550647E+01 -0.26512938445E+01 -0.67799003009E+01  0.80013642110E+01  0.51100000000E-03 0. -1.
        -11    1    3    3    0    0  0.27299935239E+02 -0.19755426679E+02  0.23127721511E+02  0.40871198293E+02  0.51100000000E-03 0.  1.
         12    1    3    3    0    0 -0.31213710496E+02  0.21417802141E+02 -0.16095322408E+02  0.41134868116E+02  0.00000000000E+00 0. -1.
</event>
<event>
 7    1  0.1999542E-015  0.9000728E+02  0.7816164E-02  0.1186340E+00
        -11   -1    0    0    0    0  0.00000000000E+00  0.00000000000E+00  0.45593999997E+02  0.45594000000E+02  0.51100000000E-03 0.  1.
         11   -1    0    0    0    0 -0.00000000000E+00 -0.00000000000E+00 -0.45593999997E+02  0.45594000000E+02  0.51100000000E-03 0. -1.
    9900012    2    1    2    0    0 -0.36097537168E+00  0.99733102997E+00 -0.51876989333E+00  0.90007282166E+02  0.89999537489E+02 0.  0.
         12    1    1    2    0    0  0.36097537168E+00 -0.99733102997E+00  0.51876989333E+00  0.11807178344E+01  0.00000000000E+00 0. -1.
         11    1    3    3    0    0  0.72247897638E+01 -0.55873762814E+00 -0.60850675323E+01  0.94624427080E+01  0.51100000000E-03 0. -1.
        -11    1    3    3    0    0  0.31198460942E+02  0.11473446168E+02  0.19037627138E+02  0.38306855515E+02  0.51100000000E-03 0.  1.
         12    1    3    3    0    0 -0.38784226077E+02 -0.99173775099E+01 -0.13471329499E+02  0.42237983943E+02  0.00000000000E+00 0. -1.
</event>
<event>
 7    1  0.1999542E-015  0.9000769E+02  0.7816164E-02  0.1186339E+00
        -11   -1    0    0    0    0  0.00000000000E+00  0.00000000000E+00  0.45593999997E+02  0.45594000000E+02  0.51100000000E-03 0.  1.
         11   -1    0    0    0    0 -0.00000000000E+00 -0.00000000000E+00 -0.45593999997E+02  0.45594000000E+02  0.51100000000E-03 0. -1.
    9900012    2    1    2    0    0 -0.48513840003E+00  0.71652976659E+00 -0.80271895258E+00  0.90007689918E+02  0.89999950625E+02 0.  0.
         12    1    1    2    0    0  0.48513840003E+00 -0.71652976659E+00  0.80271895258E+00  0.11803100823E+01  0.00000000000E+00 0. -1.
         11    1    3    3    0    0  0.12497710821E+02  0.29148149596E+02 -0.27621685499E+02  0.42056686872E+02  0.51100000000E-03 0. -1.
        -11    1    3    3    0    0 -0.50493931181E+01 -0.80704612721E+01 -0.38704687551E+01  0.10276635863E+02  0.51100000000E-03 0.  1.
        -12    1    3    3    0    0 -0.79334561029E+01 -0.20361158557E+02  0.30689435301E+02  0.37674367183E+02  0.00000000000E+00 0.  1.
</event>
<event>
 7    1  0.1999542E-015  0.9000781E+02  0.7816164E-02  0.1186339E+00
        -11   -1    0    0    0    0  0.00000000000E+00  0.00000000000E+00  0.45593999997E+02  0.45594000000E+02  0.51100000000E-03 0. -1.
         11   -1    0    0    0    0 -0.00000000000E+00 -0.00000000000E+00 -0.45593999997E+02  0.45594000000E+02  0.51100000000E-03 0.  1.
    9900012    2    1    2    0    0 -0.91830009667E+00  0.50042110215E+00  0.54694776751E+00  0.90007810097E+02  0.90000072390E+02 0.  0.
         12    1    1    2    0    0  0.91830009667E+00 -0.50042110215E+00 -0.54694776751E+00  0.11801899031E+01  0.00000000000E+00 0. -1.
         11    1    3    3    0    0  0.16716623558E+02 -0.57052206310E+01 -0.11276820221E+02  0.20956185726E+02  0.51100000000E-03 0. -1.
        -11    1    3    3    0    0 -0.36706858423E+02 -0.20672625821E+01 -0.10808160784E+02  0.38320795525E+02  0.51100000000E-03 0.  1.
         12    1    3    3    0    0  0.19071934768E+02  0.82729043152E+01  0.22631928773E+02  0.30730828846E+02  0.00000000000E+00 0. -1.
</event>
<event>
 7    1  0.1999542E-015  0.9000782E+02  0.7816164E-02  0.1186339E+00
        -11   -1    0    0    0    0  0.00000000000E+00  0.00000000000E+00  0.45593999997E+02  0.45594000000E+02  0.51100000000E-03 0. -1.
         11   -1    0    0    0    0 -0.00000000000E+00 -0.00000000000E+00 -0.45593999997E+02  0.45594000000E+02  0.51100000000E-03 0.  1.
    9900012    2    1    2    0    0  0.10292766353E+01  0.50011495371E+00 -0.28862168617E+00  0.90007818727E+02  0.90000081134E+02 0.  0.
         12    1    1    2    0    0 -0.10292766353E+01 -0.50011495371E+00  0.28862168617E+00  0.11801812728E+01  0.00000000000E+00 0. -1.
         11    1    3    3    0    0 -0.61999357168E+00  0.92727759762E+01  0.90771324322E+00  0.93377036752E+01  0.51100000000E-03 0. -1.
        -11    1    3    3    0    0  0.75001598058E+01  0.23412733933E+02 -0.28800672657E+02  0.37866703752E+02  0.51100000000E-03 0.  1.
         12    1    3    3    0    0 -0.58508895988E+01 -0.32185394955E+02  0.27604337728E+02  0.42803411300E+02  0.00000000000E+00 0. -1.
</event>
<event>
 7    1  0.1999542E-015  0.9000776E+02  0.7816164E-02  0.1186339E+00
        -11   -1    0    0    0    0  0.00000000000E+00  0.00000000000E+00  0.45593999997E+02  0.45594000000E+02  0.51100000000E-03 0. -1.
         11   -1    0    0    0    0 -0.00000000000E+00 -0.00000000000E+00 -0.45593999997E+02  0.45594000000E+02  0.51100000000E-03 0.  1.
    9900012    2    1    2    0    0  0.32623269214E+00  0.89097331940E+00 -0.70192756233E+00  0.90007761241E+02  0.90000022889E+02 0.  0.
         12    1    1    2    0    0 -0.32623269214E+00 -0.89097331940E+00  0.70192756233E+00  0.11802387589E+01  0.00000000000E+00 0. -1.
         11    1    3    3    0    0 -0.75538878448E+01  0.80799144981E+01  0.34401011992E+00  0.11066371722E+02  0.51100000000E-03 0. -1.
        -11    1    3    3    0    0  0.12768303070E+02 -0.96842310399E+01 -0.38178488487E+02  0.41405445023E+02  0.51100000000E-03 0.  1.
         12    1    3    3    0    0 -0.48881825335E+01  0.24952898612E+01  0.37132550805E+02  0.37535944496E+02  0.00000000000E+00 0. -1.
</event>
<event>
 7    1  0.2009947E-015  0.9000772E+02  0.7816164E-02  0.1186339E+00
        -11   -1    0    0    0    0  0.00000000000E+00  0.00000000000E+00  0.45593999997E+02  0.45594000000E+02  0.51100000000E-03 0.  1.
         11   -1    0    0    0    0 -0.00000000000E+00 -0.00000000000E+00 -0.45593999997E+02  0.45594000000E+02  0.51100000000E-03 0. -1.
    9900012    2    1    2    0    0  0.85778303885E-01  0.11371824580E+01  0.30417296817E+00  0.90007719078E+02  0.89999980170E+02 0.  0.
         12    1    1    2    0    0 -0.85778303885E-01 -0.11371824580E+01 -0.30417296817E+00  0.11802809220E+01  0.00000000000E+00 0. -1.
         11    1    3    3    0    0  0.31647347946E+01 -0.22726965331E+02 -0.28577599987E+02  0.36649825658E+02  0.51100000000E-03 0. -1.
        -11    1    3    3    0    0  0.71120848532E+01 -0.15885554297E+01 -0.56818027215E+01  0.92405704229E+01  0.51100000000E-03 0.  1.
        -12    1    3    3    0    0 -0.10191041344E+02  0.25452703219E+02  0.34563575677E+02  0.44117322997E+02  0.00000000000E+00 0.  1.
</event>
<event>
 7    1  0.1999542E-015  0.9000767E+02  0.7816164E-02  0.1186339E+00
        -11   -1    0    0    0    0  0.00000000000E+00  0.00000000000E+00  0.45593999997E+02  0.45594000000E+02  0.51100000000E-03 0.  1.
         11   -1    0    0    0    0 -0.00000000000E+00 -0.00000000000E+00 -0.45593999997E+02  0.45594000000E+02  0.51100000000E-03 0. -1.
    9900012    2    1    2    0    0 -0.65318265401E-01 -0.23918342134E+00  0.11539905924E+01  0.90007673998E+02  0.89999934494E+02 0.  0.
         12    1    1    2    0    0  0.65318265401E-01  0.23918342134E+00 -0.11539905924E+01  0.11803260025E+01  0.00000000000E+00 0. -1.
         11    1    3    3    0    0 -0.13198164880E+02 -0.51802023837E+01 -0.30728777104E+02  0.33842041834E+02  0.51100000000E-03 0. -1.
        -11    1    3    3    0    0 -0.11867261107E+01 -0.95188773807E+01 -0.72724942861E+01  0.12037712360E+02  0.51100000000E-03 0.  1.
        -12    1    3    3    0    0  0.14319572726E+02  0.14459896343E+02  0.39155261982E+02  0.44127919804E+02  0.00000000000E+00 0.  1.
</event>
<event>
 7    1  0.1999542E-015  0.9000796E+02  0.7816164E-02  0.1186339E+00
        -11   -1    0    0    0    0  0.00000000000E+00  0.00000000000E+00  0.45593999997E+02  0.45594000000E+02  0.51100000000E-03 0.  1.
         11   -1    0    0    0    0 -0.00000000000E+00 -0.00000000000E+00 -0.45593999997E+02  0.45594000000E+02  0.51100000000E-03 0. -1.
    9900012    2    1    2    0    0  0.20630947921E+00  0.38368488336E+00  0.10966875777E+01  0.90007957063E+02  0.90000221296E+02 0.  0.
         12    1    1    2    0    0 -0.20630947921E+00 -0.38368488336E+00 -0.10966875777E+01  0.11800429374E+01  0.00000000000E+00 0. -1.
         11    1    3    3    0    0 -0.21884783529E+02 -0.17383292285E+02 -0.27917383487E+02  0.39503201159E+02  0.51100000000E-03 0. -1.
        -11    1    3    3    0    0 -0.21981344091E+01 -0.63066828492E+01  0.77675965606E+01  0.10244100743E+02  0.51100000000E-03 0.  1.
        -12    1    3    3    0    0  0.24289227417E+02  0.24073660017E+02  0.21246474504E+02  0.40260655161E+02  0.00000000000E+00 0.  1.
</event>
<event>
 7    1  0.1999542E-015  0.9000772E+02  0.7816164E-02  0.1186339E+00
        -11   -1    0    0    0    0  0.00000000000E+00  0.00000000000E+00  0.45593999997E+02  0.45594000000E+02  0.51100000000E-03 0. -1.
         11   -1    0    0    0    0 -0.00000000000E+00 -0.00000000000E+00 -0.45593999997E+02  0.45594000000E+02  0.51100000000E-03 0.  1.
    9900012    2    1    2    0    0  0.92368549619E+00 -0.35685975697E+00 -0.64227278246E+00  0.90007721173E+02  0.89999982293E+02 0.  0.
         12    1    1    2    0    0 -0.92368549619E+00  0.35685975697E+00  0.64227278246E+00  0.11802788268E+01  0.00000000000E+00 0. -1.
         11    1    3    3    0    0 -0.85054233407E+01 -0.38539409975E+01  0.26303608284E+01  0.97012311469E+01  0.51100000000E-03 0. -1.
        -11    1    3    3    0    0 -0.26673820996E+02  0.24410154827E+02  0.81170353693E+01  0.37057180797E+02  0.51100000000E-03 0.  1.
         12    1    3    3    0    0  0.36102929833E+02 -0.20913073586E+02 -0.11389668980E+02  0.43249309229E+02  0.00000000000E+00 0. -1.
</event>
<event>
 7    1  0.1999542E-015  0.9000776E+02  0.7816164E-02  0.1186339E+00
        -11   -1    0    0    0    0  0.00000000000E+00  0.00000000000E+00  0.45593999997E+02  0.45594000000E+02  0.51100000000E-03 0.  1.
         11   -1    0    0    0    0 -0.00000000000E+00 -0.00000000000E+00 -0.45593999997E+02  0.45594000000E+02  0.51100000000E-03 0. -1.
    9900012    2    1    2    0    0  0.22515842897E+00  0.11503016893E+01  0.13808262972E+00  0.90007763961E+02  0.90000025646E+02 0.  0.
         12    1    1    2    0    0 -0.22515842897E+00 -0.11503016893E+01 -0.13808262972E+00  0.11802360388E+01  0.00000000000E+00 0. -1.
         11    1    3    3    0    0 -0.65095422729E+01 -0.45171917802E+01 -0.48393849529E+01  0.92843313796E+01  0.51100000000E-03 0. -1.
        -11    1    3    3    0    0 -0.15374197360E+00 -0.31699209324E+02 -0.17867354779E+02  0.36388265628E+02  0.51100000000E-03 0.  1.
         12    1    3    3    0    0  0.68884426755E+01  0.37366702793E+02  0.22844822361E+02  0.44335166954E+02  0.00000000000E+00 0. -1.
</event>
<event>
 7    1  0.1999542E-015  0.9000768E+02  0.7816164E-02  0.1186339E+00
        -11   -1    0    0    0    0  0.00000000000E+00  0.00000000000E+00  0.45593999997E+02  0.45594000000E+02  0.51100000000E-03 0.  1.
         11   -1    0    0    0    0 -0.00000000000E+00 -0.00000000000E+00 -0.45593999997E+02  0.45594000000E+02  0.51100000000E-03 0. -1.
    9900012    2    1    2    0    0 -0.11511730009E+01  0.56938847434E-01  0.25439647649E+00  0.90007678485E+02  0.89999939041E+02 0.  0.
         12    1    1    2    0    0  0.11511730009E+01 -0.56938847434E-01 -0.25439647649E+00  0.11803215145E+01  0.00000000000E+00 0. -1.
         11    1    3    3    0    0  0.18623402945E+01  0.31171790443E+01  0.57012630521E+01  0.67594021346E+01  0.51100000000E-03 0. -1.
        -11    1    3    3    0    0 -0.43038509139E+01 -0.25533607903E+02  0.31011508362E+02  0.40400518763E+02  0.51100000000E-03 0.  1.
         12    1    3    3    0    0  0.12903376185E+01  0.22473367706E+02 -0.36458374937E+02  0.42847757588E+02  0.00000000000E+00 0. -1.
</event>
<event>
 7    1  0.1999542E-015  0.9000778E+02  0.7816164E-02  0.1186339E+00
        -11   -1    0    0    0    0  0.00000000000E+00  0.00000000000E+00  0.45593999997E+02  0.45594000000E+02  0.51100000000E-03 0. -1.
         11   -1    0    0    0    0 -0.00000000000E+00 -0.00000000000E+00 -0.45593999997E+02  0.45594000000E+02  0.51100000000E-03 0.  1.
    9900012    2    1    2    0    0 -0.28371803398E+00  0.11292761929E+01  0.19277129267E+00  0.90007779083E+02  0.90000040967E+02 0.  0.
         12    1    1    2    0    0  0.28371803398E+00 -0.11292761929E+01 -0.19277129267E+00  0.11802209174E+01  0.00000000000E+00 0. -1.
         11    1    3    3    0    0 -0.71538559600E+01  0.65018126463E+01  0.92894464166E+00  0.97115478268E+01  0.51100000000E-03 0. -1.
        -11    1    3    3    0    0  0.13430736771E+02  0.32833213820E+02 -0.15635082866E+02  0.38766743949E+02  0.51100000000E-03 0.  1.
         12    1    3    3    0    0 -0.65605988448E+01 -0.38205750273E+02  0.14898909517E+02  0.41529487306E+02  0.00000000000E+00 0. -1.
</event>
<event>
 7    1  0.1999542E-015  0.9000757E+02  0.7816164E-02  0.1186339E+00
        -11   -1    0    0    0    0  0.00000000000E+00  0.00000000000E+00  0.45593999997E+02  0.45594000000E+02  0.51100000000E-03 0.  1.
         11   -1    0    0    0    0 -0.00000000000E+00 -0.00000000000E+00 -0.45593999997E+02  0.45594000000E+02  0.51100000000E-03 0. -1.
    9900012    2    1    2    0    0  0.10966464705E+01  0.40621678823E+00 -0.16050727137E+00  0.90007572897E+02  0.89999832060E+02 0.  0.
         12    1    1    2    0    0 -0.10966464705E+01 -0.40621678823E+00  0.16050727137E+00  0.11804271025E+01  0.00000000000E+00 0. -1.
         11    1    3    3    0    0 -0.43588219840E+01 -0.10653167461E+01  0.79421043126E+01  0.91220200630E+01  0.51100000000E-03 0. -1.
        -11    1    3    3    0    0  0.18262649124E+02  0.80105382645E+01  0.32322261461E+02  0.37979226724E+02  0.51100000000E-03 0.  1.
         12    1    3    3    0    0 -0.12807180669E+02 -0.65390047302E+01 -0.40424873045E+02  0.42906326110E+02  0.00000000000E+00 0. -1.
</event>
<event>
 7    1  0.1999542E-015  0.9000764E+02  0.7816164E-02  0.1186339E+00
        -11   -1    0    0    0    0  0.00000000000E+00  0.00000000000E+00  0.45593999997E+02  0.45594000000E+02  0.51100000000E-03 0.  1.
         11   -1    0    0    0    0 -0.00000000000E+00 -0.00000000000E+00 -0.45593999997E+02  0.45594000000E+02  0.51100000000E-03 0. -1.
    9900012    2    1    2    0    0  0.65980144800E+00  0.76067835157E+00  0.61584887156E+00  0.90007644402E+02  0.89999904508E+02 0.  0.
         12    1    1    2    0    0 -0.65980144800E+00 -0.76067835157E+00 -0.61584887156E+00  0.11803555981E+01  0.00000000000E+00 0. -1.
         11    1    3    3    0    0 -0.74709458916E+01  0.76306333991E+01 -0.76466169912E+01  0.13134395694E+02  0.51100000000E-03 0. -1.
        -11    1    3    3    0    0  0.25486610287E+02  0.21022010434E+02  0.23616997552E+02  0.40611018212E+02  0.51100000000E-03 0.  1.
         12    1    3    3    0    0 -0.17355862948E+02 -0.27891965482E+02 -0.15354531689E+02  0.36262230495E+02  0.00000000000E+00 0. -1.
</event>
<event>
 7    1  0.1999542E-015  0.9000774E+02  0.7816164E-02  0.1186339E+00
        -11   -1    0    0    0    0  0.00000000000E+00  0.00000000000E+00  0.45593999997E+02  0.45594000000E+02  0.51100000000E-03 0. -1.
         11   -1    0    0    0    0 -0.00000000000E+00 -0.00000000000E+00 -0.45593999997E+02  0.45594000000E+02  0.51100000000E-03 0.  1.
    9900012    2    1    2    0    0  0.66469227920E+00  0.32255082788E-01 -0.97476276878E+00  0.90007737880E+02  0.89999999220E+02 0.  0.
         12    1    1    2    0    0 -0.66469227920E+00 -0.32255082788E-01  0.97476276878E+00  0.11802621200E+01  0.00000000000E+00 0. -1.
         11    1    3    3    0    0  0.18098988085E+01 -0.10175655657E+02  0.36273863614E+01  0.10953430230E+02  0.51100000000E-03 0. -1.
        -11    1    3    3    0    0 -0.16048019402E+01 -0.18595464956E+02 -0.33438095186E+02  0.38294554654E+02  0.51100000000E-03 0.  1.
         12    1    3    3    0    0  0.45959541091E+00  0.28803375695E+02  0.28835946056E+02  0.40759752996E+02  0.00000000000E+00 0. -1.
</event>
<event>
 7    1  0.1999542E-015  0.9000735E+02  0.7816164E-02  0.1186340E+00
        -11   -1    0    0    0    0  0.00000000000E+00  0.00000000000E+00  0.45593999997E+02  0.45594000000E+02  0.51100000000E-03 0. -1.
         11   -1    0    0    0    0 -0.00000000000E+00 -0.00000000000E+00 -0.45593999997E+02  0.45594000000E+02  0.51100000000E-03 0.  1.
    9900012    2    1    2    0    0  0.10821263250E+01 -0.17670093539E+00  0.43784902404E+00  0.90007350869E+02  0.89999607099E+02 0.  0.
         12    1    1    2    0    0 -0.10821263250E+01  0.17670093539E+00 -0.43784902404E+00  0.11806491315E+01  0.00000000000E+00 0. -1.
         11    1    3    3    0    0  0.65469936923E+01  0.85586564310E+01  0.21912968513E+01  0.10996158805E+02  0.51100000000E-03 0. -1.
        -11    1    3    3    0    0  0.31987768136E+02  0.78812069994E+01 -0.14651893184E+02  0.36055633516E+02  0.51100000000E-03 0.  1.
         12    1    3    3    0    0 -0.37452635504E+02 -0.16616564366E+02  0.12898445357E+02  0.42955558547E+02  0.00000000000E+00 0. -1.
</event>
<event>
 7    1  0.1999542E-015  0.9000771E+02  0.7816164E-02  0.1186339E+00
        -11   -1    0    0    0    0  0.00000000000E+00  0.00000000000E+00  0.45593999997E+02  0.45594000000E+02  0.51100000000E-03 0. -1.
         11   -1    0    0    0    0 -0.00000000000E+00 -0.00000000000E+00 -0.45593999997E+02  0.45594000000E+02  0.51100000000E-03 0.  1.
    9900012    2    1    2    0    0 -0.15740252157E+00 -0.96056320602E+00 -0.66755466816E+00  0.90007709162E+02  0.89999970123E+02 0.  0.
         12    1    1    2    0    0  0.15740252157E+00  0.96056320602E+00  0.66755466816E+00  0.11802908377E+01  0.00000000000E+00 0. -1.
         11    1    3    3    0    0 -0.17976913909E+02  0.20173331134E+02 -0.25401258086E+02  0.37085800994E+02  0.51100000000E-03 0. -1.
        -11    1    3    3    0    0  0.24473918021E+01  0.31879772662E+01 -0.82351032779E+01  0.91635065309E+01  0.51100000000E-03 0.  1.
        -12    1    3    3    0    0  0.15372119586E+02 -0.24321871606E+02  0.32968806695E+02  0.43758401638E+02  0.00000000000E+00 0.  1.
</event>
<event>
 7    1  0.1999542E-015  0.9000798E+02  0.7816164E-02  0.1186339E+00
        -11   -1    0    0    0    0  0.00000000000E+00  0.00000000000E+00  0.45593999997E+02  0.45594000000E+02  0.51100000000E-03 0.  1.
         11   -1    0    0    0    0 -0.00000000000E+00 -0.00000000000E+00 -0.45593999997E+02  0.45594000000E+02  0.51100000000E-03 0. -1.
    9900012    2    1    2    0    0  0.66367374039E+00 -0.66113927503E+00  0.71754533373E+00  0.90007983356E+02  0.90000247936E+02 0.  0.
         12    1    1    2    0    0 -0.66367374039E+00  0.66113927503E+00 -0.71754533373E+00  0.11800166442E+01  0.00000000000E+00 0. -1.
         11    1    3    3    0    0 -0.18545344166E+02 -0.22114968175E+02 -0.23952704427E+02  0.37506448209E+02  0.51100000000E-03 0. -1.
        -11    1    3    3    0    0 -0.10099476286E+02  0.52591501800E+01  0.87023485004E+00  0.11419955815E+02  0.51100000000E-03 0.  1.
        -12    1    3    3    0    0  0.29308494192E+02  0.16194678720E+02  0.23800014911E+02  0.41081579332E+02  0.00000000000E+00 0.  1.
</event>
<event>
 7    1  0.1999542E-015  0.9000713E+02  0.7816164E-02  0.1186340E+00
        -11   -1    0    0    0    0  0.00000000000E+00  0.00000000000E+00  0.45593999997E+02  0.45594000000E+02  0.51100000000E-03 0. -1.
         11   -1    0    0    0    0 -0.00000000000E+00 -0.00000000000E+00 -0.45593999997E+02  0.45594000000E+02  0.51100000000E-03 0.  1.
    9900012    2    1    2    0    0  0.11539958607E+01  0.22038588056E+00 -0.11910773333E+00  0.90007126156E+02  0.89999379419E+02 0.  0.
         12    1    1    2    0    0 -0.11539958607E+01 -0.22038588056E+00  0.11910773333E+00  0.11808738438E+01  0.00000000000E+00 0. -1.
         11    1    3    3    0    0 -0.15319893389E+02  0.23031382221E+02  0.25736069225E+02  0.37782124872E+02  0.51100000000E-03 0. -1.
        -11    1    3    3    0    0 -0.74896438275E+01 -0.19663931810E+01  0.39294054250E+01  0.86834148847E+01  0.51100000000E-03 0.  1.
        -12    1    3    3    0    0  0.23963533077E+02 -0.20844603159E+02 -0.29784582384E+02  0.43541586399E+02  0.00000000000E+00 0.  1.
</event>
<event>
 7    1  0.1999542E-015  0.9000784E+02  0.7816164E-02  0.1186339E+00
        -11   -1    0    0    0    0  0.00000000000E+00  0.00000000000E+00  0.45593999997E+02  0.45594000000E+02  0.51100000000E-03 0. -1.
         11   -1    0    0    0    0 -0.00000000000E+00 -0.00000000000E+00 -0.45593999997E+02  0.45594000000E+02  0.51100000000E-03 0.  1.
    9900012    2    1    2    0    0  0.38758190099E+00 -0.24763267218E+00 -0.10868464291E+01  0.90007840337E+02  0.90000103029E+02 0.  0.
         12    1    1    2    0    0 -0.38758190099E+00  0.24763267218E+00  0.10868464291E+01  0.11801596632E+01  0.00000000000E+00 0. -1.
         11    1    3    3    0    0 -0.22228647502E+01 -0.20615886678E+02  0.99375055792E+01  0.22993693236E+02  0.51100000000E-03 0. -1.
        -11    1    3    3    0    0 -0.15830875439E+02 -0.16293629452E+02 -0.12537029045E+02  0.25947563959E+02  0.51100000000E-03 0.  1.
        -12    1    3    3    0    0  0.18441322090E+02  0.36661883458E+02  0.15126770363E+01  0.41066583142E+02  0.00000000000E+00 0.  1.
</event>
<event>
 7    1  0.1999542E-015  0.9000770E+02  0.7816164E-02  0.1186339E+00
        -11   -1    0    0    0    0  0.00000000000E+00  0.00000000000E+00  0.45593999997E+02  0.45594000000E+02  0.51100000000E-03 0. -1.
         11   -1    0    0    0    0 -0.00000000000E+00 -0.00000000000E+00 -0.45593999997E+02  0.45594000000E+02  0.51100000000E-03 0.  1.
    9900012    2    1    2    0    0  0.41323222382E+00  0.72299870957E+00 -0.83643014002E+00  0.90007701994E+02  0.89999962860E+02 0.  0.
         12    1    1    2    0    0 -0.41323222382E+00 -0.72299870957E+00  0.83643014002E+00  0.11802980064E+01  0.00000000000E+00 0. -1.
         11    1    3    3    0    0  0.48553948597E+01 -0.26366907494E+01  0.14947205104E+02  0.15935681285E+02  0.51100000000E-03 0. -1.
        -11    1    3    3    0    0  0.27403706520E+02  0.25742843379E+01 -0.28638132754E+02  0.39720683765E+02  0.51100000000E-03 0.  1.
         12    1    3    3    0    0 -0.31845869156E+02  0.78540512101E+00  0.12854497510E+02  0.34351336943E+02  0.00000000000E+00 0. -1.
</event>
<event>
 7    1  0.1999542E-015  0.9000781E+02  0.7816164E-02  0.1186339E+00
        -11   -1    0    0    0    0  0.00000000000E+00  0.00000000000E+00  0.45593999997E+02  0.45594000000E+02  0.51100000000E-03 0.  1.
         11   -1    0    0    0    0 -0.00000000000E+00 -0.00000000000E+00 -0.45593999997E+02  0.45594000000E+02  0.51100000000E-03 0. -1.
    9900012    2    1    2    0    0  0.11556739238E+01 -0.14988628060E+00 -0.18657365826E+00  0.90007806014E+02  0.90000068253E+02 0.  0.
         12    1    1    2    0    0 -0.11556739238E+01  0.14988628060E+00  0.18657365826E+00  0.11801939863E+01  0.00000000000E+00 0. -1.
         11    1    3    3    0    0  0.10006818328E+02 -0.32583978183E+02  0.23673443647E+02  0.41500409415E+02  0.51100000000E-03 0. -1.
        -11    1    3    3    0    0  0.80875834636E+01  0.10182311785E+02 -0.23212905434E+01  0.13208969286E+02  0.51100000000E-03 0.  1.
        -12    1    3    3    0    0 -0.16938727868E+02  0.22251780118E+02 -0.21538726762E+02  0.35298427312E+02  0.00000000000E+00 0.  1.
</event>
<event>
 7    1  0.1999542E-015  0.9000759E+02  0.7816164E-02  0.1186339E+00
        -11   -1    0    0    0    0  0.00000000000E+00  0.00000000000E+00  0.45593999997E+02  0.45594000000E+02  0.51100000000E-03 0. -1.
         11   -1    0    0    0    0 -0.00000000000E+00 -0.00000000000E+00 -0.45593999997E+02  0.45594000000E+02  0.51100000000E-03 0.  1.
    9900012    2    1    2    0    0 -0.51735122219E+00  0.63443341303E+00 -0.85041641628E+00  0.90007590697E+02  0.89999850094E+02 0.  0.
         12    1    1    2    0    0  0.51735122219E+00 -0.63443341303E+00  0.85041641628E+00  0.11804093035E+01  0.00000000000E+00 0. -1.
         11    1    3    3    0    0 -0.46242510140E+01 -0.88227691487E+01 -0.28100199471E+01  0.10349935519E+02  0.51100000000E-03 0. -1.
        -11    1    3    3    0    0  0.16553173235E+02 -0.63660063866E+00 -0.35357305800E+02  0.39045510347E+02  0.51100000000E-03 0.  1.
         12    1    3    3    0    0 -0.12446273443E+02  0.10093803200E+02  0.37316909331E+02  0.40612144830E+02  0.00000000000E+00 0. -1.
</event>
<event>
 7    1  0.1999542E-015  0.9000886E+02  0.7816164E-02  0.1186337E+00
        -11   -1    0    0    0    0  0.00000000000E+00  0.00000000000E+00  0.45593999997E+02  0.45594000000E+02  0.51100000000E-03 0. -1.
         11   -1    0    0    0    0 -0.00000000000E+00 -0.00000000000E+00 -0.45593999997E+02  0.45594000000E+02  0.51100000000E-03 0.  1.
    9900012    2    1    2    0    0 -0.63315849463E+00  0.80887573062E-01 -0.99143216095E+00  0.90008860395E+02  0.90001136545E+02 0.  0.
         12    1    1    2    0    0  0.63315849463E+00 -0.80887573062E-01  0.99143216095E+00  0.11791396052E+01  0.00000000000E+00 0. -1.
         11    1    3    3    0    0  0.33540320648E+00 -0.83458210051E+00 -0.65056847945E+01  0.65675686141E+01  0.51100000000E-03 0. -1.
        -11    1    3    3    0    0  0.49374469578E+01 -0.39933177892E+02 -0.57804998493E+01  0.40650353723E+02  0.51100000000E-03 0.  1.
         12    1    3    3    0    0 -0.59060086589E+01  0.40848647566E+02  0.11294752483E+02  0.42790938058E+02  0.00000000000E+00 0. -1.
</event>
<event>
 7    1  0.1999542E-015  0.9000811E+02  0.7816164E-02  0.1186338E+00
        -11   -1    0    0    0    0  0.00000000000E+00  0.00000000000E+00  0.45593999997E+02  0.45594000000E+02  0.51100000000E-03 0.  1.
         11   -1    0    0    0    0 -0.00000000000E+00 -0.00000000000E+00 -0.45593999997E+02  0.45594000000E+02  0.51100000000E-03 0. -1.
    9900012    2    1    2    0    0  0.61661108376E+00  0.69520759061E+00  0.72705381252E+00  0.90008114383E+02  0.90000380692E+02 0.  0.
         12    1    1    2    0    0 -0.61661108376E+00 -0.69520759061E+00 -0.72705381252E+00  0.11798856169E+01  0.00000000000E+00 0. -1.
         11    1    3    3    0    0 -0.80165314126E+01 -0.28908436078E+01 -0.42282754384E+01  0.95131522692E+01  0.51100000000E-03 0. -1.
        -11    1    3    3    0    0 -0.22176003988E+02 -0.28316227471E+02  0.32266785015E+01  0.36110875723E+02  0.51100000000E-03 0.  1.
         12    1    3    3    0    0  0.30809146484E+02  0.31902278669E+02  0.17286507494E+01  0.44384086391E+02  0.00000000000E+00 0. -1.
</event>
<event>
 7    1  0.1999542E-015  0.9000779E+02  0.7816164E-02  0.1186339E+00
        -11   -1    0    0    0    0  0.00000000000E+00  0.00000000000E+00  0.45593999997E+02  0.45594000000E+02  0.51100000000E-03 0.  1.
         11   -1    0    0    0    0 -0.00000000000E+00 -0.00000000000E+00 -0.45593999997E+02  0.45594000000E+02  0.51100000000E-03 0. -1.
    9900012    2    1    2    0    0 -0.10122696171E+01 -0.19838052203E+00  0.57345436873E+00  0.90007790475E+02  0.90000052510E+02 0.  0.
         12    1    1    2    0    0  0.10122696171E+01  0.19838052203E+00 -0.57345436873E+00  0.11802095247E+01  0.00000000000E+00 0. -1.
         11    1    3    3    0    0 -0.31832991285E+00  0.33857423054E+01  0.74045066991E+01  0.81480859476E+01  0.51100000000E-03 0. -1.
        -11    1    3    3    0    0 -0.17918894947E+02  0.28531984040E+02  0.17573063826E+02  0.37999651076E+02  0.51100000000E-03 0.  1.
         12    1    3    3    0    0  0.17224955243E+02 -0.32116106867E+02 -0.24404116157E+02  0.43860053452E+02  0.00000000000E+00 0. -1.
</event>
<event>
 7    1  0.1999542E-015  0.9000773E+02  0.7816164E-02  0.1186339E+00
        -11   -1    0    0    0    0  0.00000000000E+00  0.00000000000E+00  0.45593999997E+02  0.45594000000E+02  0.51100000000E-03 0. -1.
         11   -1    0    0    0    0 -0.00000000000E+00 -0.00000000000E+00 -0.45593999997E+02  0.45594000000E+02  0.51100000000E-03 0.  1.
    9900012    2    1    2    0    0  0.70271710258E+00  0.10315288022E+00 -0.94264405247E+00  0.90007733228E+02  0.89999994507E+02 0.  0.
         12    1    1    2    0    0 -0.70271710258E+00 -0.10315288022E+00  0.94264405247E+00  0.11802667718E+01  0.00000000000E+00 0. -1.
         11    1    3    3    0    0  0.14219745537E+02 -0.14719162216E+02  0.32173022288E+02  0.38130804645E+02  0.51100000000E-03 0. -1.
        -11    1    3    3    0    0  0.77084221058E+01  0.19978812291E+01  0.26168863701E+01  0.83820877651E+01  0.51100000000E-03 0.  1.
        -12    1    3    3    0    0 -0.21225450540E+02  0.12824433867E+02 -0.35732552710E+02  0.43494840818E+02  0.00000000000E+00 0.  1.
</event>
<event>
 7    1  0.1999542E-015  0.9000747E+02  0.7816164E-02  0.1186340E+00
        -11   -1    0    0    0    0  0.00000000000E+00  0.00000000000E+00  0.45593999997E+02  0.45594000000E+02  0.51100000000E-03 0. -1.
         11   -1    0    0    0    0 -0.00000000000E+00 -0.00000000000E+00 -0.45593999997E+02  0.45594000000E+02  0.51100000000E-03 0.  1.
    9900012    2    1    2    0    0  0.58425422447E+00  0.68766808259E+00 -0.76119776497E+00  0.90007465194E+02  0.89999722934E+02 0.  0.
         12    1    1    2    0    0 -0.58425422447E+00 -0.68766808259E+00  0.76119776497E+00  0.11805348059E+01  0.00000000000E+00 0. -1.
         11    1    3    3    0    0  0.98644555955E+01  0.76771739901E+00 -0.81653973346E+00  0.99279208094E+01  0.51100000000E-03 0. -1.
        -11    1    3    3    0    0  0.10478208230E+02  0.16376383847E+02 -0.32938935846E+02  0.38248559327E+02  0.51100000000E-03 0.  1.
         12    1    3    3    0    0 -0.19758409601E+02 -0.16456433164E+02  0.32994277814E+02  0.41830985058E+02  0.00000000000E+00 0. -1.
</event>
<event>
 7    1  0.1999542E-015  0.9000773E+02  0.7816164E-02  0.1186339E+00
        -11   -1    0    0    0    0  0.00000000000E+00  0.00000000000E+00  0.45593999997E+02  0.45594000000E+02  0.51100000000E-03 0.  1.
         11   -1    0    0    0    0 -0.00000000000E+00 -0.00000000000E+00 -0.45593999997E+02  0.45594000000E+02  0.51100000000E-03 0. -1.
    9900012    2    1    2    0    0 -0.43967310821E+00  0.10501866017E+01 -0.31117380599E+00  0.90007731608E+02  0.89999992865E+02 0.  0.
         12    1    1    2    0    0  0.43967310821E+00 -0.10501866017E+01  0.31117380599E+00  0.11802683924E+01  0.00000000000E+00 0. -1.
         11    1    3    3    0    0  0.11409710126E+02  0.11394170790E+01 -0.29876086612E+02  0.32000942298E+02  0.51100000000E-03 0. -1.
        -11    1    3    3    0    0 -0.29815147809E+02 -0.35455169702E+01  0.11094842956E+02  0.32009518427E+02  0.51100000000E-03 0.  1.
         12    1    3    3    0    0  0.17965764575E+02  0.34562864928E+01  0.18470069850E+02  0.25997270883E+02  0.00000000000E+00 0. -1.
</event>
<event>
 7    1  0.1999542E-015  0.9000780E+02  0.7816164E-02  0.1186339E+00
        -11   -1    0    0    0    0  0.00000000000E+00  0.00000000000E+00  0.45593999997E+02  0.45594000000E+02  0.51100000000E-03 0.  1.
         11   -1    0    0    0    0 -0.00000000000E+00 -0.00000000000E+00 -0.45593999997E+02  0.45594000000E+02  0.51100000000E-03 0. -1.
    9900012    2    1    2    0    0 -0.30708773423E+00  0.11180988450E+01  0.22004878463E+00  0.90007801131E+02  0.90000063305E+02 0.  0.
         12    1    1    2    0    0  0.30708773423E+00 -0.11180988450E+01 -0.22004878463E+00  0.11801988694E+01  0.00000000000E+00 0. -1.
         11    1    3    3    0    0  0.13323212654E+02  0.66584540967E+01 -0.39557872546E+01  0.15410751424E+02  0.51100000000E-03 0. -1.
        -11    1    3    3    0    0  0.79921988640E+01 -0.26513838754E+01  0.35466717633E+02  0.36452614983E+02  0.51100000000E-03 0.  1.
         12    1    3    3    0    0 -0.21622499252E+02 -0.28889713763E+01 -0.31290881594E+02  0.38144434724E+02  0.00000000000E+00 0. -1.
</event>
<event>
 7    1  0.1999542E-015  0.9000771E+02  0.7816164E-02  0.1186339E+00
        -11   -1    0    0    0    0  0.00000000000E+00  0.00000000000E+00  0.45593999997E+02  0.45594000000E+02  0.51100000000E-03 0.  1.
         11   -1    0    0    0    0 -0.00000000000E+00 -0.00000000000E+00 -0.45593999997E+02  0.45594000000E+02  0.51100000000E-03 0. -1.
    9900012    2    1    2    0    0 -0.31649132602E-01  0.72703598056E+00 -0.92924812147E+00  0.90007709758E+02  0.89999970727E+02 0.  0.
         12    1    1    2    0    0  0.31649132602E-01 -0.72703598056E+00  0.92924812147E+00  0.11802902422E+01  0.00000000000E+00 0. -1.
         11    1    3    3    0    0  0.88930159313E+01  0.25436295740E+01  0.36352671685E+01  0.99383575812E+01  0.51100000000E-03 0. -1.
        -11    1    3    3    0    0 -0.80653615961E+01  0.19990111662E+02  0.31349022652E+02  0.38044918759E+02  0.51100000000E-03 0.  1.
         12    1    3    3    0    0 -0.85930346775E+00 -0.21806705255E+02 -0.35913537942E+02  0.42024433417E+02  0.00000000000E+00 0. -1.
</event>
<event>
 7    1  0.1999542E-015  0.9000771E+02  0.7816164E-02  0.1186339E+00
        -11   -1    0    0    0    0  0.00000000000E+00  0.00000000000E+00  0.45593999997E+02  0.45594000000E+02  0.51100000000E-03 0.  1.
         11   -1    0    0    0    0 -0.00000000000E+00 -0.00000000000E+00 -0.45593999997E+02  0.45594000000E+02  0.51100000000E-03 0. -1.
    9900012    2    1    2    0    0  0.42237872160E+00  0.13376172912E+00  0.10939796788E+01  0.90007708713E+02  0.89999969668E+02 0.  0.
         12    1    1    2    0    0 -0.42237872160E+00 -0.13376172912E+00 -0.10939796788E+01  0.11802912871E+01  0.00000000000E+00 0. -1.
         11    1    3    3    0    0 -0.72044551731E+01  0.39473446878E+02 -0.12469769776E+02  0.42018476189E+02  0.51100000000E-03 0. -1.
        -11    1    3    3    0    0 -0.57870335655E+01 -0.74481281018E+01  0.90972818665E+01  0.13104385042E+02  0.51100000000E-03 0.  1.
        -12    1    3    3    0    0  0.13413867460E+02 -0.31891557047E+02  0.44664675885E+01  0.34884847482E+02  0.00000000000E+00 0.  1.
</event>
<event>
 7    1  0.1999542E-015  0.9000772E+02  0.7816164E-02  0.1186339E+00
        -11   -1    0    0    0    0  0.00000000000E+00  0.00000000000E+00  0.45593999997E+02  0.45594000000E+02  0.51100000000E-03 0. -1.
         11   -1    0    0    0    0 -0.00000000000E+00 -0.00000000000E+00 -0.45593999997E+02  0.45594000000E+02  0.51100000000E-03 0.  1.
    9900012    2    1    2    0    0 -0.93851998665E+00  0.60045132676E+00 -0.38947169559E+00  0.90007724709E+02  0.89999985875E+02 0.  0.
         12    1    1    2    0    0  0.93851998665E+00 -0.60045132676E+00  0.38947169559E+00  0.11802752911E+01  0.00000000000E+00 0. -1.
         11    1    3    3    0    0  0.56804649473E+00  0.75843010189E+01 -0.46071030479E+01  0.88921143448E+01  0.51100000000E-03 0. -1.
        -11    1    3    3    0    0 -0.38170317289E+02 -0.28244985279E+01 -0.12966628299E+02  0.40411438524E+02  0.51100000000E-03 0.  1.
         12    1    3    3    0    0  0.36663750808E+02 -0.41593511643E+01  0.17184259651E+02  0.40704171840E+02  0.00000000000E+00 0. -1.
</event>
<event>
 7    1  0.1999542E-015  0.9000774E+02  0.7816164E-02  0.1186339E+00
        -11   -1    0    0    0    0  0.00000000000E+00  0.00000000000E+00  0.45593999997E+02  0.45594000000E+02  0.51100000000E-03 0. -1.
         11   -1    0    0    0    0 -0.00000000000E+00 -0.00000000000E+00 -0.45593999997E+02  0.45594000000E+02  0.51100000000E-03 0.  1.
    9900012    2    1    2    0    0 -0.55567372192E-01 -0.48318909392E+00 -0.10753854561E+01  0.90007740150E+02  0.90000001520E+02 0.  0.
         12    1    1    2    0    0  0.55567372192E-01  0.48318909392E+00  0.10753854561E+01  0.11802598496E+01  0.00000000000E+00 0. -1.
         11    1    3    3    0    0  0.29123480224E+01  0.26396730239E+01 -0.23102795088E+01  0.45592802443E+01  0.51100000000E-03 0. -1.
        -11    1    3    3    0    0 -0.13626889750E+02  0.35861443461E+02 -0.15930073100E+02  0.41539168029E+02  0.51100000000E-03 0.  1.
         12    1    3    3    0    0  0.10658974356E+02 -0.38984305578E+02  0.17164967153E+02  0.43909291877E+02  0.00000000000E+00 0. -1.
</event>
<event>
 7    1  0.1999542E-015  0.9000778E+02  0.7816164E-02  0.1186339E+00
        -11   -1    0    0    0    0  0.00000000000E+00  0.00000000000E+00  0.45593999997E+02  0.45594000000E+02  0.51100000000E-03 0. -1.
         11   -1    0    0    0    0 -0.00000000000E+00 -0.00000000000E+00 -0.45593999997E+02  0.45594000000E+02  0.51100000000E-03 0.  1.
    9900012    2    1    2    0    0 -0.87963484503E+00 -0.44836174504E+00 -0.64663744619E+00  0.90007777266E+02  0.90000039126E+02 0.  0.
         12    1    1    2    0    0  0.87963484503E+00  0.44836174504E+00  0.64663744619E+00  0.11802227340E+01  0.00000000000E+00 0. -1.
         11    1    3    3    0    0  0.21202083225E+02 -0.32116034803E+02 -0.82493934243E+01  0.39357597954E+02  0.51100000000E-03 0. -1.
        -11    1    3    3    0    0 -0.90929863080E+01 -0.50901743504E+01 -0.17301248567E+01  0.10563408881E+02  0.51100000000E-03 0.  1.
        -12    1    3    3    0    0 -0.12988731763E+02  0.36757847408E+02  0.93328808349E+01  0.40086770431E+02  0.00000000000E+00 0.  1.
</event>
<event>
 7    1  0.1999542E-015  0.9000769E+02  0.7816164E-02  0.1186339E+00
        -11   -1    0    0    0    0  0.00000000000E+00  0.00000000000E+00  0.45593999997E+02  0.45594000000E+02  0.51100000000E-03 0. -1.
         11   -1    0    0    0    0 -0.00000000000E+00 -0.00000000000E+00 -0.45593999997E+02  0.45594000000E+02  0.51100000000E-03 0.  1.
    9900012    2    1    2    0    0 -0.83684454759E+00 -0.34014488922E+00  0.75968463265E+00  0.90007691530E+02  0.89999952259E+02 0.  0.
         12    1    1    2    0    0  0.83684454759E+00  0.34014488922E+00 -0.75968463265E+00  0.11803084697E+01  0.00000000000E+00 0. -1.
         11    1    3    3    0    0  0.27457135702E+02  0.82962990181E+01 -0.22367089671E+02  0.36373198635E+02  0.51100000000E-03 0. -1.
        -11    1    3    3    0    0  0.37189594967E+01 -0.10842358471E+01 -0.76591141161E+01  0.85830214037E+01  0.51100000000E-03 0.  1.
        -12    1    3    3    0    0 -0.32012939746E+02 -0.75522080601E+01  0.30785888420E+02  0.45051471492E+02  0.00000000000E+00 0.  1.
</event>
<event>
 7    1  0.1999542E-015  0.9000765E+02  0.7816164E-02  0.1186339E+00
        -11   -1    0    0    0    0  0.00000000000E+00  0.00000000000E+00  0.45593999997E+02  0.45594000000E+02  0.51100000000E-03 0.  1.
         11   -1    0    0    0    0 -0.00000000000E+00 -0.00000000000E+00 -0.45593999997E+02  0.45594000000E+02  0.51100000000E-03 0. -1.
    9900012    2    1    2    0    0 -0.61949136053E+00  0.26513225999E+00  0.96909827789E+00  0.90007654231E+02  0.89999914467E+02 0.  0.
         12    1    1    2    0    0  0.61949136053E+00 -0.26513225999E+00 -0.96909827789E+00  0.11803457685E+01  0.00000000000E+00 0. -1.
         11    1    3    3    0    0  0.30339859341E+02  0.18032178752E+02  0.97501420892E+01  0.36616004785E+02  0.51100000000E-03 0. -1.
        -11    1    3    3    0    0  0.73951337834E+01  0.30169458195E+01 -0.53915227689E+01  0.96363106935E+01  0.51100000000E-03 0.  1.
        -12    1    3    3    0    0 -0.38354484485E+02 -0.20783992311E+02 -0.33895210424E+01  0.43755338753E+02  0.00000000000E+00 0.  1.
</event>
<event>
 7    1  0.1999542E-015  0.9000778E+02  0.7816164E-02  0.1186339E+00
        -11   -1    0    0    0    0  0.00000000000E+00  0.00000000000E+00  0.45593999997E+02  0.45594000000E+02  0.51100000000E-03 0.  1.
         11   -1    0    0    0    0 -0.00000000000E+00 -0.00000000000E+00 -0.45593999997E+02  0.45594000000E+02  0.51100000000E-03 0. -1.
    9900012    2    1    2    0    0  0.11366404053E+01  0.31691886300E+00  0.22996287941E-01  0.90007780611E+02  0.90000042515E+02 0.  0.
         12    1    1    2    0    0 -0.11366404053E+01 -0.31691886300E+00 -0.22996287941E-01  0.11802193889E+01  0.00000000000E+00 0. -1.
         11    1    3    3    0    0  0.38445284604E+01  0.86095039589E+01  0.18972156293E+01  0.96178680021E+01  0.51100000000E-03 0. -1.
        -11    1    3    3    0    0 -0.81860420674E+01  0.23319858019E+02  0.27441102761E+02  0.36930220467E+02  0.51100000000E-03 0.  1.
         12    1    3    3    0    0  0.54781540123E+01 -0.31612443115E+02 -0.29315322103E+02  0.43459692142E+02  0.00000000000E+00 0. -1.
</event>
<event>
 7    1  0.1999542E-015  0.9000781E+02  0.7816164E-02  0.1186339E+00
        -11   -1    0    0    0    0  0.00000000000E+00  0.00000000000E+00  0.45593999997E+02  0.45594000000E+02  0.51100000000E-03 0.  1.
         11   -1    0    0    0    0 -0.00000000000E+00 -0.00000000000E+00 -0.45593999997E+02  0.45594000000E+02  0.51100000000E-03 0. -1.
    9900012    2    1    2    0    0 -0.11598554779E+01 -0.47920105289E-01  0.21278189337E+00  0.90007814760E+02  0.90000077115E+02 0.  0.
         12    1    1    2    0    0  0.11598554779E+01  0.47920105289E-01 -0.21278189337E+00  0.11801852398E+01  0.00000000000E+00 0. -1.
         11    1    3    3    0    0  0.11444170643E+01  0.68240357522E+01  0.32563808243E+01  0.76472982613E+01  0.51100000000E-03 0. -1.
        -11    1    3    3    0    0  0.34228887500E+02  0.10647377283E+02 -0.16778614305E+02  0.39579101566E+02  0.51100000000E-03 0.  1.
         12    1    3    3    0    0 -0.36533160042E+02 -0.17519333141E+02  0.13735015374E+02  0.42781414933E+02  0.00000000000E+00 0. -1.
</event>
<event>
 7    1  0.1999542E-015  0.9000774E+02  0.7816164E-02  0.1186339E+00
        -11   -1    0    0    0    0  0.00000000000E+00  0.00000000000E+00  0.45593999997E+02  0.45594000000E+02  0.51100000000E-03 0. -1.
         11   -1    0    0    0    0 -0.00000000000E+00 -0.00000000000E+00 -0.45593999997E+02  0.45594000000E+02  0.51100000000E-03 0.  1.
    9900012    2    1    2    0    0 -0.11292698942E+01 -0.10053399350E+00 -0.32812737770E+00  0.90007735134E+02  0.89999996438E+02 0.  0.
         12    1    1    2    0    0  0.11292698942E+01  0.10053399350E+00  0.32812737770E+00  0.11802648659E+01  0.00000000000E+00 0. -1.
         11    1    3    3    0    0 -0.27963323673E+01  0.71729728934E+01 -0.46576652658E+01  0.89980476120E+01  0.51100000000E-03 0. -1.
        -11    1    3    3    0    0 -0.34301871448E+02  0.84516490707E+01 -0.13597086129E+02  0.37854055375E+02  0.51100000000E-03 0.  1.
         12    1    3    3    0    0  0.35968933921E+02 -0.15725155958E+02  0.17926624018E+02  0.43155632147E+02  0.00000000000E+00 0. -1.
</event>
<event>
 7    1  0.1999542E-015  0.9000773E+02  0.7816164E-02  0.1186339E+00
        -11   -1    0    0    0    0  0.00000000000E+00  0.00000000000E+00  0.45593999997E+02  0.45594000000E+02  0.51100000000E-03 0.  1.
         11   -1    0    0    0    0 -0.00000000000E+00 -0.00000000000E+00 -0.45593999997E+02  0.45594000000E+02  0.51100000000E-03 0. -1.
    9900012    2    1    2    0    0  0.59798962647E+00 -0.45318830545E+00 -0.91107850962E+00  0.90007730842E+02  0.89999992090E+02 0.  0.
         12    1    1    2    0    0 -0.59798962647E+00  0.45318830545E+00  0.91107850962E+00  0.11802691575E+01  0.00000000000E+00 0. -1.
         11    1    3    3    0    0 -0.83194080016E+01 -0.66387416536E+01 -0.46606889138E+01  0.11619271133E+02  0.51100000000E-03 0. -1.
        -11    1    3    3    0    0  0.10460409854E+02 -0.35085341601E+02 -0.21244994657E+01  0.36673080970E+02  0.51100000000E-03 0.  1.
         12    1    3    3    0    0 -0.15430122256E+01  0.41270894949E+02  0.58741098699E+01  0.41715378740E+02  0.00000000000E+00 0. -1.
</event>
<event>
 7    1  0.1999542E-015  0.9000751E+02  0.7816164E-02  0.1186340E+00
        -11   -1    0    0    0    0  0.00000000000E+00  0.00000000000E+00  0.45593999997E+02  0.45594000000E+02  0.51100000000E-03 0.  1.
         11   -1    0    0    0    0 -0.00000000000E+00 -0.00000000000E+00 -0.45593999997E+02  0.45594000000E+02  0.51100000000E-03 0. -1.
    9900012    2    1    2    0    0 -0.77186545565E+00 -0.88779490797E+00 -0.98015585146E-01  0.90007507249E+02  0.89999765544E+02 0.  0.
         12    1    1    2    0    0  0.77186545565E+00  0.88779490797E+00  0.98015585146E-01  0.11804927510E+01  0.00000000000E+00 0. -1.
         11    1    3    3    0    0  0.42866042039E+01 -0.47436334797E+00  0.11090078729E+02  0.11899153023E+02  0.51100000000E-03 0. -1.
        -11    1    3    3    0    0  0.34034151157E+02 -0.12360652732E+02 -0.23437381851E+01  0.36285014673E+02  0.51100000000E-03 0.  1.
         12    1    3    3    0    0 -0.39092620816E+02  0.11947221172E+02 -0.88443561292E+01  0.41823339553E+02  0.00000000000E+00 0. -1.
</event>
<event>
 7    1  0.1999542E-015  0.9000771E+02  0.7816164E-02  0.1186339E+00
        -11   -1    0    0    0    0  0.00000000000E+00  0.00000000000E+00  0.45593999997E+02  0.45594000000E+02  0.51100000000E-03 0. -1.
         11   -1    0    0    0    0 -0.00000000000E+00 -0.00000000000E+00 -0.45593999997E+02  0.45594000000E+02  0.51100000000E-03 0.  1.
    9900012    2    1    2    0    0 -0.87493341938E+00  0.16269009150E+00 -0.77530466815E+00  0.90007714491E+02  0.89999975522E+02 0.  0.
         12    1    1    2    0    0  0.87493341938E+00 -0.16269009150E+00  0.77530466815E+00  0.11802855090E+01  0.00000000000E+00 0. -1.
         11    1    3    3    0    0 -0.27337816213E+01  0.21082537607E+02  0.37892400564E+02  0.43448601527E+02  0.51100000000E-03 0. -1.
        -11    1    3    3    0    0  0.39876647429E+01  0.62966331319E+00 -0.86523570738E+01  0.95478389798E+01  0.51100000000E-03 0.  1.
        -12    1    3    3    0    0 -0.21288165409E+01 -0.21549510829E+02 -0.30015348158E+02  0.37011273984E+02  0.00000000000E+00 0.  1.
</event>
<event>
 7    1  0.1999542E-015  0.9000696E+02  0.7816164E-02  0.1186341E+00
        -11   -1    0    0    0    0  0.00000000000E+00  0.00000000000E+00  0.45593999997E+02  0.45594000000E+02  0.51100000000E-03 0.  1.
         11   -1    0    0    0    0 -0.00000000000E+00 -0.00000000000E+00 -0.45593999997E+02  0.45594000000E+02  0.51100000000E-03 0. -1.
    9900012    2    1    2    0    0  0.29900647419E+00 -0.34923997024E+00  0.10878838375E+01  0.90006956109E+02  0.89999207126E+02 0.  0.
         12    1    1    2    0    0 -0.29900647419E+00  0.34923997024E+00 -0.10878838375E+01  0.11810438910E+01  0.00000000000E+00 0. -1.
         11    1    3    3    0    0 -0.31578107825E+02  0.66955581407E+01 -0.16924896286E+02  0.36448038454E+02  0.51100000000E-03 0. -1.
        -11    1    3    3    0    0 -0.59777434523E+01  0.67171849830E+01  0.80440274769E+01  0.12064840206E+02  0.51100000000E-03 0.  1.
        -12    1    3    3    0    0  0.37854857751E+02 -0.13761983094E+02  0.99687526465E+01  0.41494077449E+02  0.00000000000E+00 0.  1.
</event>
<event>
 7    1  0.1999542E-015  0.9000791E+02  0.7816164E-02  0.1186339E+00
        -11   -1    0    0    0    0  0.00000000000E+00  0.00000000000E+00  0.45593999997E+02  0.45594000000E+02  0.51100000000E-03 0. -1.
         11   -1    0    0    0    0 -0.00000000000E+00 -0.00000000000E+00 -0.45593999997E+02  0.45594000000E+02  0.51100000000E-03 0.  1.
    9900012    2    1    2    0    0 -0.51201802081E-02 -0.10507224167E+01 -0.53718024165E+00  0.90007912535E+02  0.90000176180E+02 0.  0.
         12    1    1    2    0    0  0.51201802081E-02  0.10507224167E+01  0.53718024165E+00  0.11800874651E+01  0.00000000000E+00 0. -1.
         11    1    3    3    0    0 -0.10209886922E+02 -0.32902532770E+02  0.97255083515E+01  0.35796703292E+02  0.51100000000E-03 0. -1.
        -11    1    3    3    0    0 -0.39231201744E+01 -0.83295695162E+01  0.28627090592E+01  0.96419761276E+01  0.51100000000E-03 0.  1.
        -12    1    3    3    0    0  0.14127886916E+02  0.40181379869E+02 -0.13125397652E+02  0.44569233115E+02  0.00000000000E+00 0.  1.
</event>
<event>
 7    1  0.1999542E-015  0.9000775E+02  0.7816164E-02  0.1186339E+00
        -11   -1    0    0    0    0  0.00000000000E+00  0.00000000000E+00  0.45593999997E+02  0.45594000000E+02  0.51100000000E-03 0.  1.
         11   -1    0    0    0    0 -0.00000000000E+00 -0.00000000000E+00 -0.45593999997E+02  0.45594000000E+02  0.51100000000E-03 0. -1.
    9900012    2    1    2    0    0 -0.70765994651E+00 -0.64618422009E+00  0.68894715185E+00  0.90007752219E+02  0.90000013748E+02 0.  0.
         12    1    1    2    0    0  0.70765994651E+00  0.64618422009E+00 -0.68894715185E+00  0.11802477809E+01  0.00000000000E+00 0. -1.
         11    1    3    3    0    0 -0.39073072440E+02  0.81380337277E+01 -0.66850880337E+01  0.40467554722E+02  0.51100000000E-03 0. -1.
        -11    1    3    3    0    0  0.26330921919E+01  0.57795868709E+01 -0.59652338992E+01  0.87132551106E+01  0.51100000000E-03 0.  1.
        -12    1    3    3    0    0  0.35732320302E+02 -0.14563804819E+02  0.13339269085E+02  0.40826942387E+02  0.00000000000E+00 0.  1.
</event>
<event>
 7    1  0.1999542E-015  0.9000776E+02  0.7816164E-02  0.1186339E+00
        -11   -1    0    0    0    0  0.00000000000E+00  0.00000000000E+00  0.45593999997E+02  0.45594000000E+02  0.51100000000E-03 0.  1.
         11   -1    0    0    0    0 -0.00000000000E+00 -0.00000000000E+00 -0.45593999997E+02  0.45594000000E+02  0.51100000000E-03 0. -1.
    9900012    2    1    2    0    0 -0.52635181373E+00  0.96937034134E+00 -0.41980639403E+00  0.90007761677E+02  0.90000023331E+02 0.  0.
         12    1    1    2    0    0  0.52635181373E+00 -0.96937034134E+00  0.41980639403E+00  0.11802383229E+01  0.00000000000E+00 0. -1.
         11    1    3    3    0    0 -0.63496485214E+01  0.76949997548E+01  0.17842247166E+00  0.99781206853E+01  0.51100000000E-03 0. -1.
        -11    1    3    3    0    0  0.11988555958E+00 -0.32439996420E+01  0.39371553261E+02  0.39505152989E+02  0.51100000000E-03 0.  1.
         12    1    3    3    0    0  0.57034111481E+01 -0.34816297715E+01 -0.39969782127E+02  0.40524488003E+02  0.00000000000E+00 0. -1.
</event>
<event>
 7    1  0.1999542E-015  0.9000775E+02  0.7816164E-02  0.1186339E+00
        -11   -1    0    0    0    0  0.00000000000E+00  0.00000000000E+00  0.45593999997E+02  0.45594000000E+02  0.51100000000E-03 0. -1.
         11   -1    0    0    0    0 -0.00000000000E+00 -0.00000000000E+00 -0.45593999997E+02  0.45594000000E+02  0.51100000000E-03 0.  1.
    9900012    2    1    2    0    0 -0.10298524935E+01 -0.12246085725E+00 -0.56337034865E+00  0.90007754699E+02  0.90000016261E+02 0.  0.
         12    1    1    2    0    0  0.10298524935E+01  0.12246085725E+00  0.56337034865E+00  0.11802453006E+01  0.00000000000E+00 0. -1.
         11    1    3    3    0    0 -0.54247722239E+01  0.62126751157E+00 -0.73556605907E+01  0.91607788964E+01  0.51100000000E-03 0. -1.
        -11    1    3    3    0    0  0.22427132801E+02  0.21393715819E+02 -0.23742077833E+02  0.39042971484E+02  0.51100000000E-03 0.  1.
         12    1    3    3    0    0 -0.18032213070E+02 -0.22137444188E+02  0.30534368075E+02  0.41804004319E+02  0.00000000000E+00 0. -1.
</event>
<event>
 7    1  0.1999542E-015  0.9000768E+02  0.7816164E-02  0.1186339E+00
        -11   -1    0    0    0    0  0.00000000000E+00  0.00000000000E+00  0.45593999997E+02  0.45594000000E+02  0.51100000000E-03 0.  1.
         11   -1    0    0    0    0 -0.00000000000E+00 -0.00000000000E+00 -0.45593999997E+02  0.45594000000E+02  0.51100000000E-03 0. -1.
    9900012    2    1    2    0    0  0.61977957178E+00 -0.91727176427E+00 -0.40943662715E+00  0.90007681162E+02  0.89999941754E+02 0.  0.
         12    1    1    2    0    0 -0.61977957178E+00  0.91727176427E+00  0.40943662715E+00  0.11803188378E+01  0.00000000000E+00 0. -1.
         11    1    3    3    0    0  0.24814658431E+02  0.18798538229E+02 -0.17840240377E+02  0.35880725879E+02  0.51100000000E-03 0. -1.
        -11    1    3    3    0    0  0.68768666708E+01  0.46721784497E+01 -0.39581095485E+01  0.92079953373E+01  0.51100000000E-03 0.  1.
        -12    1    3    3    0    0 -0.31071745530E+02 -0.24387988443E+02  0.21388913298E+02  0.44918959946E+02  0.00000000000E+00 0.  1.
</event>
<event>
 7    1  0.2074487E-015  0.9000778E+02  0.7816164E-02  0.1186339E+00
        -11   -1    0    0    0    0  0.00000000000E+00  0.00000000000E+00  0.45593999997E+02  0.45594000000E+02  0.51100000000E-03 0.  1.
         11   -1    0    0    0    0 -0.00000000000E+00 -0.00000000000E+00 -0.45593999997E+02  0.45594000000E+02  0.51100000000E-03 0. -1.
    9900012    2    1    2    0    0  0.57357237912E+00 -0.74032242920E+00  0.71823298254E+00  0.90007779177E+02  0.90000041062E+02 0.  0.
         12    1    1    2    0    0 -0.57357237912E+00  0.74032242920E+00 -0.71823298254E+00  0.11802208228E+01  0.00000000000E+00 0. -1.
         11    1    3    3    0    0 -0.12354707951E+02 -0.26994364940E+02 -0.22048022367E+02  0.36979045926E+02  0.51100000000E-03 0. -1.
        -11    1    3    3    0    0 -0.78401589477E+01 -0.56822516921E+01  0.31684261182E+01  0.10187983164E+02  0.51100000000E-03 0.  1.
        -12    1    3    3    0    0  0.20768439278E+02  0.31936294203E+02  0.19597829232E+02  0.42840750087E+02  0.00000000000E+00 0.  1.
</event>
<event>
 7    1  0.1999542E-015  0.9000767E+02  0.7816164E-02  0.1186339E+00
        -11   -1    0    0    0    0  0.00000000000E+00  0.00000000000E+00  0.45593999997E+02  0.45594000000E+02  0.51100000000E-03 0.  1.
         11   -1    0    0    0    0 -0.00000000000E+00 -0.00000000000E+00 -0.45593999997E+02  0.45594000000E+02  0.51100000000E-03 0. -1.
    9900012    2    1    2    0    0  0.16706728738E+00 -0.75303887964E+00  0.89341705706E+00  0.90007672473E+02  0.89999932950E+02 0.  0.
         12    1    1    2    0    0 -0.16706728738E+00  0.75303887964E+00 -0.89341705706E+00  0.11803275268E+01  0.00000000000E+00 0. -1.
         11    1    3    3    0    0 -0.94013494334E-01 -0.89765158686E+01  0.98242743057E-01  0.89775457434E+01  0.51100000000E-03 0. -1.
        -11    1    3    3    0    0 -0.32305031735E+02 -0.15155738712E+02  0.14707416282E+02  0.38595590231E+02  0.51100000000E-03 0.  1.
         12    1    3    3    0    0  0.32566112517E+02  0.23379215701E+02 -0.13912241968E+02  0.42434536499E+02  0.00000000000E+00 0. -1.
</event>
<event>
 7    1  0.1999542E-015  0.9000772E+02  0.7816164E-02  0.1186339E+00
        -11   -1    0    0    0    0  0.00000000000E+00  0.00000000000E+00  0.45593999997E+02  0.45594000000E+02  0.51100000000E-03 0.  1.
         11   -1    0    0    0    0 -0.00000000000E+00 -0.00000000000E+00 -0.45593999997E+02  0.45594000000E+02  0.51100000000E-03 0. -1.
    9900012    2    1    2    0    0  0.19853076654E-01 -0.52641348120E+00  0.10562006603E+01  0.90007718198E+02  0.89999979278E+02 0.  0.
         12    1    1    2    0    0 -0.19853076654E-01  0.52641348120E+00 -0.10562006603E+01  0.11802818023E+01  0.00000000000E+00 0. -1.
         11    1    3    3    0    0 -0.10206033304E+02 -0.31120214007E+00  0.30077513709E+00  0.10215205750E+02  0.51100000000E-03 0. -1.
        -11    1    3    3    0    0  0.16865832590E+02  0.61901839651E+01  0.37674044864E+02  0.41738571407E+02  0.51100000000E-03 0.  1.
         12    1    3    3    0    0 -0.66399462091E+01 -0.64053953062E+01 -0.36918619340E+02  0.38053941040E+02  0.00000000000E+00 0. -1.
</event>
<event>
 7    1  0.1999542E-015  0.9000768E+02  0.7816164E-02  0.1186339E+00
        -11   -1    0    0    0    0  0.00000000000E+00  0.00000000000E+00  0.45593999997E+02  0.45594000000E+02  0.51100000000E-03 0.  1.
         11   -1    0    0    0    0 -0.00000000000E+00 -0.00000000000E+00 -0.45593999997E+02  0.45594000000E+02  0.51100000000E-03 0. -1.
    9900012    2    1    2    0    0 -0.39266883370E+00 -0.52695344754E+00  0.98044854223E+00  0.90007683054E+02  0.89999943670E+02 0.  0.
         12    1    1    2    0    0  0.39266883370E+00  0.52695344754E+00 -0.98044854223E+00  0.11803169459E+01  0.00000000000E+00 0. -1.
         11    1    3    3    0    0  0.11254321683E+02  0.83383027523E+01 -0.16921481248E+01  0.14108522774E+02  0.51100000000E-03 0. -1.
        -11    1    3    3    0    0  0.40486044876E+01  0.19122919068E+02  0.28602252130E+02  0.34643412926E+02  0.51100000000E-03 0.  1.
         12    1    3    3    0    0 -0.15695595004E+02 -0.27988175268E+02 -0.25929655463E+02  0.41255747354E+02  0.00000000000E+00 0. -1.
</event>
<event>
 7    1  0.1999542E-015  0.9000778E+02  0.7816164E-02  0.1186339E+00
        -11   -1    0    0    0    0  0.00000000000E+00  0.00000000000E+00  0.45593999997E+02  0.45594000000E+02  0.51100000000E-03 0.  1.
         11   -1    0    0    0    0 -0.00000000000E+00 -0.00000000000E+00 -0.45593999997E+02  0.45594000000E+02  0.51100000000E-03 0. -1.
    9900012    2    1    2    0    0 -0.42766427725E-01  0.42511692383E+00  0.11001652426E+01  0.90007780983E+02  0.90000042892E+02 0.  0.
         12    1    1    2    0    0  0.42766427725E-01 -0.42511692383E+00 -0.11001652426E+01  0.11802190167E+01  0.00000000000E+00 0. -1.
         11    1    3    3    0    0  0.67293939909E+01 -0.84034380394E+01  0.16984459668E-02  0.10765803152E+02  0.51100000000E-03 0. -1.
        -11    1    3    3    0    0  0.27179592118E+02 -0.16145332929E+02 -0.13860757425E+02  0.34518438547E+02  0.51100000000E-03 0.  1.
         12    1    3    3    0    0 -0.33951752536E+02  0.24973887892E+02  0.14959224222E+02  0.44723539284E+02  0.00000000000E+00 0. -1.
</event>
<event>
 7    1  0.1999542E-015  0.9000775E+02  0.7816164E-02  0.1186339E+00
        -11   -1    0    0    0    0  0.00000000000E+00  0.00000000000E+00  0.45593999997E+02  0.45594000000E+02  0.51100000000E-03 0.  1.
         11   -1    0    0    0    0 -0.00000000000E+00 -0.00000000000E+00 -0.45593999997E+02  0.45594000000E+02  0.51100000000E-03 0. -1.
    9900012    2    1    2    0    0  0.95514195391E+00  0.44261305983E+00 -0.53366388631E+00  0.90007745953E+02  0.90000007399E+02 0.  0.
         12    1    1    2    0    0 -0.95514195391E+00 -0.44261305983E+00  0.53366388631E+00  0.11802540474E+01  0.00000000000E+00 0. -1.
         11    1    3    3    0    0  0.77243134922E+01 -0.65439594970E+01 -0.13386783642E+01  0.10211781669E+02  0.51100000000E-03 0. -1.
        -11    1    3    3    0    0  0.35896343580E+02  0.58876398042E+01  0.57616187704E+01  0.36829445230E+02  0.51100000000E-03 0.  1.
         12    1    3    3    0    0 -0.42665515118E+02  0.10989327526E+01 -0.49566042926E+01  0.42966519054E+02  0.00000000000E+00 0. -1.
</event>
<event>
 7    1  0.1999542E-015  0.9000795E+02  0.7816164E-02  0.1186339E+00
        -11   -1    0    0    0    0  0.00000000000E+00  0.00000000000E+00  0.45593999997E+02  0.45594000000E+02  0.51100000000E-03 0. -1.
         11   -1    0    0    0    0 -0.00000000000E+00 -0.00000000000E+00 -0.45593999997E+02  0.45594000000E+02  0.51100000000E-03 0.  1.
    9900012    2    1    2    0    0 -0.44982758967E+00  0.91271217961E+00 -0.59759791643E+00  0.90007952690E+02  0.90000216866E+02 0.  0.
         12    1    1    2    0    0  0.44982758967E+00 -0.91271217961E+00  0.59759791643E+00  0.11800473096E+01  0.00000000000E+00 0. -1.
         11    1    3    3    0    0  0.34252736537E+02  0.83524502545E+01  0.19032634722E+02  0.40065628290E+02  0.51100000000E-03 0. -1.
        -11    1    3    3    0    0 -0.44810225381E+01  0.10040275350E+02 -0.52525298208E+01  0.12185063064E+02  0.51100000000E-03 0.  1.
        -12    1    3    3    0    0 -0.30221541589E+02 -0.17480013425E+02 -0.14377702818E+02  0.37757261337E+02  0.00000000000E+00 0.  1.
</event>
<event>
 7    1  0.1999542E-015  0.9000832E+02  0.7816164E-02  0.1186338E+00
        -11   -1    0    0    0    0  0.00000000000E+00  0.00000000000E+00  0.45593999997E+02  0.45594000000E+02  0.51100000000E-03 0. -1.
         11   -1    0    0    0    0 -0.00000000000E+00 -0.00000000000E+00 -0.45593999997E+02  0.45594000000E+02  0.51100000000E-03 0.  1.
    9900012    2    1    2    0    0  0.11293737740E+00  0.10875455383E+01  0.44286906617E+00  0.90008320739E+02  0.90000589771E+02 0.  0.
         12    1    1    2    0    0 -0.11293737740E+00 -0.10875455383E+01 -0.44286906617E+00  0.11796792610E+01  0.00000000000E+00 0. -1.
         11    1    3    3    0    0  0.42872619851E+00  0.54056943388E+00  0.93880044265E+01  0.94133229436E+01  0.51100000000E-03 0. -1.
        -11    1    3    3    0    0 -0.36330363440E+02 -0.14973447797E+02 -0.12455203556E+02  0.41221736287E+02  0.51100000000E-03 0.  1.
         12    1    3    3    0    0  0.36014574619E+02  0.15520423902E+02  0.35100681956E+01  0.39373261508E+02  0.00000000000E+00 0. -1.
</event>
<event>
 7    1  0.1999542E-015  0.9000774E+02  0.7816164E-02  0.1186339E+00
        -11   -1    0    0    0    0  0.00000000000E+00  0.00000000000E+00  0.45593999997E+02  0.45594000000E+02  0.51100000000E-03 0.  1.
         11   -1    0    0    0    0 -0.00000000000E+00 -0.00000000000E+00 -0.45593999997E+02  0.45594000000E+02  0.51100000000E-03 0. -1.
    9900012    2    1    2    0    0 -0.18187788166E+00 -0.89013640366E+00  0.75338723346E+00  0.90007739561E+02  0.90000000923E+02 0.  0.
         12    1    1    2    0    0  0.18187788166E+00  0.89013640366E+00 -0.75338723346E+00  0.11802604393E+01  0.00000000000E+00 0. -1.
         11    1    3    3    0    0  0.76763533143E+01 -0.66910236091E+01  0.10185160681E+01  0.10233942172E+02  0.51100000000E-03 0. -1.
        -11    1    3    3    0    0  0.28419811379E+02 -0.17128039188E+02  0.11759839060E+02  0.35204392058E+02  0.51100000000E-03 0.  1.
         12    1    3    3    0    0 -0.36278042575E+02  0.22928926393E+02 -0.12024967895E+02  0.44569405330E+02  0.00000000000E+00 0. -1.
</event>
<event>
 7    1  0.1999542E-015  0.9000764E+02  0.7816164E-02  0.1186339E+00
        -11   -1    0    0    0    0  0.00000000000E+00  0.00000000000E+00  0.45593999997E+02  0.45594000000E+02  0.51100000000E-03 0.  1.
         11   -1    0    0    0    0 -0.00000000000E+00 -0.00000000000E+00 -0.45593999997E+02  0.45594000000E+02  0.51100000000E-03 0. -1.
    9900012    2    1    2    0    0  0.17870637561E+00  0.45278981199E+00  0.10753062005E+01  0.90007644966E+02  0.89999905079E+02 0.  0.
         12    1    1    2    0    0 -0.17870637561E+00 -0.45278981199E+00 -0.10753062005E+01  0.11803550345E+01  0.00000000000E+00 0. -1.
         11    1    3    3    0    0 -0.25360186671E+01 -0.30984797266E+01 -0.70232316829E+01  0.80844140683E+01  0.51100000000E-03 0. -1.
        -11    1    3    3    0    0  0.15788484920E+02 -0.19522299564E+02  0.35700586472E+02  0.43645484429E+02  0.51100000000E-03 0.  1.
         12    1    3    3    0    0 -0.13073759877E+02  0.23073569102E+02 -0.27602048588E+02  0.38277746469E+02  0.00000000000E+00 0. -1.
</event>
<event>
 7    1  0.1999542E-015  0.9000767E+02  0.7816164E-02  0.1186339E+00
        -11   -1    0    0    0    0  0.00000000000E+00  0.00000000000E+00  0.45593999997E+02  0.45594000000E+02  0.51100000000E-03 0. -1.
         11   -1    0    0    0    0 -0.00000000000E+00 -0.00000000000E+00 -0.45593999997E+02  0.45594000000E+02  0.51100000000E-03 0.  1.
    9900012    2    1    2    0    0 -0.19211557622E+00 -0.10900625307E+01 -0.40992363013E+00  0.90007668649E+02  0.89999929075E+02 0.  0.
         12    1    1    2    0    0  0.19211557622E+00  0.10900625307E+01  0.40992363013E+00  0.11803313509E+01  0.00000000000E+00 0. -1.
         11    1    3    3    0    0  0.20457770074E+01  0.78072943029E+00  0.10549089433E+02  0.10773951464E+02  0.51100000000E-03 0. -1.
        -11    1    3    3    0    0  0.26642668221E+02 -0.26352237210E+02 -0.16544465556E+02  0.40963294749E+02  0.51100000000E-03 0.  1.
         12    1    3    3    0    0 -0.28880560804E+02  0.24481445249E+02  0.55854524928E+01  0.38270422436E+02  0.00000000000E+00 0. -1.
</event>
<event>
 7    1  0.1999542E-015  0.9000773E+02  0.7816164E-02  0.1186339E+00
        -11   -1    0    0    0    0  0.00000000000E+00  0.00000000000E+00  0.45593999997E+02  0.45594000000E+02  0.51100000000E-03 0.  1.
         11   -1    0    0    0    0 -0.00000000000E+00 -0.00000000000E+00 -0.45593999997E+02  0.45594000000E+02  0.51100000000E-03 0. -1.
    9900012    2    1    2    0    0 -0.67063417117E+00  0.97091467451E+00 -0.24881664003E-01  0.90007726899E+02  0.89999988094E+02 0.  0.
         12    1    1    2    0    0  0.67063417117E+00 -0.97091467451E+00  0.24881664003E-01  0.11802731014E+01  0.00000000000E+00 0. -1.
         11    1    3    3    0    0  0.36524392956E+01 -0.79785443991E+01 -0.52118214232E+01  0.10205908404E+02  0.51100000000E-03 0. -1.
        -11    1    3    3    0    0 -0.13022410247E+02  0.24010528335E+01  0.40625017546E+02  0.42728682103E+02  0.51100000000E-03 0.  1.
         12    1    3    3    0    0  0.86993367806E+01  0.65484062400E+01 -0.35438077787E+02  0.37073136392E+02  0.00000000000E+00 0. -1.
</event>
<event>
 7    1  0.1999542E-015  0.9000763E+02  0.7816164E-02  0.1186339E+00
        -11   -1    0    0    0    0  0.00000000000E+00  0.00000000000E+00  0.45593999997E+02  0.45594000000E+02  0.51100000000E-03 0.  1.
         11   -1    0    0    0    0 -0.00000000000E+00 -0.00000000000E+00 -0.45593999997E+02  0.45594000000E+02  0.51100000000E-03 0. -1.
    9900012    2    1    2    0    0  0.91487070134E+00 -0.67919184643E+00  0.30820430796E+00  0.90007627237E+02  0.89999887116E+02 0.  0.
         12    1    1    2    0    0 -0.91487070134E+00  0.67919184643E+00 -0.30820430796E+00  0.11803727631E+01  0.00000000000E+00 0. -1.
         11    1    3    3    0    0  0.11212907645E+02 -0.13485106766E+02 -0.35201839314E+02  0.39328703178E+02  0.51100000000E-03 0. -1.
        -11    1    3    3    0    0 -0.82142401301E+01 -0.70617360881E+01  0.10968967666E+01  0.10887839100E+02  0.51100000000E-03 0.  1.
        -12    1    3    3    0    0 -0.20837968136E+01  0.19867651007E+02  0.34413146855E+02  0.39791084959E+02  0.00000000000E+00 0.  1.
</event>
<event>
 7    1  0.1999542E-015  0.9000777E+02  0.7816164E-02  0.1186339E+00
        -11   -1    0    0    0    0  0.00000000000E+00  0.00000000000E+00  0.45593999997E+02  0.45594000000E+02  0.51100000000E-03 0. -1.
         11   -1    0    0    0    0 -0.00000000000E+00 -0.00000000000E+00 -0.45593999997E+02  0.45594000000E+02  0.51100000000E-03 0.  1.
    9900012    2    1    2    0    0  0.19686498257E+00  0.11214755382E+01 -0.31059891386E+00  0.90007773374E+02  0.90000035182E+02 0.  0.
         12    1    1    2    0    0 -0.19686498257E+00 -0.11214755382E+01  0.31059891386E+00  0.11802266263E+01  0.00000000000E+00 0. -1.
         11    1    3    3    0    0  0.39823876531E+01  0.46790697794E+01  0.36133855257E+02  0.36652538813E+02  0.51100000000E-03 0. -1.
        -11    1    3    3    0    0  0.66145225708E+01 -0.52195764774E+01  0.55307238114E+01  0.10078928196E+02  0.51100000000E-03 0.  1.
        -12    1    3    3    0    0 -0.10400045241E+02  0.16619822362E+01 -0.41975177982E+02  0.43276306365E+02  0.00000000000E+00 0.  1.
</event>
<event>
 7    1  0.1999542E-015  0.9000773E+02  0.7816164E-02  0.1186339E+00
        -11   -1    0    0    0    0  0.00000000000E+00  0.00000000000E+00  0.45593999997E+02  0.45594000000E+02  0.51100000000E-03 0.  1.
         11   -1    0    0    0    0 -0.00000000000E+00 -0.00000000000E+00 -0.45593999997E+02  0.45594000000E+02  0.51100000000E-03 0. -1.
    9900012    2    1    2    0    0 -0.60839982940E+00 -0.78525092331E+00  0.63739978478E+00  0.90007725519E+02  0.89999986696E+02 0.  0.
         12    1    1    2    0    0  0.60839982940E+00  0.78525092331E+00 -0.63739978478E+00  0.11802744811E+01  0.00000000000E+00 0. -1.
         11    1    3    3    0    0  0.22243277312E+02 -0.18151815113E+02  0.29183570132E+02  0.40938155105E+02  0.51100000000E-03 0. -1.
        -11    1    3    3    0    0 -0.58284475626E+01  0.21621976129E+01  0.53522027127E+01  0.82031685126E+01  0.51100000000E-03 0.  1.
        -12    1    3    3    0    0 -0.17023229579E+02  0.15204366576E+02 -0.33898373060E+02  0.40866401902E+02  0.00000000000E+00 0.  1.
</event>
<event>
 7    1  0.1999542E-015  0.9000773E+02  0.7816164E-02  0.1186339E+00
        -11   -1    0    0    0    0  0.00000000000E+00  0.00000000000E+00  0.45593999997E+02  0.45594000000E+02  0.51100000000E-03 0. -1.
         11   -1    0    0    0    0 -0.00000000000E+00 -0.00000000000E+00 -0.45593999997E+02  0.45594000000E+02  0.51100000000E-03 0.  1.
    9900012    2    1    2    0    0  0.51342875128E+00 -0.10536165266E+01 -0.13902270715E+00  0.90007727074E+02  0.89999988271E+02 0.  0.
         12    1    1    2    0    0 -0.51342875128E+00  0.10536165266E+01  0.13902270715E+00  0.11802729264E+01  0.00000000000E+00 0. -1.
         11    1    3    3    0    0 -0.19696859032E+02 -0.29129565598E+02  0.15812223055E+02  0.38555469727E+02  0.51100000000E-03 0. -1.
        -11    1    3    3    0    0  0.11208056001E+02  0.30864538970E+01  0.92359014477E+01  0.14847511333E+02  0.51100000000E-03 0.  1.
        -12    1    3    3    0    0  0.90022317825E+01  0.24989495174E+02 -0.25187147210E+02  0.36604746013E+02  0.00000000000E+00 0.  1.
</event>
<event>
 7    1  0.1999542E-015  0.9000773E+02  0.7816164E-02  0.1186339E+00
        -11   -1    0    0    0    0  0.00000000000E+00  0.00000000000E+00  0.45593999997E+02  0.45594000000E+02  0.51100000000E-03 0.  1.
         11   -1    0    0    0    0 -0.00000000000E+00 -0.00000000000E+00 -0.45593999997E+02  0.45594000000E+02  0.51100000000E-03 0. -1.
    9900012    2    1    2    0    0 -0.40372140371E+00  0.10906158981E+01  0.20150685589E+00  0.90007729259E+02  0.89999990485E+02 0.  0.
         12    1    1    2    0    0  0.40372140371E+00 -0.10906158981E+01 -0.20150685589E+00  0.11802707409E+01  0.00000000000E+00 0. -1.
         11    1    3    3    0    0  0.19779785968E+02  0.36314789286E+02 -0.14550188534E+02  0.43837333866E+02  0.51100000000E-03 0. -1.
        -11    1    3    3    0    0 -0.70530815717E+01 -0.85899603347E+01 -0.30792856867E+01  0.11533229331E+02  0.51100000000E-03 0.  1.
        -12    1    3    3    0    0 -0.13130425800E+02 -0.26634213053E+02  0.17830981076E+02  0.34637166062E+02  0.00000000000E+00 0.  1.
</event>
<event>
 7    1  0.1999542E-015  0.9000766E+02  0.7816164E-02  0.1186339E+00
        -11   -1    0    0    0    0  0.00000000000E+00  0.00000000000E+00  0.45593999997E+02  0.45594000000E+02  0.51100000000E-03 0. -1.
         11   -1    0    0    0    0 -0.00000000000E+00 -0.00000000000E+00 -0.45593999997E+02  0.45594000000E+02  0.51100000000E-03 0.  1.
    9900012    2    1    2    0    0  0.16196102802E+00  0.11569230373E+01  0.16883601480E+00  0.90007657724E+02  0.89999918006E+02 0.  0.
         12    1    1    2    0    0 -0.16196102802E+00 -0.11569230373E+01 -0.16883601480E+00  0.11803422760E+01  0.00000000000E+00 0. -1.
         11    1    3    3    0    0 -0.46849612659E+00 -0.54988696311E+01  0.65242780024E+01  0.85453647994E+01  0.51100000000E-03 0. -1.
        -11    1    3    3    0    0 -0.34118132694E+02 -0.43871488916E+01 -0.23001899326E+02  0.41380930714E+02  0.51100000000E-03 0.  1.
         12    1    3    3    0    0  0.34748589848E+02  0.11042941560E+02  0.16646457338E+02  0.40081362211E+02  0.00000000000E+00 0. -1.
</event>
<event>
 7    1  0.1999542E-015  0.9000784E+02  0.7816164E-02  0.1186339E+00
        -11   -1    0    0    0    0  0.00000000000E+00  0.00000000000E+00  0.45593999997E+02  0.45594000000E+02  0.51100000000E-03 0.  1.
         11   -1    0    0    0    0 -0.00000000000E+00 -0.00000000000E+00 -0.45593999997E+02  0.45594000000E+02  0.51100000000E-03 0. -1.
    9900012    2    1    2    0    0  0.75073664612E+00  0.88698035297E+00  0.20598951549E+00  0.90007842664E+02  0.90000105387E+02 0.  0.
         12    1    1    2    0    0 -0.75073664612E+00 -0.88698035297E+00 -0.20598951549E+00  0.11801573365E+01  0.00000000000E+00 0. -1.
         11    1    3    3    0    0 -0.14532508036E+02 -0.17885983701E+02 -0.13920025932E+02  0.26923397353E+02  0.51100000000E-03 0. -1.
        -11    1    3    3    0    0  0.18288725256E+02 -0.17297024866E+02  0.39032245369E+01  0.25473509824E+02  0.51100000000E-03 0.  1.
        -12    1    3    3    0    0 -0.30054805737E+01  0.36069988920E+02  0.10222790911E+02  0.37610935487E+02  0.00000000000E+00 0.  1.
</event>
<event>
 7    1  0.1999542E-015  0.9000773E+02  0.7816164E-02  0.1186339E+00
        -11   -1    0    0    0    0  0.00000000000E+00  0.00000000000E+00  0.45593999997E+02  0.45594000000E+02  0.51100000000E-03 0.  1.
         11   -1    0    0    0    0 -0.00000000000E+00 -0.00000000000E+00 -0.45593999997E+02  0.45594000000E+02  0.51100000000E-03 0. -1.
    9900012    2    1    2    0    0 -0.39623895562E-01  0.21438505552E+00  0.11599614839E+01  0.90007728146E+02  0.89999989358E+02 0.  0.
         12    1    1    2    0    0  0.39623895562E-01 -0.21438505552E+00 -0.11599614839E+01  0.11802718540E+01  0.00000000000E+00 0. -1.
         11    1    3    3    0    0 -0.15082839475E+02  0.63093861063E+01 -0.66343451265E+01  0.17644118997E+02  0.51100000000E-03 0. -1.
        -11    1    3    3    0    0 -0.18172441520E+02 -0.96993165223E+00  0.27818178036E+02  0.33241982909E+02  0.51100000000E-03 0.  1.
         12    1    3    3    0    0  0.33215657099E+02 -0.51250693986E+01 -0.20023871426E+02  0.39121626241E+02  0.00000000000E+00 0. -1.
</event>
<event>
 7    1  0.1999542E-015  0.9000740E+02  0.7816164E-02  0.1186340E+00
        -11   -1    0    0    0    0  0.00000000000E+00  0.00000000000E+00  0.45593999997E+02  0.45594000000E+02  0.51100000000E-03 0.  1.
         11   -1    0    0    0    0 -0.00000000000E+00 -0.00000000000E+00 -0.45593999997E+02  0.45594000000E+02  0.51100000000E-03 0. -1.
    9900012    2    1    2    0    0  0.91327456619E+00  0.64444171381E+00  0.38004453434E+00  0.90007402946E+02  0.89999659864E+02 0.  0.
         12    1    1    2    0    0 -0.91327456619E+00 -0.64444171381E+00 -0.38004453434E+00  0.11805970540E+01  0.00000000000E+00 0. -1.
         11    1    3    3    0    0 -0.63227890463E+01  0.33155790744E+01  0.72070456891E+01  0.10144566711E+02  0.51100000000E-03 0. -1.
        -11    1    3    3    0    0  0.91253139240E+01  0.29542264144E+02  0.20897898055E+02  0.37319416774E+02  0.51100000000E-03 0.  1.
         12    1    3    3    0    0 -0.18892503115E+01 -0.32213401505E+02 -0.27724899210E+02  0.42543419461E+02  0.00000000000E+00 0. -1.
</event>
<event>
 7    1  0.1999542E-015  0.9000773E+02  0.7816164E-02  0.1186339E+00
        -11   -1    0    0    0    0  0.00000000000E+00  0.00000000000E+00  0.45593999997E+02  0.45594000000E+02  0.51100000000E-03 0.  1.
         11   -1    0    0    0    0 -0.00000000000E+00 -0.00000000000E+00 -0.45593999997E+02  0.45594000000E+02  0.51100000000E-03 0. -1.
    9900012    2    1    2    0    0  0.20211323168E+00  0.11626819983E+01  0.18713171498E-01  0.90007733348E+02  0.89999994628E+02 0.  0.
         12    1    1    2    0    0 -0.20211323168E+00 -0.11626819983E+01 -0.18713171498E-01  0.11802666523E+01  0.00000000000E+00 0. -1.
         11    1    3    3    0    0  0.91192346017E+01  0.49038625806E+00  0.22113440337E+01  0.93963270005E+01  0.51100000000E-03 0. -1.
        -11    1    3    3    0    0 -0.25594721172E+02 -0.44243330153E+01  0.32606288485E+02  0.41687342485E+02  0.51100000000E-03 0.  1.
         12    1    3    3    0    0  0.16677599802E+02  0.50966287556E+01 -0.34798919347E+02  0.38924063862E+02  0.00000000000E+00 0. -1.
</event>
<event>
 7    1  0.1999542E-015  0.9000719E+02  0.7816164E-02  0.1186340E+00
        -11   -1    0    0    0    0  0.00000000000E+00  0.00000000000E+00  0.45593999997E+02  0.45594000000E+02  0.51100000000E-03 0. -1.
         11   -1    0    0    0    0 -0.00000000000E+00 -0.00000000000E+00 -0.45593999997E+02  0.45594000000E+02  0.51100000000E-03 0.  1.
    9900012    2    1    2    0    0  0.86021712495E+00 -0.63031298756E+00 -0.50699328384E+00  0.90007190890E+02  0.89999445008E+02 0.  0.
         12    1    1    2    0    0 -0.86021712495E+00  0.63031298756E+00  0.50699328384E+00  0.11808091100E+01  0.00000000000E+00 0. -1.
         11    1    3    3    0    0  0.37500335447E+01  0.94085188783E+01  0.50310028085E+01  0.11309021558E+02  0.51100000000E-03 0. -1.
        -11    1    3    3    0    0 -0.38238198186E+02 -0.68779053912E+00 -0.14751775844E+02  0.40990825158E+02  0.51100000000E-03 0.  1.
         12    1    3    3    0    0  0.35348381766E+02 -0.93510413267E+01  0.92137797519E+01  0.37707344174E+02  0.00000000000E+00 0. -1.
</event>
<event>
 7    1  0.1999542E-015  0.9000782E+02  0.7816164E-02  0.1186339E+00
        -11   -1    0    0    0    0  0.00000000000E+00  0.00000000000E+00  0.45593999997E+02  0.45594000000E+02  0.51100000000E-03 0.  1.
         11   -1    0    0    0    0 -0.00000000000E+00 -0.00000000000E+00 -0.45593999997E+02  0.45594000000E+02  0.51100000000E-03 0. -1.
    9900012    2    1    2    0    0 -0.35761952390E+00  0.11142032238E+01 -0.15322529703E+00  0.90007822666E+02  0.90000085125E+02 0.  0.
         12    1    1    2    0    0  0.35761952390E+00 -0.11142032238E+01  0.15322529703E+00  0.11801773339E+01  0.00000000000E+00 0. -1.
         11    1    3    3    0    0  0.75860405315E+01 -0.14152355310E+01 -0.93108706931E+00  0.77728904499E+01  0.51100000000E-03 0. -1.
        -11    1    3    3    0    0  0.33775985353E+02  0.15961917651E+02  0.68719797413E+01  0.37984524579E+02  0.51100000000E-03 0.  1.
         12    1    3    3    0    0 -0.41719645408E+02 -0.13432478896E+02 -0.60941179690E+01  0.44250407638E+02  0.00000000000E+00 0. -1.
</event>
<event>
 7    1  0.1999542E-015  0.9000771E+02  0.7816164E-02  0.1186339E+00
        -11   -1    0    0    0    0  0.00000000000E+00  0.00000000000E+00  0.45593999997E+02  0.45594000000E+02  0.51100000000E-03 0. -1.
         11   -1    0    0    0    0 -0.00000000000E+00 -0.00000000000E+00 -0.45593999997E+02  0.45594000000E+02  0.51100000000E-03 0.  1.
    9900012    2    1    2    0    0 -0.25063992978E+00 -0.71744938434E+00 -0.90306183754E+00  0.90007714155E+02  0.89999975182E+02 0.  0.
         12    1    1    2    0    0  0.25063992978E+00  0.71744938434E+00  0.90306183754E+00  0.11802858450E+01  0.00000000000E+00 0. -1.
         11    1    3    3    0    0  0.25612490234E+02 -0.24681309650E+02  0.17297794956E+02  0.39552249148E+02  0.51100000000E-03 0. -1.
        -11    1    3    3    0    0 -0.25676957335E+01  0.70883998920E+01  0.83919032315E+01  0.11281068855E+02  0.51100000000E-03 0.  1.
        -12    1    3    3    0    0 -0.23295434430E+02  0.16875460374E+02 -0.26592760025E+02  0.39174396152E+02  0.00000000000E+00 0.  1.
</event>
<event>
 7    1  0.1999542E-015  0.9000778E+02  0.7816164E-02  0.1186339E+00
        -11   -1    0    0    0    0  0.00000000000E+00  0.00000000000E+00  0.45593999997E+02  0.45594000000E+02  0.51100000000E-03 0. -1.
         11   -1    0    0    0    0 -0.00000000000E+00 -0.00000000000E+00 -0.45593999997E+02  0.45594000000E+02  0.51100000000E-03 0.  1.
    9900012    2    1    2    0    0 -0.52719806676E+00 -0.73204339466E+00 -0.76097789163E+00  0.90007782781E+02  0.90000044713E+02 0.  0.
         12    1    1    2    0    0  0.52719806676E+00  0.73204339466E+00  0.76097789163E+00  0.11802172193E+01  0.00000000000E+00 0. -1.
         11    1    3    3    0    0  0.32212128263E+01  0.61528632128E+01  0.76851507573E+01  0.10358353161E+02  0.51100000000E-03 0. -1.
        -11    1    3    3    0    0 -0.20545338678E+02  0.23288759105E+02  0.18230901990E+02  0.36011706842E+02  0.51100000000E-03 0.  1.
         12    1    3    3    0    0  0.16796927785E+02 -0.30173665712E+02 -0.26677030639E+02  0.43637722778E+02  0.00000000000E+00 0. -1.
</event>
<event>
 7    1  0.1999542E-015  0.9000777E+02  0.7816164E-02  0.1186339E+00
        -11   -1    0    0    0    0  0.00000000000E+00  0.00000000000E+00  0.45593999997E+02  0.45594000000E+02  0.51100000000E-03 0.  1.
         11   -1    0    0    0    0 -0.00000000000E+00 -0.00000000000E+00 -0.45593999997E+02  0.45594000000E+02  0.51100000000E-03 0. -1.
    9900012    2    1    2    0    0 -0.75320662227E+00  0.73836868327E+00  0.52956343032E+00  0.90007768686E+02  0.90000030432E+02 0.  0.
         12    1    1    2    0    0  0.75320662227E+00 -0.73836868327E+00 -0.52956343032E+00  0.11802313142E+01  0.00000000000E+00 0. -1.
         11    1    3    3    0    0 -0.19010567469E+02  0.16118523889E+02 -0.33440522955E+02  0.41707038538E+02  0.51100000000E-03 0. -1.
        -11    1    3    3    0    0  0.91167090542E+01  0.18151904162E+01  0.17609362791E+00  0.92973280814E+01  0.51100000000E-03 0.  1.
        -12    1    3    3    0    0  0.91406517929E+01 -0.17195345622E+02  0.33793992757E+02  0.39003402066E+02  0.00000000000E+00 0.  1.
</event>
<event>
 7    1  0.1999542E-015  0.9000773E+02  0.7816164E-02  0.1186339E+00
        -11   -1    0    0    0    0  0.00000000000E+00  0.00000000000E+00  0.45593999997E+02  0.45594000000E+02  0.51100000000E-03 0.  1.
         11   -1    0    0    0    0 -0.00000000000E+00 -0.00000000000E+00 -0.45593999997E+02  0.45594000000E+02  0.51100000000E-03 0. -1.
    9900012    2    1    2    0    0  0.11530359749E+00 -0.10846548603E+01 -0.45085194484E+00  0.90007729454E+02  0.89999990683E+02 0.  0.
         12    1    1    2    0    0 -0.11530359749E+00  0.10846548603E+01  0.45085194484E+00  0.11802705460E+01  0.00000000000E+00 0. -1.
         11    1    3    3    0    0 -0.30834119615E+01  0.82748993459E+01  0.49955750621E+01  0.10145795137E+02  0.51100000000E-03 0. -1.
        -11    1    3    3    0    0 -0.30822874166E+02  0.10574145742E+02 -0.19530611891E+02  0.37990879578E+02  0.51100000000E-03 0.  1.
         12    1    3    3    0    0  0.34021589725E+02 -0.19933699949E+02  0.14084184884E+02  0.41871054738E+02  0.00000000000E+00 0. -1.
</event>
<event>
 7    1  0.1999542E-015  0.9000786E+02  0.7816164E-02  0.1186339E+00
        -11   -1    0    0    0    0  0.00000000000E+00  0.00000000000E+00  0.45593999997E+02  0.45594000000E+02  0.51100000000E-03 0. -1.
         11   -1    0    0    0    0 -0.00000000000E+00 -0.00000000000E+00 -0.45593999997E+02  0.45594000000E+02  0.51100000000E-03 0.  1.
    9900012    2    1    2    0    0 -0.35000338197E-01  0.11671245173E+01  0.17126712755E+00  0.90007857173E+02  0.90000120088E+02 0.  0.
         12    1    1    2    0    0  0.35000338197E-01 -0.11671245173E+01 -0.17126712755E+00  0.11801428268E+01  0.00000000000E+00 0. -1.
         11    1    3    3    0    0  0.70600133464E+01 -0.40663992944E+01 -0.57489095637E+01  0.99714268340E+01  0.51100000000E-03 0. -1.
        -11    1    3    3    0    0 -0.15885011932E+02  0.33049871290E+02 -0.19331918859E+02  0.41452993661E+02  0.51100000000E-03 0.  1.
         12    1    3    3    0    0  0.87899982472E+01 -0.27816347479E+02  0.25252095550E+02  0.38583436679E+02  0.00000000000E+00 0. -1.
</event>
<event>
 7    1  0.1999542E-015  0.9000777E+02  0.7816164E-02  0.1186339E+00
        -11   -1    0    0    0    0  0.00000000000E+00  0.00000000000E+00  0.45593999997E+02  0.45594000000E+02  0.51100000000E-03 0.  1.
         11   -1    0    0    0    0 -0.00000000000E+00 -0.00000000000E+00 -0.45593999997E+02  0.45594000000E+02  0.51100000000E-03 0. -1.
    9900012    2    1    2    0    0 -0.10508251273E+01  0.37753922139E+00 -0.38231113363E+00  0.90007774973E+02  0.90000036802E+02 0.  0.
         12    1    1    2    0    0  0.10508251273E+01 -0.37753922139E+00  0.38231113363E+00  0.11802250272E+01  0.00000000000E+00 0. -1.
         11    1    3    3    0    0 -0.19584666571E+02  0.31984258823E+02 -0.87524974710E+01  0.38511792861E+02  0.51100000000E-03 0. -1.
        -11    1    3    3    0    0  0.23175157117E+01  0.42234189840E+01 -0.76408882938E+01  0.90327914383E+01  0.51100000000E-03 0.  1.
        -12    1    3    3    0    0  0.16216325732E+02 -0.35830138586E+02  0.16011074631E+02  0.42463190673E+02  0.00000000000E+00 0.  1.
</event>
<event>
 7    1  0.1999542E-015  0.9000781E+02  0.7816164E-02  0.1186339E+00
        -11   -1    0    0    0    0  0.00000000000E+00  0.00000000000E+00  0.45593999997E+02  0.45594000000E+02  0.51100000000E-03 0. -1.
         11   -1    0    0    0    0 -0.00000000000E+00 -0.00000000000E+00 -0.45593999997E+02  0.45594000000E+02  0.51100000000E-03 0.  1.
    9900012    2    1    2    0    0  0.14987021461E+00 -0.98833986544E+00  0.62735324541E+00  0.90007809818E+02  0.90000072108E+02 0.  0.
         12    1    1    2    0    0 -0.14987021461E+00  0.98833986544E+00 -0.62735324541E+00  0.11801901819E+01  0.00000000000E+00 0. -1.
         11    1    3    3    0    0 -0.41484660804E+01 -0.12714737689E+02 -0.15633282268E+01  0.13465449147E+02  0.51100000000E-03 0. -1.
        -11    1    3    3    0    0 -0.32391231763E+02 -0.99215646926E+01  0.21095764651E+01  0.33942298894E+02  0.51100000000E-03 0.  1.
         12    1    3    3    0    0  0.36689568059E+02  0.21647962516E+02  0.81105007139E-01  0.42600061777E+02  0.00000000000E+00 0. -1.
</event>
<event>
 7    1  0.1999542E-015  0.9000779E+02  0.7816164E-02  0.1186339E+00
        -11   -1    0    0    0    0  0.00000000000E+00  0.00000000000E+00  0.45593999997E+02  0.45594000000E+02  0.51100000000E-03 0.  1.
         11   -1    0    0    0    0 -0.00000000000E+00 -0.00000000000E+00 -0.45593999997E+02  0.45594000000E+02  0.51100000000E-03 0. -1.
    9900012    2    1    2    0    0 -0.10746628777E+01  0.17160137452E+00 -0.45666644660E+00  0.90007791723E+02  0.90000053774E+02 0.  0.
         12    1    1    2    0    0  0.10746628777E+01 -0.17160137452E+00  0.45666644660E+00  0.11802082765E+01  0.00000000000E+00 0. -1.
         11    1    3    3    0    0  0.14686079729E+02  0.29967900447E+02 -0.19314534554E+02  0.38559139517E+02  0.51100000000E-03 0. -1.
        -11    1    3    3    0    0  0.68607168727E+01  0.30114822353E+01  0.59240273910E+01  0.95515737997E+01  0.51100000000E-03 0.  1.
        -12    1    3    3    0    0 -0.22621459479E+02 -0.32807781308E+02  0.12933840717E+02  0.41897078406E+02  0.00000000000E+00 0.  1.
</event>
<event>
 7    1  0.1999542E-015  0.9000776E+02  0.7816164E-02  0.1186339E+00
        -11   -1    0    0    0    0  0.00000000000E+00  0.00000000000E+00  0.45593999997E+02  0.45594000000E+02  0.51100000000E-03 0.  1.
         11   -1    0    0    0    0 -0.00000000000E+00 -0.00000000000E+00 -0.45593999997E+02  0.45594000000E+02  0.51100000000E-03 0. -1.
    9900012    2    1    2    0    0  0.48867069513E+00 -0.80811650112E+00 -0.70789715245E+00  0.90007758624E+02  0.90000020238E+02 0.  0.
         12    1    1    2    0    0 -0.48867069513E+00  0.80811650112E+00  0.70789715245E+00  0.11802413762E+01  0.00000000000E+00 0. -1.
         11    1    3    3    0    0 -0.65198634391E+01  0.83351802562E+01 -0.33190064230E+02  0.34836248549E+02  0.51100000000E-03 0. -1.
        -11    1    3    3    0    0  0.25756207188E+01  0.10965020984E+02 -0.50641507698E+01  0.12349539690E+02  0.51100000000E-03 0.  1.
        -12    1    3    3    0    0  0.44329134154E+01 -0.20108317742E+02  0.37546317847E+02  0.42821970384E+02  0.00000000000E+00 0.  1.
</event>
<event>
 7    1  0.2755307E-015  0.9000761E+02  0.7816164E-02  0.1186339E+00
        -11   -1    0    0    0    0  0.00000000000E+00  0.00000000000E+00  0.45593999997E+02  0.45594000000E+02  0.51100000000E-03 0.  1.
         11   -1    0    0    0    0 -0.00000000000E+00 -0.00000000000E+00 -0.45593999997E+02  0.45594000000E+02  0.51100000000E-03 0. -1.
    9900012    2    1    2    0    0  0.62956134717E+00  0.18683228410E+00  0.98085009981E+00  0.90007609933E+02  0.89999869584E+02 0.  0.
         12    1    1    2    0    0 -0.62956134717E+00 -0.18683228410E+00 -0.98085009981E+00  0.11803900671E+01  0.00000000000E+00 0. -1.
         11    1    3    3    0    0 -0.82405594098E+01 -0.37895895584E+02 -0.85239665083E+01  0.39707225121E+02  0.51100000000E-03 0. -1.
        -11    1    3    3    0    0  0.83308738003E+01 -0.20637525982E+01  0.49108282924E+01  0.98883147119E+01  0.51100000000E-03 0.  1.
        -12    1    3    3    0    0  0.53924695665E+00  0.40146480466E+02  0.45939883158E+01  0.40412070100E+02  0.00000000000E+00 0.  1.
</event>
<event>
 7    1  0.1999542E-015  0.9000773E+02  0.7816164E-02  0.1186339E+00
        -11   -1    0    0    0    0  0.00000000000E+00  0.00000000000E+00  0.45593999997E+02  0.45594000000E+02  0.51100000000E-03 0. -1.
         11   -1    0    0    0    0 -0.00000000000E+00 -0.00000000000E+00 -0.45593999997E+02  0.45594000000E+02  0.51100000000E-03 0.  1.
    9900012    2    1    2    0    0 -0.28905888714E-01 -0.62414683316E+00 -0.10013256533E+01  0.90007725505E+02  0.89999986682E+02 0.  0.
         12    1    1    2    0    0  0.28905888714E-01  0.62414683316E+00  0.10013256533E+01  0.11802744951E+01  0.00000000000E+00 0. -1.
         11    1    3    3    0    0 -0.75816403642E+01 -0.23637430301E+02  0.30489508147E+02  0.39316910982E+02  0.51100000000E-03 0. -1.
        -11    1    3    3    0    0 -0.87269671309E+01 -0.98921364632E-01 -0.49856429117E+00  0.87417565371E+01  0.51100000000E-03 0.  1.
        -12    1    3    3    0    0  0.16279701606E+02  0.23112204833E+02 -0.30992269509E+02  0.41949057986E+02  0.00000000000E+00 0.  1.
</event>
<event>
 7    1  0.1999542E-015  0.9000776E+02  0.7816164E-02  0.1186339E+00
        -11   -1    0    0    0    0  0.00000000000E+00  0.00000000000E+00  0.45593999997E+02  0.45594000000E+02  0.51100000000E-03 0.  1.
         11   -1    0    0    0    0 -0.00000000000E+00 -0.00000000000E+00 -0.45593999997E+02  0.45594000000E+02  0.51100000000E-03 0. -1.
    9900012    2    1    2    0    0  0.40218117278E+00  0.22873708129E+00  0.10857683463E+01  0.90007761359E+02  0.90000023009E+02 0.  0.
         12    1    1    2    0    0 -0.40218117278E+00 -0.22873708129E+00 -0.10857683463E+01  0.11802386411E+01  0.00000000000E+00 0. -1.
         11    1    3    3    0    0 -0.21634775045E+02 -0.24689730764E+02  0.14897574370E+02  0.36049743672E+02  0.51100000000E-03 0. -1.
        -11    1    3    3    0    0 -0.89346583677E+01  0.23280543801E+00  0.48576883188E+01  0.10172485172E+02  0.51100000000E-03 0.  1.
        -12    1    3    3    0    0  0.30971614586E+02  0.24685662408E+02 -0.18669494343E+02  0.43785532514E+02  0.00000000000E+00 0.  1.
</event>
<event>
 7    1  0.2121732E-015  0.9000785E+02  0.7816164E-02  0.1186339E+00
        -11   -1    0    0    0    0  0.00000000000E+00  0.00000000000E+00  0.45593999997E+02  0.45594000000E+02  0.51100000000E-03 0. -1.
         11   -1    0    0    0    0 -0.00000000000E+00 -0.00000000000E+00 -0.45593999997E+02  0.45594000000E+02  0.51100000000E-03 0.  1.
    9900012    2    1    2    0    0 -0.10107720762E+01 -0.57892543767E+00  0.18959523158E+00  0.90007846957E+02  0.90000109737E+02 0.  0.
         12    1    1    2    0    0  0.10107720762E+01  0.57892543767E+00 -0.18959523158E+00  0.11801530427E+01  0.00000000000E+00 0. -1.
         11    1    3    3    0    0 -0.21092016995E+02 -0.31848951431E+02  0.63207644093E+01  0.38719258143E+02  0.51100000000E-03 0. -1.
        -11    1    3    3    0    0  0.15966234841E+01 -0.29612204952E+01  0.89523682898E+01  0.95636254438E+01  0.51100000000E-03 0.  1.
        -12    1    3    3    0    0  0.18484621435E+02  0.34231246489E+02 -0.15083537468E+02  0.41724963371E+02  0.00000000000E+00 0.  1.
</event>
<event>
 7    1  0.1999542E-015  0.9000781E+02  0.7816164E-02  0.1186339E+00
        -11   -1    0    0    0    0  0.00000000000E+00  0.00000000000E+00  0.45593999997E+02  0.45594000000E+02  0.51100000000E-03 0.  1.
         11   -1    0    0    0    0 -0.00000000000E+00 -0.00000000000E+00 -0.45593999997E+02  0.45594000000E+02  0.51100000000E-03 0. -1.
    9900012    2    1    2    0    0  0.35940200276E+00 -0.10704187357E+01 -0.34335435416E+00  0.90007805829E+02  0.90000068066E+02 0.  0.
         12    1    1    2    0    0 -0.35940200276E+00  0.10704187357E+01  0.34335435416E+00  0.11801941713E+01  0.00000000000E+00 0. -1.
         11    1    3    3    0    0  0.33788000098E+02  0.11600903014E+01 -0.59179532420E+01  0.34321959894E+02  0.51100000000E-03 0. -1.
        -11    1    3    3    0    0  0.47956218074E+01 -0.18495935068E+01 -0.12415953623E+02  0.13437815645E+02  0.51100000000E-03 0.  1.
        -12    1    3    3    0    0 -0.38224219902E+02 -0.38091553034E+00  0.17990552511E+02  0.42248030291E+02  0.00000000000E+00 0.  1.
</event>
<event>
 7    1  0.1999542E-015  0.9000770E+02  0.7816164E-02  0.1186339E+00
        -11   -1    0    0    0    0  0.00000000000E+00  0.00000000000E+00  0.45593999997E+02  0.45594000000E+02  0.51100000000E-03 0. -1.
         11   -1    0    0    0    0 -0.00000000000E+00 -0.00000000000E+00 -0.45593999997E+02  0.45594000000E+02  0.51100000000E-03 0.  1.
    9900012    2    1    2    0    0 -0.82958810223E+00  0.59336937862E+00 -0.59398151080E+00  0.90007695940E+02  0.89999956726E+02 0.  0.
         12    1    1    2    0    0  0.82958810223E+00 -0.59336937862E+00  0.59398151080E+00  0.11803040600E+01  0.00000000000E+00 0. -1.
         11    1    3    3    0    0  0.15041157152E+01 -0.34354865142E+01  0.96794645185E+01  0.10380605247E+02  0.51100000000E-03 0. -1.
        -11    1    3    3    0    0  0.13202246943E+02 -0.34746502842E+02 -0.57208844371E+01  0.37607809070E+02  0.51100000000E-03 0.  1.
         12    1    3    3    0    0 -0.15535950760E+02  0.38775358734E+02 -0.45525615922E+01  0.42019281622E+02  0.00000000000E+00 0. -1.
</event>
<event>
 7    1  0.1999542E-015  0.9000770E+02  0.7816164E-02  0.1186339E+00
        -11   -1    0    0    0    0  0.00000000000E+00  0.00000000000E+00  0.45593999997E+02  0.45594000000E+02  0.51100000000E-03 0.  1.
         11   -1    0    0    0    0 -0.00000000000E+00 -0.00000000000E+00 -0.45593999997E+02  0.45594000000E+02  0.51100000000E-03 0. -1.
    9900012    2    1    2    0    0  0.24295562226E+00 -0.40516197613E+00  0.10816349714E+01  0.90007695856E+02  0.89999956641E+02 0.  0.
         12    1    1    2    0    0 -0.24295562226E+00  0.40516197613E+00 -0.10816349714E+01  0.11803041441E+01  0.00000000000E+00 0. -1.
         11    1    3    3    0    0 -0.26041231099E+01  0.82885049413E+01  0.16545121781E+01  0.88441043720E+01  0.51100000000E-03 0. -1.
        -11    1    3    3    0    0 -0.31426941781E+02  0.78766605089E+01  0.19815527998E+02  0.37978278009E+02  0.51100000000E-03 0.  1.
         12    1    3    3    0    0  0.34274020513E+02 -0.16570327426E+02 -0.20388405205E+02  0.43185313475E+02  0.00000000000E+00 0. -1.
</event>
<event>
 7    1  0.1999542E-015  0.9000777E+02  0.7816164E-02  0.1186339E+00
        -11   -1    0    0    0    0  0.00000000000E+00  0.00000000000E+00  0.45593999997E+02  0.45594000000E+02  0.51100000000E-03 0.  1.
         11   -1    0    0    0    0 -0.00000000000E+00 -0.00000000000E+00 -0.45593999997E+02  0.45594000000E+02  0.51100000000E-03 0. -1.
    9900012    2    1    2    0    0 -0.10374804473E+01 -0.18366958333E+00  0.53182494676E+00  0.90007772069E+02  0.90000033861E+02 0.  0.
         12    1    1    2    0    0  0.10374804473E+01  0.18366958333E+00 -0.53182494676E+00  0.11802279307E+01  0.00000000000E+00 0. -1.
         11    1    3    3    0    0  0.12189711511E+01 -0.73694629739E+01 -0.26080377868E+02  0.27128969483E+02  0.51100000000E-03 0. -1.
        -11    1    3    3    0    0 -0.20895223817E+02 -0.11606904577E+01 -0.82340855868E+01  0.22489058371E+02  0.51100000000E-03 0.  1.
        -12    1    3    3    0    0  0.18638772218E+02  0.83464838482E+01  0.34846288402E+02  0.40389744216E+02  0.00000000000E+00 0.  1.
</event>
<event>
 7    1  0.1999542E-015  0.9000781E+02  0.7816164E-02  0.1186339E+00
        -11   -1    0    0    0    0  0.00000000000E+00  0.00000000000E+00  0.45593999997E+02  0.45594000000E+02  0.51100000000E-03 0.  1.
         11   -1    0    0    0    0 -0.00000000000E+00 -0.00000000000E+00 -0.45593999997E+02  0.45594000000E+02  0.51100000000E-03 0. -1.
    9900012    2    1    2    0    0 -0.10143272000E+01  0.48950476382E+00 -0.35267409103E+00  0.90007807814E+02  0.90000070077E+02 0.  0.
         12    1    1    2    0    0  0.10143272000E+01 -0.48950476382E+00  0.35267409103E+00  0.11801921864E+01  0.00000000000E+00 0. -1.
         11    1    3    3    0    0 -0.28909892360E+00  0.52453056617E+00  0.93541564979E+01  0.93733107572E+01  0.51100000000E-03 0. -1.
        -11    1    3    3    0    0 -0.16747922632E+02 -0.22577199814E+02  0.24050090511E+02  0.36994995848E+02  0.51100000000E-03 0.  1.
         12    1    3    3    0    0  0.16022694356E+02  0.22542174011E+02 -0.33756921100E+02  0.43639501209E+02  0.00000000000E+00 0. -1.
</event>
<event>
 7    1  0.1999542E-015  0.9000774E+02  0.7816164E-02  0.1186339E+00
        -11   -1    0    0    0    0  0.00000000000E+00  0.00000000000E+00  0.45593999997E+02  0.45594000000E+02  0.51100000000E-03 0. -1.
         11   -1    0    0    0    0 -0.00000000000E+00 -0.00000000000E+00 -0.45593999997E+02  0.45594000000E+02  0.51100000000E-03 0.  1.
    9900012    2    1    2    0    0 -0.62149876363E+00 -0.76836580108E+00  0.64527113487E+00  0.90007736659E+02  0.89999997983E+02 0.  0.
         12    1    1    2    0    0  0.62149876363E+00  0.76836580108E+00 -0.64527113487E+00  0.11802633414E+01  0.00000000000E+00 0. -1.
         11    1    3    3    0    0  0.12814358380E+02 -0.20180742597E+02  0.28449687980E+02  0.37159856013E+02  0.51100000000E-03 0. -1.
        -11    1    3    3    0    0  0.10848476869E+02  0.46665396761E+01  0.16501355398E+01  0.11924302516E+02  0.51100000000E-03 0.  1.
        -12    1    3    3    0    0 -0.24284334012E+02  0.14745837120E+02 -0.29454552385E+02  0.40923578130E+02  0.00000000000E+00 0.  1.
</event>
<event>
 7    1  0.1999542E-015  0.9000720E+02  0.7816164E-02  0.1186340E+00
        -11   -1    0    0    0    0  0.00000000000E+00  0.00000000000E+00  0.45593999997E+02  0.45594000000E+02  0.51100000000E-03 0.  1.
         11   -1    0    0    0    0 -0.00000000000E+00 -0.00000000000E+00 -0.45593999997E+02  0.45594000000E+02  0.51100000000E-03 0. -1.
    9900012    2    1    2    0    0 -0.65955579400E+00  0.93466336495E+00  0.29270523917E+00  0.90007201199E+02  0.89999455453E+02 0.  0.
         12    1    1    2    0    0  0.65955579400E+00 -0.93466336495E+00 -0.29270523917E+00  0.11807988009E+01  0.00000000000E+00 0. -1.
         11    1    3    3    0    0 -0.53871923443E+01  0.40710088755E+01 -0.73326806097E+01  0.99681071324E+01  0.51100000000E-03 0. -1.
        -11    1    3    3    0    0 -0.28379295426E+02 -0.21533764552E+02  0.19155448777E+02  0.40447727288E+02  0.51100000000E-03 0.  1.
         12    1    3    3    0    0  0.33106931976E+02  0.18397419042E+02 -0.11530062928E+02  0.39591366779E+02  0.00000000000E+00 0. -1.
</event>
<event>
 7    1  0.1999542E-015  0.9000772E+02  0.7816164E-02  0.1186339E+00
        -11   -1    0    0    0    0  0.00000000000E+00  0.00000000000E+00  0.45593999997E+02  0.45594000000E+02  0.51100000000E-03 0.  1.
         11   -1    0    0    0    0 -0.00000000000E+00 -0.00000000000E+00 -0.45593999997E+02  0.45594000000E+02  0.51100000000E-03 0. -1.
    9900012    2    1    2    0    0 -0.85096272509E+00 -0.14049967191E+00  0.80571344415E+00  0.90007723816E+02  0.89999984970E+02 0.  0.
         12    1    1    2    0    0  0.85096272509E+00  0.14049967191E+00 -0.80571344415E+00  0.11802761844E+01  0.00000000000E+00 0. -1.
         11    1    3    3    0    0  0.10105571452E+00  0.12090454578E+02  0.76176354711E+01  0.14290474960E+02  0.51100000000E-03 0. -1.
        -11    1    3    3    0    0  0.30793282612E+02 -0.22135058053E+02  0.88757706136E+01  0.38948252250E+02  0.51100000000E-03 0.  1.
         12    1    3    3    0    0 -0.31745301052E+02  0.99041038030E+01 -0.15687692641E+02  0.36768996606E+02  0.00000000000E+00 0. -1.
</event>
<event>
 7    1  0.1999542E-015  0.9000775E+02  0.7816164E-02  0.1186339E+00
        -11   -1    0    0    0    0  0.00000000000E+00  0.00000000000E+00  0.45593999997E+02  0.45594000000E+02  0.51100000000E-03 0. -1.
         11   -1    0    0    0    0 -0.00000000000E+00 -0.00000000000E+00 -0.45593999997E+02  0.45594000000E+02  0.51100000000E-03 0.  1.
    9900012    2    1    2    0    0 -0.10343830342E+01  0.10041227690E-01 -0.56828654258E+00  0.90007746348E+02  0.90000007800E+02 0.  0.
         12    1    1    2    0    0  0.10343830342E+01 -0.10041227690E-01  0.56828654258E+00  0.11802536516E+01  0.00000000000E+00 0. -1.
         11    1    3    3    0    0  0.51938713164E+01 -0.22874702726E+01  0.81219435593E+01  0.99083190775E+01  0.51100000000E-03 0. -1.
        -11    1    3    3    0    0  0.20584357785E+02  0.29509740339E+02 -0.18781418397E+02  0.40586724894E+02  0.51100000000E-03 0.  1.
         12    1    3    3    0    0 -0.26812612136E+02 -0.27212228839E+02  0.10091188295E+02  0.39512702377E+02  0.00000000000E+00 0. -1.
</event>
<event>
 7    1  0.1999542E-015  0.9000786E+02  0.7816164E-02  0.1186339E+00
        -11   -1    0    0    0    0  0.00000000000E+00  0.00000000000E+00  0.45593999997E+02  0.45594000000E+02  0.51100000000E-03 0.  1.
         11   -1    0    0    0    0 -0.00000000000E+00 -0.00000000000E+00 -0.45593999997E+02  0.45594000000E+02  0.51100000000E-03 0. -1.
    9900012    2    1    2    0    0  0.10749605318E+00  0.80916047645E+00  0.85231051740E+00  0.90007860476E+02  0.90000123434E+02 0.  0.
         12    1    1    2    0    0 -0.10749605318E+00 -0.80916047645E+00 -0.85231051740E+00  0.11801395240E+01  0.00000000000E+00 0. -1.
         11    1    3    3    0    0 -0.34891046447E+01 -0.66143657670E+01  0.11478027284E+02  0.13699226121E+02  0.51100000000E-03 0. -1.
        -11    1    3    3    0    0 -0.29165023004E+02 -0.40954161167E+01  0.15094085259E+02  0.33093842479E+02  0.51100000000E-03 0.  1.
         12    1    3    3    0    0  0.32761623701E+02  0.11518942360E+02 -0.25719802025E+02  0.43214791876E+02  0.00000000000E+00 0. -1.
</event>
<event>
 7    1  0.1999542E-015  0.9000779E+02  0.7816164E-02  0.1186339E+00
        -11   -1    0    0    0    0  0.00000000000E+00  0.00000000000E+00  0.45593999997E+02  0.45594000000E+02  0.51100000000E-03 0. -1.
         11   -1    0    0    0    0 -0.00000000000E+00 -0.00000000000E+00 -0.45593999997E+02  0.45594000000E+02  0.51100000000E-03 0.  1.
    9900012    2    1    2    0    0  0.94716195644E+00  0.26703906296E+00  0.65151313764E+00  0.90007790272E+02  0.90000052304E+02 0.  0.
         12    1    1    2    0    0 -0.94716195644E+00 -0.26703906296E+00 -0.65151313764E+00  0.11802097277E+01  0.00000000000E+00 0. -1.
         11    1    3    3    0    0 -0.83129877168E+01  0.19603391485E+01  0.53596962769E+01  0.10083404127E+02  0.51100000000E-03 0. -1.
        -11    1    3    3    0    0 -0.33701409109E+02 -0.83417463776E+01  0.57997180744E+01  0.35199523272E+02  0.51100000000E-03 0.  1.
         12    1    3    3    0    0  0.42961558782E+02  0.66484462921E+01 -0.10507901214E+02  0.44724862873E+02  0.00000000000E+00 0. -1.
</event>
<event>
 7    1  0.1999542E-015  0.9000773E+02  0.7816164E-02  0.1186339E+00
        -11   -1    0    0    0    0  0.00000000000E+00  0.00000000000E+00  0.45593999997E+02  0.45594000000E+02  0.51100000000E-03 0.  1.
         11   -1    0    0    0    0 -0.00000000000E+00 -0.00000000000E+00 -0.45593999997E+02  0.45594000000E+02  0.51100000000E-03 0. -1.
    9900012    2    1    2    0    0  0.13629014793E+00 -0.21979768565E+00  0.11515858013E+01  0.90007730588E+02  0.89999991832E+02 0.  0.
         12    1    1    2    0    0 -0.13629014793E+00  0.21979768565E+00 -0.11515858013E+01  0.11802694119E+01  0.00000000000E+00 0. -1.
         11    1    3    3    0    0 -0.22243203998E+02 -0.20825334900E+02 -0.20969294394E+02  0.36988728087E+02  0.51100000000E-03 0. -1.
        -11    1    3    3    0    0 -0.52360495401E+01 -0.68057602057E+01  0.73299808271E+00  0.86181130890E+01  0.51100000000E-03 0.  1.
        -12    1    3    3    0    0  0.27615543687E+02  0.27411297421E+02  0.21387882112E+02  0.44400889413E+02  0.00000000000E+00 0.  1.
</event>
<event>
 7    1  0.1999542E-015  0.9000767E+02  0.7816164E-02  0.1186339E+00
        -11   -1    0    0    0    0  0.00000000000E+00  0.00000000000E+00  0.45593999997E+02  0.45594000000E+02  0.51100000000E-03 0.  1.
         11   -1    0    0    0    0 -0.00000000000E+00 -0.00000000000E+00 -0.45593999997E+02  0.45594000000E+02  0.51100000000E-03 0. -1.
    9900012    2    1    2    0    0  0.27091215117E-01 -0.72910673142E+00  0.92781349674E+00  0.90007674433E+02  0.89999934935E+02 0.  0.
         12    1    1    2    0    0 -0.27091215117E-01  0.72910673142E+00 -0.92781349674E+00  0.11803255671E+01  0.00000000000E+00 0. -1.
         11    1    3    3    0    0 -0.11317573367E+02  0.49727840902E-01 -0.52408122178E-01  0.11317803967E+02  0.51100000000E-03 0. -1.
        -11    1    3    3    0    0 -0.76201935530E+01 -0.12811681364E+02  0.34933025283E+02  0.37980557985E+02  0.51100000000E-03 0.  1.
         12    1    3    3    0    0  0.18964858135E+02  0.12032846792E+02 -0.33952803664E+02  0.40709312481E+02  0.00000000000E+00 0. -1.
</event>
<event>
 7    1  0.1999542E-015  0.9000776E+02  0.7816164E-02  0.1186339E+00
        -11   -1    0    0    0    0  0.00000000000E+00  0.00000000000E+00  0.45593999997E+02  0.45594000000E+02  0.51100000000E-03 0. -1.
         11   -1    0    0    0    0 -0.00000000000E+00 -0.00000000000E+00 -0.45593999997E+02  0.45594000000E+02  0.51100000000E-03 0.  1.
    9900012    2    1    2    0    0 -0.92460921562E+00  0.26836382998E+00 -0.68268228756E+00  0.90007755766E+02  0.90000017342E+02 0.  0.
         12    1    1    2    0    0  0.92460921562E+00 -0.26836382998E+00  0.68268228756E+00  0.11802442343E+01  0.00000000000E+00 0. -1.
         11    1    3    3    0    0  0.13416903387E+02  0.28033117469E+00 -0.23929424287E+01  0.13631509667E+02  0.51100000000E-03 0. -1.
        -11    1    3    3    0    0  0.59925153694E+01  0.25963883676E+02 -0.22967791291E+02  0.35178870548E+02  0.51100000000E-03 0.  1.
         12    1    3    3    0    0 -0.20334027972E+02 -0.25975851020E+02  0.24678051432E+02  0.41197375551E+02  0.00000000000E+00 0. -1.
</event>
<event>
 7    1  0.1999542E-015  0.9000773E+02  0.7816164E-02  0.1186339E+00
        -11   -1    0    0    0    0  0.00000000000E+00  0.00000000000E+00  0.45593999997E+02  0.45594000000E+02  0.51100000000E-03 0. -1.
         11   -1    0    0    0    0 -0.00000000000E+00 -0.00000000000E+00 -0.45593999997E+02  0.45594000000E+02  0.51100000000E-03 0.  1.
    9900012    2    1    2    0    0  0.65684208027E+00 -0.10692987948E+00 -0.97476819047E+00  0.90007725226E+02  0.89999986399E+02 0.  0.
         12    1    1    2    0    0 -0.65684208027E+00  0.10692987948E+00  0.97476819047E+00  0.11802747742E+01  0.00000000000E+00 0. -1.
         11    1    3    3    0    0 -0.14927554382E+02  0.91503437190E+01  0.32441444314E+02  0.36864725409E+02  0.51100000000E-03 0. -1.
        -11    1    3    3    0    0  0.83428795196E+00 -0.10098659024E+02  0.54909759972E+01  0.11525179744E+02  0.51100000000E-03 0.  1.
        -12    1    3    3    0    0  0.14750108511E+02  0.84138542522E+00 -0.38907188502E+02  0.41617820073E+02  0.00000000000E+00 0.  1.
</event>
<event>
 7    1  0.1999542E-015  0.9000772E+02  0.7816164E-02  0.1186339E+00
        -11   -1    0    0    0    0  0.00000000000E+00  0.00000000000E+00  0.45593999997E+02  0.45594000000E+02  0.51100000000E-03 0.  1.
         11   -1    0    0    0    0 -0.00000000000E+00 -0.00000000000E+00 -0.45593999997E+02  0.45594000000E+02  0.51100000000E-03 0. -1.
    9900012    2    1    2    0    0  0.87844830812E+00  0.38358272235E+00  0.68866846280E+00  0.90007715548E+02  0.89999976594E+02 0.  0.
         12    1    1    2    0    0 -0.87844830812E+00 -0.38358272235E+00 -0.68866846280E+00  0.11802844516E+01  0.00000000000E+00 0. -1.
         11    1    3    3    0    0  0.66877643467E+00 -0.21207732690E+02 -0.33133103828E+02  0.39344856809E+02  0.51100000000E-03 0. -1.
        -11    1    3    3    0    0 -0.60218682641E+01 -0.64760323301E+01  0.97743673642E+01  0.13181052680E+02  0.51100000000E-03 0.  1.
        -12    1    3    3    0    0  0.62315401376E+01  0.28067347742E+02  0.24047404927E+02  0.37481806059E+02  0.00000000000E+00 0.  1.
</event>
<event>
 7    1  0.1999542E-015  0.9000770E+02  0.7816164E-02  0.1186339E+00
        -11   -1    0    0    0    0  0.00000000000E+00  0.00000000000E+00  0.45593999997E+02  0.45594000000E+02  0.51100000000E-03 0. -1.
         11   -1    0    0    0    0 -0.00000000000E+00 -0.00000000000E+00 -0.45593999997E+02  0.45594000000E+02  0.51100000000E-03 0.  1.
    9900012    2    1    2    0    0 -0.10730677579E+01  0.56052920675E-01 -0.48835833066E+00  0.90007699105E+02  0.89999959933E+02 0.  0.
         12    1    1    2    0    0  0.10730677579E+01 -0.56052920675E-01  0.48835833066E+00  0.11803008947E+01  0.00000000000E+00 0. -1.
         11    1    3    3    0    0  0.11608713970E+01  0.54777694020E+01  0.29718304903E+02  0.30241217347E+02  0.51100000000E-03 0. -1.
        -11    1    3    3    0    0  0.12091354870E+02 -0.68972457815E+00  0.10703638040E+02  0.16163058193E+02  0.51100000000E-03 0.  1.
        -12    1    3    3    0    0 -0.14325294025E+02 -0.47319919032E+01 -0.40910301274E+02  0.43603423565E+02  0.00000000000E+00 0.  1.
</event>
<event>
 7    1  0.1999542E-015  0.9000772E+02  0.7816164E-02  0.1186339E+00
        -11   -1    0    0    0    0  0.00000000000E+00  0.00000000000E+00  0.45593999997E+02  0.45594000000E+02  0.51100000000E-03 0.  1.
         11   -1    0    0    0    0 -0.00000000000E+00 -0.00000000000E+00 -0.45593999997E+02  0.45594000000E+02  0.51100000000E-03 0. -1.
    9900012    2    1    2    0    0 -0.10251093032E+01 -0.27407449959E+00 -0.51682135084E+00  0.90007716041E+02  0.89999977093E+02 0.  0.
         12    1    1    2    0    0  0.10251093032E+01  0.27407449959E+00  0.51682135084E+00  0.11802839588E+01  0.00000000000E+00 0. -1.
         11    1    3    3    0    0  0.13987288325E+02  0.36068818284E+01 -0.66725009925E+01  0.15911508444E+02  0.51100000000E-03 0. -1.
        -11    1    3    3    0    0  0.20762873510E+01  0.33042212511E+02  0.14506782325E+01  0.33139149723E+02  0.51100000000E-03 0.  1.
         12    1    3    3    0    0 -0.17088684979E+02 -0.36923168839E+02  0.47050014091E+01  0.40957057874E+02  0.00000000000E+00 0. -1.
</event>
<event>
 7    1  0.1999542E-015  0.9000772E+02  0.7816164E-02  0.1186339E+00
        -11   -1    0    0    0    0  0.00000000000E+00  0.00000000000E+00  0.45593999997E+02  0.45594000000E+02  0.51100000000E-03 0.  1.
         11   -1    0    0    0    0 -0.00000000000E+00 -0.00000000000E+00 -0.45593999997E+02  0.45594000000E+02  0.51100000000E-03 0. -1.
    9900012    2    1    2    0    0 -0.94627352367E+00  0.43537814713E+00 -0.55505286858E+00  0.90007715543E+02  0.89999976588E+02 0.  0.
         12    1    1    2    0    0  0.94627352367E+00 -0.43537814713E+00  0.55505286858E+00  0.11802844570E+01  0.00000000000E+00 0. -1.
         11    1    3    3    0    0 -0.92265343634E-01 -0.19047840648E+01 -0.10215389052E+02  0.10391866482E+02  0.51100000000E-03 0. -1.
        -11    1    3    3    0    0 -0.34500111867E+02 -0.68439155117E+01 -0.13582208590E+02  0.37703756958E+02  0.51100000000E-03 0.  1.
         12    1    3    3    0    0  0.33646103686E+02  0.91840777237E+01  0.23242544773E+02  0.41912092103E+02  0.00000000000E+00 0. -1.
</event>
<event>
 7    1  0.1999542E-015  0.9000767E+02  0.7816164E-02  0.1186339E+00
        -11   -1    0    0    0    0  0.00000000000E+00  0.00000000000E+00  0.45593999997E+02  0.45594000000E+02  0.51100000000E-03 0.  1.
         11   -1    0    0    0    0 -0.00000000000E+00 -0.00000000000E+00 -0.45593999997E+02  0.45594000000E+02  0.51100000000E-03 0. -1.
    9900012    2    1    2    0    0  0.18759328238E+00 -0.81582194946E+00  0.83211714182E+00  0.90007671389E+02  0.89999931851E+02 0.  0.
         12    1    1    2    0    0 -0.18759328238E+00  0.81582194946E+00 -0.83211714182E+00  0.11803286112E+01  0.00000000000E+00 0. -1.
         11    1    3    3    0    0  0.17764896755E+02  0.16161023552E+02 -0.27036430664E+02  0.36162671670E+02  0.51100000000E-03 0. -1.
        -11    1    3    3    0    0 -0.21518234767E+01  0.54996897897E+01 -0.72734909446E+01  0.93691303140E+01  0.51100000000E-03 0.  1.
        -12    1    3    3    0    0 -0.15425479996E+02 -0.22476535292E+02  0.35142038750E+02  0.44475869405E+02  0.00000000000E+00 0.  1.
</event>
<event>
 7    1  0.1999542E-015  0.9000785E+02  0.7816164E-02  0.1186339E+00
        -11   -1    0    0    0    0  0.00000000000E+00  0.00000000000E+00  0.45593999997E+02  0.45594000000E+02  0.51100000000E-03 0.  1.
         11   -1    0    0    0    0 -0.00000000000E+00 -0.00000000000E+00 -0.45593999997E+02  0.45594000000E+02  0.51100000000E-03 0. -1.
    9900012    2    1    2    0    0  0.57812479090E+00 -0.47130674723E+00  0.91454856062E+00  0.90007848572E+02  0.90000111373E+02 0.  0.
         12    1    1    2    0    0 -0.57812479090E+00  0.47130674723E+00 -0.91454856062E+00  0.11801514282E+01  0.00000000000E+00 0. -1.
         11    1    3    3    0    0 -0.46758383255E+01 -0.88615389879E+01 -0.10142160693E+02  0.14256709335E+02  0.51100000000E-03 0. -1.
        -11    1    3    3    0    0 -0.12514524675E+02 -0.20412186093E+02  0.28870321880E+02  0.37506881431E+02  0.51100000000E-03 0.  1.
        -12    1    3    3    0    0  0.17768487791E+02  0.28802418334E+02 -0.17813612626E+02  0.38244257805E+02  0.00000000000E+00 0.  1.
</event>
<event>
 7    1  0.1999542E-015  0.9000770E+02  0.7816164E-02  0.1186339E+00
        -11   -1    0    0    0    0  0.00000000000E+00  0.00000000000E+00  0.45593999997E+02  0.45594000000E+02  0.51100000000E-03 0.  1.
         11   -1    0    0    0    0 -0.00000000000E+00 -0.00000000000E+00 -0.45593999997E+02  0.45594000000E+02  0.51100000000E-03 0. -1.
    9900012    2    1    2    0    0  0.29561342350E-01 -0.93462184532E+00  0.72022437566E+00  0.90007697065E+02  0.89999957866E+02 0.  0.
         12    1    1    2    0    0 -0.29561342350E-01  0.93462184532E+00 -0.72022437566E+00  0.11803029348E+01  0.00000000000E+00 0. -1.
         11    1    3    3    0    0  0.61247875512E+01 -0.86165781388E+01  0.10191990443E+02  0.14684519428E+02  0.51100000000E-03 0. -1.
        -11    1    3    3    0    0 -0.17832646446E+02  0.36817206469E+01  0.29366367484E+02  0.34553464163E+02  0.51100000000E-03 0.  1.
         12    1    3    3    0    0  0.11737420237E+02  0.40002356465E+01 -0.38838133551E+02  0.40769713475E+02  0.00000000000E+00 0. -1.
</event>
<event>
 7    1  0.1999542E-015  0.9000773E+02  0.7816164E-02  0.1186339E+00
        -11   -1    0    0    0    0  0.00000000000E+00  0.00000000000E+00  0.45593999997E+02  0.45594000000E+02  0.51100000000E-03 0.  1.
         11   -1    0    0    0    0 -0.00000000000E+00 -0.00000000000E+00 -0.45593999997E+02  0.45594000000E+02  0.51100000000E-03 0. -1.
    9900012    2    1    2    0    0  0.11761110927E+00 -0.11738620330E+01 -0.35393922861E-01  0.90007730041E+02  0.89999991278E+02 0.  0.
         12    1    1    2    0    0 -0.11761110927E+00  0.11738620330E+01  0.35393922861E-01  0.11802699587E+01  0.00000000000E+00 0. -1.
         11    1    3    3    0    0  0.19960361881E+02  0.11530880126E+02 -0.16094465699E+02  0.28114214720E+02  0.51100000000E-03 0. -1.
        -11    1    3    3    0    0  0.18187405704E+02  0.32576551762E+01  0.37723546227E+01  0.18858014295E+02  0.51100000000E-03 0.  1.
        -12    1    3    3    0    0 -0.38030156475E+02 -0.15962397335E+02  0.12286717154E+02  0.43035501027E+02  0.00000000000E+00 0.  1.
</event>
<event>
 7    1  0.1999542E-015  0.9000744E+02  0.7816164E-02  0.1186340E+00
        -11   -1    0    0    0    0  0.00000000000E+00  0.00000000000E+00  0.45593999997E+02  0.45594000000E+02  0.51100000000E-03 0.  1.
         11   -1    0    0    0    0 -0.00000000000E+00 -0.00000000000E+00 -0.45593999997E+02  0.45594000000E+02  0.51100000000E-03 0. -1.
    9900012    2    1    2    0    0 -0.38062994907E+00 -0.11019298878E+01  0.18600500042E+00  0.90007438059E+02  0.89999695441E+02 0.  0.
         12    1    1    2    0    0  0.38062994907E+00  0.11019298878E+01 -0.18600500042E+00  0.11805619407E+01  0.00000000000E+00 0. -1.
         11    1    3    3    0    0 -0.11882060586E+02  0.52061578436E+01 -0.38635425799E+02  0.40755166178E+02  0.51100000000E-03 0. -1.
        -11    1    3    3    0    0 -0.37957504270E+01  0.61175302173E+01  0.19734174603E+01  0.74650032818E+01  0.51100000000E-03 0.  1.
        -12    1    3    3    0    0  0.15297181064E+02 -0.12425617949E+02  0.36848013339E+02  0.41787268599E+02  0.00000000000E+00 0.  1.
</event>
<event>
 7    1  0.1999542E-015  0.9000770E+02  0.7816164E-02  0.1186339E+00
        -11   -1    0    0    0    0  0.00000000000E+00  0.00000000000E+00  0.45593999997E+02  0.45594000000E+02  0.51100000000E-03 0.  1.
         11   -1    0    0    0    0 -0.00000000000E+00 -0.00000000000E+00 -0.45593999997E+02  0.45594000000E+02  0.51100000000E-03 0. -1.
    9900012    2    1    2    0    0 -0.86358552099E+00 -0.57040299952E+00  0.56741503237E+00  0.90007703701E+02  0.89999964590E+02 0.  0.
         12    1    1    2    0    0  0.86358552099E+00  0.57040299952E+00 -0.56741503237E+00  0.11802962988E+01  0.00000000000E+00 0. -1.
         11    1    3    3    0    0 -0.75569952227E+01  0.88642555236E+00 -0.59433694135E+01  0.96549245104E+01  0.51100000000E-03 0. -1.
        -11    1    3    3    0    0 -0.14905186427E+01 -0.33183034613E+02 -0.19501210845E+02  0.38517952394E+02  0.51100000000E-03 0.  1.
         12    1    3    3    0    0  0.81839283444E+01  0.31726206061E+02  0.26011995290E+02  0.41834826797E+02  0.00000000000E+00 0. -1.
</event>
<event>
 7    1  0.1999542E-015  0.9000785E+02  0.7816164E-02  0.1186339E+00
        -11   -1    0    0    0    0  0.00000000000E+00  0.00000000000E+00  0.45593999997E+02  0.45594000000E+02  0.51100000000E-03 0. -1.
         11   -1    0    0    0    0 -0.00000000000E+00 -0.00000000000E+00 -0.45593999997E+02  0.45594000000E+02  0.51100000000E-03 0.  1.
    9900012    2    1    2    0    0 -0.75900290737E+00 -0.63788707934E+00 -0.64013345627E+00  0.90007849085E+02  0.90000111893E+02 0.  0.
         12    1    1    2    0    0  0.75900290737E+00  0.63788707934E+00  0.64013345627E+00  0.11801509146E+01  0.00000000000E+00 0. -1.
         11    1    3    3    0    0  0.73754329706E+01  0.46889329095E+01 -0.32785296476E+01  0.93344448279E+01  0.51100000000E-03 0. -1.
        -11    1    3    3    0    0 -0.49826592439E+01  0.31490342352E+02 -0.19716092908E+02  0.37485902342E+02  0.51100000000E-03 0.  1.
         12    1    3    3    0    0 -0.31517766341E+01 -0.36817162341E+02  0.22354489099E+02  0.43187501915E+02  0.00000000000E+00 0. -1.
</event>
<event>
 7    1  0.1999542E-015  0.9000771E+02  0.7816164E-02  0.1186339E+00
        -11   -1    0    0    0    0  0.00000000000E+00  0.00000000000E+00  0.45593999997E+02  0.45594000000E+02  0.51100000000E-03 0. -1.
         11   -1    0    0    0    0 -0.00000000000E+00 -0.00000000000E+00 -0.45593999997E+02  0.45594000000E+02  0.51100000000E-03 0.  1.
    9900012    2    1    2    0    0 -0.11413293314E+01  0.27997587403E+00  0.10988125118E+00  0.90007706383E+02  0.89999967307E+02 0.  0.
         12    1    1    2    0    0  0.11413293314E+01 -0.27997587403E+00 -0.10988125118E+00  0.11802936169E+01  0.00000000000E+00 0. -1.
         11    1    3    3    0    0  0.10088131536E+02 -0.32968718375E+02  0.15112110548E+02  0.37644158573E+02  0.51100000000E-03 0. -1.
        -11    1    3    3    0    0  0.69699258823E+01 -0.38646067480E+01 -0.62100023411E+01  0.10103424244E+02  0.51100000000E-03 0.  1.
        -12    1    3    3    0    0 -0.18199386750E+02  0.37113300997E+02 -0.87922269553E+01  0.42260123566E+02  0.00000000000E+00 0.  1.
</event>
<event>
 7    1  0.1999542E-015  0.9000760E+02  0.7816164E-02  0.1186339E+00
        -11   -1    0    0    0    0  0.00000000000E+00  0.00000000000E+00  0.45593999997E+02  0.45594000000E+02  0.51100000000E-03 0.  1.
         11   -1    0    0    0    0 -0.00000000000E+00 -0.00000000000E+00 -0.45593999997E+02  0.45594000000E+02  0.51100000000E-03 0. -1.
    9900012    2    1    2    0    0 -0.74811340680E+00  0.60740163407E+00  0.68171656491E+00  0.90007598420E+02  0.89999857919E+02 0.  0.
         12    1    1    2    0    0  0.74811340680E+00 -0.60740163407E+00 -0.68171656491E+00  0.11804015797E+01  0.00000000000E+00 0. -1.
         11    1    3    3    0    0 -0.57242829056E+01 -0.37851996983E+02 -0.11435984691E+02  0.39954009016E+02  0.51100000000E-03 0. -1.
        -11    1    3    3    0    0  0.56804035133E+01 -0.33185139053E+01  0.32559656813E+01  0.73403563532E+01  0.51100000000E-03 0.  1.
        -12    1    3    3    0    0 -0.70423401449E+00  0.41777912522E+02  0.88617355744E+01  0.42713233051E+02  0.00000000000E+00 0.  1.
</event>
<event>
 7    1  0.1999542E-015  0.9000720E+02  0.7816164E-02  0.1186340E+00
        -11   -1    0    0    0    0  0.00000000000E+00  0.00000000000E+00  0.45593999997E+02  0.45594000000E+02  0.51100000000E-03 0.  1.
         11   -1    0    0    0    0 -0.00000000000E+00 -0.00000000000E+00 -0.45593999997E+02  0.45594000000E+02  0.51100000000E-03 0. -1.
    9900012    2    1    2    0    0  0.97581012960E+00  0.21767767159E+00  0.62825196603E+00  0.90007199631E+02  0.89999453865E+02 0.  0.
         12    1    1    2    0    0 -0.97581012960E+00 -0.21767767159E+00 -0.62825196603E+00  0.11808003686E+01  0.00000000000E+00 0. -1.
         11    1    3    3    0    0  0.78479627414E+01 -0.76822674957E+01  0.10667514297E+01  0.11033843933E+02  0.51100000000E-03 0. -1.
        -11    1    3    3    0    0 -0.11632702616E+02 -0.22662138653E+02  0.27362808364E+02  0.37384697140E+02  0.51100000000E-03 0.  1.
         12    1    3    3    0    0  0.47605500043E+01  0.30562083820E+02 -0.27801307827E+02  0.41588658558E+02  0.00000000000E+00 0. -1.
</event>
<event>
 7    1  0.1999542E-015  0.9000765E+02  0.7816164E-02  0.1186339E+00
        -11   -1    0    0    0    0  0.00000000000E+00  0.00000000000E+00  0.45593999997E+02  0.45594000000E+02  0.51100000000E-03 0.  1.
         11   -1    0    0    0    0 -0.00000000000E+00 -0.00000000000E+00 -0.45593999997E+02  0.45594000000E+02  0.51100000000E-03 0. -1.
    9900012    2    1    2    0    0  0.82872476017E+00  0.48880175344E+00 -0.68375770374E+00  0.90007645613E+02  0.89999905735E+02 0.  0.
         12    1    1    2    0    0 -0.82872476017E+00 -0.48880175344E+00  0.68375770374E+00  0.11803543873E+01  0.00000000000E+00 0. -1.
         11    1    3    3    0    0  0.13953884613E+02 -0.32496428767E+02 -0.20392099043E+02  0.40823602022E+02  0.51100000000E-03 0. -1.
        -11    1    3    3    0    0  0.98889387382E+00 -0.47080065767E+01  0.22789691134E+01  0.53232450161E+01  0.51100000000E-03 0.  1.
        -12    1    3    3    0    0 -0.14114053727E+02  0.37693237097E+02  0.17429372226E+02  0.43860798575E+02  0.00000000000E+00 0.  1.
</event>
<event>
 7    1  0.1999542E-015  0.9000774E+02  0.7816164E-02  0.1186339E+00
        -11   -1    0    0    0    0  0.00000000000E+00  0.00000000000E+00  0.45593999997E+02  0.45594000000E+02  0.51100000000E-03 0.  1.
         11   -1    0    0    0    0 -0.00000000000E+00 -0.00000000000E+00 -0.45593999997E+02  0.45594000000E+02  0.51100000000E-03 0. -1.
    9900012    2    1    2    0    0 -0.12413761718E+00 -0.59791203425E+00  0.10100014461E+01  0.90007740762E+02  0.90000002140E+02 0.  0.
         12    1    1    2    0    0  0.12413761718E+00  0.59791203425E+00 -0.10100014461E+01  0.11802592384E+01  0.00000000000E+00 0. -1.
         11    1    3    3    0    0  0.46707576804E+01 -0.16238597617E+02  0.14444495832E+01  0.16958610342E+02  0.51100000000E-03 0. -1.
        -11    1    3    3    0    0 -0.21341187520E+02 -0.22556883542E+02  0.34370595829E+01  0.31242161557E+02  0.51100000000E-03 0.  1.
         12    1    3    3    0    0  0.16546292223E+02  0.38197569126E+02 -0.38715077200E+01  0.41806968862E+02  0.00000000000E+00 0. -1.
</event>
<event>
 7    1  0.1999542E-015  0.9000771E+02  0.7816164E-02  0.1186339E+00
        -11   -1    0    0    0    0  0.00000000000E+00  0.00000000000E+00  0.45593999997E+02  0.45594000000E+02  0.51100000000E-03 0. -1.
         11   -1    0    0    0    0 -0.00000000000E+00 -0.00000000000E+00 -0.45593999997E+02  0.45594000000E+02  0.51100000000E-03 0.  1.
    9900012    2    1    2    0    0  0.74142064362E+00 -0.40471134636E+00 -0.82436861608E+00  0.90007712128E+02  0.89999973128E+02 0.  0.
         12    1    1    2    0    0 -0.74142064362E+00  0.40471134636E+00  0.82436861608E+00  0.11802878716E+01  0.00000000000E+00 0. -1.
         11    1    3    3    0    0 -0.32184117937E+02 -0.21110319472E+02  0.98687894487E+01  0.39734821518E+02  0.51100000000E-03 0. -1.
        -11    1    3    3    0    0 -0.35153047707E+01  0.10622663307E+02 -0.96096871001E+00  0.11230396453E+02  0.51100000000E-03 0.  1.
        -12    1    3    3    0    0  0.36440843352E+02  0.10082944819E+02 -0.97321893547E+01  0.39042494157E+02  0.00000000000E+00 0.  1.
</event>
<event>
 7    1  0.1999542E-015  0.9000768E+02  0.7816164E-02  0.1186339E+00
        -11   -1    0    0    0    0  0.00000000000E+00  0.00000000000E+00  0.45593999997E+02  0.45594000000E+02  0.51100000000E-03 0.  1.
         11   -1    0    0    0    0 -0.00000000000E+00 -0.00000000000E+00 -0.45593999997E+02  0.45594000000E+02  0.51100000000E-03 0. -1.
    9900012    2    1    2    0    0  0.29963778969E+00 -0.11211514541E+01 -0.21537492294E+00  0.90007682354E+02  0.89999942961E+02 0.  0.
         12    1    1    2    0    0 -0.29963778969E+00  0.11211514541E+01  0.21537492294E+00  0.11803176460E+01  0.00000000000E+00 0. -1.
         11    1    3    3    0    0 -0.19328673511E+02  0.21811897573E+02  0.27478780006E+02  0.40055459632E+02  0.51100000000E-03 0. -1.
        -11    1    3    3    0    0 -0.15461180297E+01  0.45234841929E+01 -0.98685526142E+01  0.10965433013E+02  0.51100000000E-03 0.  1.
        -12    1    3    3    0    0  0.21174429331E+02 -0.27456533220E+02 -0.17825602315E+02  0.38986789709E+02  0.00000000000E+00 0.  1.
</event>
<event>
 7    1  0.1999542E-015  0.9000772E+02  0.7816164E-02  0.1186339E+00
        -11   -1    0    0    0    0  0.00000000000E+00  0.00000000000E+00  0.45593999997E+02  0.45594000000E+02  0.51100000000E-03 0. -1.
         11   -1    0    0    0    0 -0.00000000000E+00 -0.00000000000E+00 -0.45593999997E+02  0.45594000000E+02  0.51100000000E-03 0.  1.
    9900012    2    1    2    0    0 -0.50792115589E-01  0.96493025027E+00 -0.67778047754E+00  0.90007721811E+02  0.89999982939E+02 0.  0.
         12    1    1    2    0    0  0.50792115589E-01 -0.96493025027E+00  0.67778047754E+00  0.11802781887E+01  0.00000000000E+00 0. -1.
         11    1    3    3    0    0 -0.43749364660E+01 -0.75549686728E+01  0.53685830653E+00  0.87467615625E+01  0.51100000000E-03 0. -1.
        -11    1    3    3    0    0 -0.37724559832E+02  0.97457053295E+01 -0.35850518152E+01  0.39127660085E+02  0.51100000000E-03 0.  1.
         12    1    3    3    0    0  0.42048704183E+02 -0.12258064064E+01  0.23704130311E+01  0.42133300164E+02  0.00000000000E+00 0. -1.
</event>
<event>
 7    1  0.2082980E-015  0.9000775E+02  0.7816164E-02  0.1186339E+00
        -11   -1    0    0    0    0  0.00000000000E+00  0.00000000000E+00  0.45593999997E+02  0.45594000000E+02  0.51100000000E-03 0. -1.
         11   -1    0    0    0    0 -0.00000000000E+00 -0.00000000000E+00 -0.45593999997E+02  0.45594000000E+02  0.51100000000E-03 0.  1.
    9900012    2    1    2    0    0  0.42064095605E+00 -0.51920050052E+00 -0.97287537579E+00  0.90007748133E+02  0.90000009608E+02 0.  0.
         12    1    1    2    0    0 -0.42064095605E+00  0.51920050052E+00  0.97287537579E+00  0.11802518674E+01  0.00000000000E+00 0. -1.
         11    1    3    3    0    0 -0.29169043477E+02  0.25095197988E+02  0.17526507241E+02  0.42282153631E+02  0.51100000000E-03 0. -1.
        -11    1    3    3    0    0  0.20117562907E+01 -0.19516861253E+01 -0.10028870880E+02  0.10413188440E+02  0.51100000000E-03 0.  1.
        -12    1    3    3    0    0  0.27577928142E+02 -0.23662712363E+02 -0.84705117369E+01  0.37312406061E+02  0.00000000000E+00 0.  1.
</event>
<event>
 7    1  0.1999542E-015  0.9000776E+02  0.7816164E-02  0.1186339E+00
        -11   -1    0    0    0    0  0.00000000000E+00  0.00000000000E+00  0.45593999997E+02  0.45594000000E+02  0.51100000000E-03 0.  1.
         11   -1    0    0    0    0 -0.00000000000E+00 -0.00000000000E+00 -0.45593999997E+02  0.45594000000E+02  0.51100000000E-03 0. -1.
    9900012    2    1    2    0    0  0.74220878952E+00 -0.79261055362E+00  0.46245367434E+00  0.90007759017E+02  0.90000020636E+02 0.  0.
         12    1    1    2    0    0 -0.74220878952E+00  0.79261055362E+00 -0.46245367434E+00  0.11802409830E+01  0.00000000000E+00 0. -1.
         11    1    3    3    0    0 -0.46243323116E+01 -0.76536223521E+01 -0.90413174404E+01  0.12716438407E+02  0.51100000000E-03 0. -1.
        -11    1    3    3    0    0  0.34753531381E+02 -0.16135711313E+02  0.11252803679E+02  0.39934880918E+02  0.51100000000E-03 0.  1.
         12    1    3    3    0    0 -0.29386990280E+02  0.22996723111E+02 -0.17490325643E+01  0.37356439692E+02  0.00000000000E+00 0. -1.
</event>
<event>
 7    1  0.1999542E-015  0.9000774E+02  0.7816164E-02  0.1186339E+00
        -11   -1    0    0    0    0  0.00000000000E+00  0.00000000000E+00  0.45593999997E+02  0.45594000000E+02  0.51100000000E-03 0.  1.
         11   -1    0    0    0    0 -0.00000000000E+00 -0.00000000000E+00 -0.45593999997E+02  0.45594000000E+02  0.51100000000E-03 0. -1.
    9900012    2    1    2    0    0 -0.33690860779E-01 -0.11794025345E+01 -0.29686827324E-01  0.90007742943E+02  0.90000004350E+02 0.  0.
         12    1    1    2    0    0  0.33690860779E-01  0.11794025345E+01  0.29686827324E-01  0.11802570568E+01  0.00000000000E+00 0. -1.
         11    1    3    3    0    0  0.29073461821E+01 -0.82253369914E+01  0.31287858465E+01  0.92681244909E+01  0.51100000000E-03 0. -1.
        -11    1    3    3    0    0 -0.15926849565E+02  0.32011493494E+02  0.22840125129E+02  0.42427250311E+02  0.51100000000E-03 0.  1.
         12    1    3    3    0    0  0.12985812522E+02 -0.24965559037E+02 -0.25998597802E+02  0.38312368141E+02  0.00000000000E+00 0. -1.
</event>
<event>
 7    1  0.1999542E-015  0.9000770E+02  0.7816164E-02  0.1186339E+00
        -11   -1    0    0    0    0  0.00000000000E+00  0.00000000000E+00  0.45593999997E+02  0.45594000000E+02  0.51100000000E-03 0.  1.
         11   -1    0    0    0    0 -0.00000000000E+00 -0.00000000000E+00 -0.45593999997E+02  0.45594000000E+02  0.51100000000E-03 0. -1.
    9900012    2    1    2    0    0  0.95258519459E-01  0.11532238644E+00  0.11707858225E+01  0.90007697971E+02  0.89999958784E+02 0.  0.
         12    1    1    2    0    0 -0.95258519459E-01 -0.11532238644E+00 -0.11707858225E+01  0.11803020294E+01  0.00000000000E+00 0. -1.
         11    1    3    3    0    0  0.33812624102E+01 -0.33747825534E+01 -0.59768142121E+01  0.76514313142E+01  0.51100000000E-03 0. -1.
        -11    1    3    3    0    0  0.34992220647E+01 -0.26232882343E+02  0.33057336193E+02  0.42346146785E+02  0.51100000000E-03 0.  1.
         12    1    3    3    0    0 -0.67852259555E+01  0.29722987283E+02 -0.25909736159E+02  0.40010119871E+02  0.00000000000E+00 0. -1.
</event>
<event>
 7    1  0.1999542E-015  0.9000739E+02  0.7816164E-02  0.1186340E+00
        -11   -1    0    0    0    0  0.00000000000E+00  0.00000000000E+00  0.45593999997E+02  0.45594000000E+02  0.51100000000E-03 0. -1.
         11   -1    0    0    0    0 -0.00000000000E+00 -0.00000000000E+00 -0.45593999997E+02  0.45594000000E+02  0.51100000000E-03 0.  1.
    9900012    2    1    2    0    0  0.58520417189E+00 -0.16585389564E+00 -0.10118590546E+01  0.90007394145E+02  0.89999650947E+02 0.  0.
         12    1    1    2    0    0 -0.58520417189E+00  0.16585389564E+00  0.10118590546E+01  0.11806058546E+01  0.00000000000E+00 0. -1.
         11    1    3    3    0    0  0.35934361222E+01 -0.27473620391E+01  0.64927831452E+01  0.79130913409E+01  0.51100000000E-03 0. -1.
        -11    1    3    3    0    0  0.29393139538E+02  0.27305838284E+02 -0.97095366329E+01  0.41277603591E+02  0.51100000000E-03 0.  1.
         12    1    3    3    0    0 -0.32401371489E+02 -0.24724330140E+02  0.22048944331E+01  0.40816699214E+02  0.00000000000E+00 0. -1.
</event>
<event>
 7    1  0.1999542E-015  0.9000781E+02  0.7816164E-02  0.1186339E+00
        -11   -1    0    0    0    0  0.00000000000E+00  0.00000000000E+00  0.45593999997E+02  0.45594000000E+02  0.51100000000E-03 0.  1.
         11   -1    0    0    0    0 -0.00000000000E+00 -0.00000000000E+00 -0.45593999997E+02  0.45594000000E+02  0.51100000000E-03 0. -1.
    9900012    2    1    2    0    0  0.61397894062E+00 -0.49182229307E+00  0.87976079070E+00  0.90007814270E+02  0.90000076619E+02 0.  0.
         12    1    1    2    0    0 -0.61397894062E+00  0.49182229307E+00 -0.87976079070E+00  0.11801857296E+01  0.00000000000E+00 0. -1.
         11    1    3    3    0    0 -0.45584279252E+01 -0.30653690541E+02 -0.18986055258E+02  0.36344164641E+02  0.51100000000E-03 0. -1.
        -11    1    3    3    0    0  0.51186030161E+01 -0.54228066213E+01 -0.60823548258E+01  0.96229916853E+01  0.51100000000E-03 0.  1.
        -12    1    3    3    0    0  0.53803849808E-01  0.35584674870E+02  0.25948170874E+02  0.44040657944E+02  0.00000000000E+00 0.  1.
</event>
<event>
 7    1  0.1999542E-015  0.9000788E+02  0.7816164E-02  0.1186339E+00
        -11   -1    0    0    0    0  0.00000000000E+00  0.00000000000E+00  0.45593999997E+02  0.45594000000E+02  0.51100000000E-03 0.  1.
         11   -1    0    0    0    0 -0.00000000000E+00 -0.00000000000E+00 -0.45593999997E+02  0.45594000000E+02  0.51100000000E-03 0. -1.
    9900012    2    1    2    0    0  0.91560164096E+00  0.62425247432E+00 -0.40579456727E+00  0.90007878503E+02  0.90000141699E+02 0.  0.
         12    1    1    2    0    0 -0.91560164096E+00 -0.62425247432E+00  0.40579456727E+00  0.11801214969E+01  0.00000000000E+00 0. -1.
         11    1    3    3    0    0 -0.36505751759E+02 -0.60403654362E+01 -0.14031150809E+02  0.39573085796E+02  0.51100000000E-03 0. -1.
        -11    1    3    3    0    0  0.17218950474E+00  0.86360320235E+01 -0.35880265625E+01  0.93533220414E+01  0.51100000000E-03 0.  1.
        -12    1    3    3    0    0  0.37249163896E+02 -0.19714141130E+01  0.17213382804E+02  0.41081470666E+02  0.00000000000E+00 0.  1.
</event>
<event>
 7    1  0.1999542E-015  0.9000771E+02  0.7816164E-02  0.1186339E+00
        -11   -1    0    0    0    0  0.00000000000E+00  0.00000000000E+00  0.45593999997E+02  0.45594000000E+02  0.51100000000E-03 0.  1.
         11   -1    0    0    0    0 -0.00000000000E+00 -0.00000000000E+00 -0.45593999997E+02  0.45594000000E+02  0.51100000000E-03 0. -1.
    9900012    2    1    2    0    0  0.46424558938E+00  0.30082315306E+00  0.10426277929E+01  0.90007707133E+02  0.89999968067E+02 0.  0.
         12    1    1    2    0    0 -0.46424558938E+00 -0.30082315306E+00 -0.10426277929E+01  0.11802928667E+01  0.00000000000E+00 0. -1.
         11    1    3    3    0    0 -0.20853125380E+01  0.30677779378E+02 -0.18219702493E+02  0.35741184020E+02  0.51100000000E-03 0. -1.
        -11    1    3    3    0    0  0.88791749081E+01  0.35363121995E+01 -0.61968445564E+01  0.11390616039E+02  0.51100000000E-03 0.  1.
        -12    1    3    3    0    0 -0.63296167807E+01 -0.33913268425E+02  0.25459174842E+02  0.42875907075E+02  0.00000000000E+00 0.  1.
</event>
<event>
 7    1  0.1999542E-015  0.9000774E+02  0.7816164E-02  0.1186339E+00
        -11   -1    0    0    0    0  0.00000000000E+00  0.00000000000E+00  0.45593999997E+02  0.45594000000E+02  0.51100000000E-03 0. -1.
         11   -1    0    0    0    0 -0.00000000000E+00 -0.00000000000E+00 -0.45593999997E+02  0.45594000000E+02  0.51100000000E-03 0.  1.
    9900012    2    1    2    0    0  0.67198468454E+00  0.85659709236E+00  0.45572398046E+00  0.90007743104E+02  0.90000004513E+02 0.  0.
         12    1    1    2    0    0 -0.67198468454E+00 -0.85659709236E+00 -0.45572398046E+00  0.11802568963E+01  0.00000000000E+00 0. -1.
         11    1    3    3    0    0  0.80251701061E+01 -0.25009516133E+01  0.28717578729E+01  0.88828547070E+01  0.51100000000E-03 0. -1.
        -11    1    3    3    0    0  0.29981167674E+02  0.42529927488E+01 -0.23417397751E+02  0.38279666667E+02  0.51100000000E-03 0.  1.
         12    1    3    3    0    0 -0.37334353096E+02 -0.89544404315E+00  0.21001363859E+02  0.42845221730E+02  0.00000000000E+00 0. -1.
</event>
<event>
 7    1  0.1999542E-015  0.9000761E+02  0.7816164E-02  0.1186339E+00
        -11   -1    0    0    0    0  0.00000000000E+00  0.00000000000E+00  0.45593999997E+02  0.45594000000E+02  0.51100000000E-03 0.  1.
         11   -1    0    0    0    0 -0.00000000000E+00 -0.00000000000E+00 -0.45593999997E+02  0.45594000000E+02  0.51100000000E-03 0. -1.
    9900012    2    1    2    0    0 -0.10027901795E+01  0.37730508988E+00  0.49535788023E+00  0.90007607394E+02  0.89999867011E+02 0.  0.
         12    1    1    2    0    0  0.10027901795E+01 -0.37730508988E+00 -0.49535788023E+00  0.11803926061E+01  0.00000000000E+00 0. -1.
         11    1    3    3    0    0  0.69904690370E+01 -0.37373614478E+02  0.15053890198E+02  0.40893438677E+02  0.51100000000E-03 0. -1.
        -11    1    3    3    0    0 -0.33566715707E+01  0.89947611361E+01  0.78200543717E+01  0.12382496621E+02  0.51100000000E-03 0.  1.
        -12    1    3    3    0    0 -0.46365876458E+01  0.28756158432E+02 -0.22378586690E+02  0.36731672096E+02  0.00000000000E+00 0.  1.
</event>
<event>
 7    1  0.1999542E-015  0.9000771E+02  0.7816164E-02  0.1186339E+00
        -11   -1    0    0    0    0  0.00000000000E+00  0.00000000000E+00  0.45593999997E+02  0.45594000000E+02  0.51100000000E-03 0.  1.
         11   -1    0    0    0    0 -0.00000000000E+00 -0.00000000000E+00 -0.45593999997E+02  0.45594000000E+02  0.51100000000E-03 0. -1.
    9900012    2    1    2    0    0 -0.16897726817E+00 -0.11423234737E+01 -0.24419353297E+00  0.90007709054E+02  0.89999970013E+02 0.  0.
         12    1    1    2    0    0  0.16897726817E+00  0.11423234737E+01  0.24419353297E+00  0.11802909460E+01  0.00000000000E+00 0. -1.
         11    1    3    3    0    0 -0.29466790223E+02 -0.20137430276E+02  0.39637390390E+01  0.35909874013E+02  0.51100000000E-03 0. -1.
        -11    1    3    3    0    0 -0.46643666797E+01 -0.63677423223E+01 -0.83719430505E+01  0.11506254365E+02  0.51100000000E-03 0.  1.
        -12    1    3    3    0    0  0.33962179635E+02  0.25362849124E+02  0.41640104785E+01  0.42591580676E+02  0.00000000000E+00 0.  1.
</event>
<event>
 7    1  0.1999542E-015  0.9000781E+02  0.7816164E-02  0.1186339E+00
        -11   -1    0    0    0    0  0.00000000000E+00  0.00000000000E+00  0.45593999997E+02  0.45594000000E+02  0.51100000000E-03 0.  1.
         11   -1    0    0    0    0 -0.00000000000E+00 -0.00000000000E+00 -0.45593999997E+02  0.45594000000E+02  0.51100000000E-03 0. -1.
    9900012    2    1    2    0    0  0.84736036527E-01  0.10382583094E+01  0.55470263712E+00  0.90007806995E+02  0.90000069248E+02 0.  0.
         12    1    1    2    0    0 -0.84736036527E-01 -0.10382583094E+01 -0.55470263712E+00  0.11801930048E+01  0.00000000000E+00 0. -1.
         11    1    3    3    0    0 -0.10870837607E+02 -0.41085436439E+02 -0.18381349327E+01  0.42539004900E+02  0.51100000000E-03 0. -1.
        -11    1    3    3    0    0  0.42669589365E+01  0.46283048651E+01  0.66348561892E+01  0.91460079490E+01  0.51100000000E-03 0.  1.
        -12    1    3    3    0    0  0.66886147067E+01  0.37495389883E+02 -0.42420186194E+01  0.38322794146E+02  0.00000000000E+00 0.  1.
</event>
<event>
 7    1  0.1999542E-015  0.9000732E+02  0.7816164E-02  0.1186340E+00
        -11   -1    0    0    0    0  0.00000000000E+00  0.00000000000E+00  0.45593999997E+02  0.45594000000E+02  0.51100000000E-03 0. -1.
         11   -1    0    0    0    0 -0.00000000000E+00 -0.00000000000E+00 -0.45593999997E+02  0.45594000000E+02  0.51100000000E-03 0.  1.
    9900012    2    1    2    0    0 -0.59420060066E+00  0.83955373745E+00 -0.57972081561E+00  0.90007321781E+02  0.89999577628E+02 0.  0.
         12    1    1    2    0    0  0.59420060066E+00 -0.83955373745E+00  0.57972081561E+00  0.11806782186E+01  0.00000000000E+00 0. -1.
         11    1    3    3    0    0 -0.89601135742E+01 -0.60335719114E+01  0.14243032881E+02  0.17876006578E+02  0.51100000000E-03 0. -1.
        -11    1    3    3    0    0 -0.91135430145E+01  0.29342898374E+02 -0.27250568734E+02  0.41068915835E+02  0.51100000000E-03 0.  1.
         12    1    3    3    0    0  0.17479455988E+02 -0.22469772725E+02  0.12427815038E+02  0.31062399369E+02  0.00000000000E+00 0. -1.
</event>
<event>
 7    1  0.1999542E-015  0.9000780E+02  0.7816164E-02  0.1186339E+00
        -11   -1    0    0    0    0  0.00000000000E+00  0.00000000000E+00  0.45593999997E+02  0.45594000000E+02  0.51100000000E-03 0.  1.
         11   -1    0    0    0    0 -0.00000000000E+00 -0.00000000000E+00 -0.45593999997E+02  0.45594000000E+02  0.51100000000E-03 0. -1.
    9900012    2    1    2    0    0 -0.77676057777E+00 -0.20034605785E+00  0.86566096812E+00  0.90007803216E+02  0.90000065418E+02 0.  0.
         12    1    1    2    0    0  0.77676057777E+00  0.20034605785E+00 -0.86566096812E+00  0.11801967844E+01  0.00000000000E+00 0. -1.
         11    1    3    3    0    0 -0.20951616614E+00  0.35011371665E+02 -0.19543831958E+02  0.40097399052E+02  0.51100000000E-03 0. -1.
        -11    1    3    3    0    0  0.53402508398E+01  0.33892757305E+01  0.44040488442E+01  0.77072119143E+01  0.51100000000E-03 0.  1.
        -12    1    3    3    0    0 -0.59074952514E+01 -0.38600993453E+02  0.16005444082E+02  0.42203192249E+02  0.00000000000E+00 0.  1.
</event>
<event>
 7    1  0.1999542E-015  0.9000768E+02  0.7816164E-02  0.1186339E+00
        -11   -1    0    0    0    0  0.00000000000E+00  0.00000000000E+00  0.45593999997E+02  0.45594000000E+02  0.51100000000E-03 0. -1.
         11   -1    0    0    0    0 -0.00000000000E+00 -0.00000000000E+00 -0.45593999997E+02  0.45594000000E+02  0.51100000000E-03 0.  1.
    9900012    2    1    2    0    0  0.81385501243E-01 -0.67002841187E+00 -0.96829717885E+00  0.90007677544E+02  0.89999938088E+02 0.  0.
         12    1    1    2    0    0 -0.81385501243E-01  0.67002841187E+00  0.96829717885E+00  0.11803224556E+01  0.00000000000E+00 0. -1.
         11    1    3    3    0    0  0.48730195664E+01 -0.29686063189E+01  0.69379630314E+01  0.89829991905E+01  0.51100000000E-03 0. -1.
        -11    1    3    3    0    0 -0.38635521027E+02 -0.13130874536E+02 -0.14389611304E+02  0.43268744664E+02  0.51100000000E-03 0.  1.
         12    1    3    3    0    0  0.33843886962E+02  0.15429452443E+02  0.64833510938E+01  0.37755933690E+02  0.00000000000E+00 0. -1.
</event>
<event>
 7    1  0.1999542E-015  0.9000778E+02  0.7816164E-02  0.1186339E+00
        -11   -1    0    0    0    0  0.00000000000E+00  0.00000000000E+00  0.45593999997E+02  0.45594000000E+02  0.51100000000E-03 0. -1.
         11   -1    0    0    0    0 -0.00000000000E+00 -0.00000000000E+00 -0.45593999997E+02  0.45594000000E+02  0.51100000000E-03 0.  1.
    9900012    2    1    2    0    0  0.10779678496E+01 -0.25427226967E+00 -0.40773661713E+00  0.90007780435E+02  0.90000042337E+02 0.  0.
         12    1    1    2    0    0 -0.10779678496E+01  0.25427226967E+00  0.40773661713E+00  0.11802195647E+01  0.00000000000E+00 0. -1.
         11    1    3    3    0    0  0.42546513890E+01  0.59968099587E+01  0.10750959199E+02  0.13024857469E+02  0.51100000000E-03 0. -1.
        -11    1    3    3    0    0 -0.23354307178E+01  0.34337695443E+02  0.15232593523E+01  0.34450716745E+02  0.51100000000E-03 0.  1.
         12    1    3    3    0    0 -0.84125282161E+00 -0.40588777671E+02 -0.12681955168E+02  0.42532206221E+02  0.00000000000E+00 0. -1.
</event>
<event>
 7    1  0.1999542E-015  0.9000770E+02  0.7816164E-02  0.1186339E+00
        -11   -1    0    0    0    0  0.00000000000E+00  0.00000000000E+00  0.45593999997E+02  0.45594000000E+02  0.51100000000E-03 0.  1.
         11   -1    0    0    0    0 -0.00000000000E+00 -0.00000000000E+00 -0.45593999997E+02  0.45594000000E+02  0.51100000000E-03 0. -1.
    9900012    2    1    2    0    0 -0.76952464370E+00  0.77446551018E+00  0.44848192703E+00  0.90007702985E+02  0.89999963865E+02 0.  0.
         12    1    1    2    0    0  0.76952464370E+00 -0.77446551018E+00 -0.44848192703E+00  0.11802970146E+01  0.00000000000E+00 0. -1.
         11    1    3    3    0    0 -0.11324400996E+02  0.70960964410E+00  0.47541512693E+00  0.11356567420E+02  0.51100000000E-03 0. -1.
        -11    1    3    3    0    0  0.38753897999E+01 -0.28255541827E+02  0.26754450884E+02  0.39104922099E+02  0.51100000000E-03 0.  1.
         12    1    3    3    0    0  0.66794865520E+01  0.28320397693E+02 -0.26781384084E+02  0.39546213466E+02  0.00000000000E+00 0. -1.
</event>
<event>
 7    1  0.1999542E-015  0.9000780E+02  0.7816164E-02  0.1186339E+00
        -11   -1    0    0    0    0  0.00000000000E+00  0.00000000000E+00  0.45593999997E+02  0.45594000000E+02  0.51100000000E-03 0.  1.
         11   -1    0    0    0    0 -0.00000000000E+00 -0.00000000000E+00 -0.45593999997E+02  0.45594000000E+02  0.51100000000E-03 0. -1.
    9900012    2    1    2    0    0  0.11685116487E+01 -0.11867471927E-01 -0.16527148387E+00  0.90007798757E+02  0.90000060901E+02 0.  0.
         12    1    1    2    0    0 -0.11685116487E+01  0.11867471927E-01  0.16527148387E+00  0.11802012428E+01  0.00000000000E+00 0. -1.
         11    1    3    3    0    0 -0.31211606757E+02 -0.72290107795E+00 -0.16824596970E+02  0.35464828292E+02  0.51100000000E-03 0. -1.
        -11    1    3    3    0    0 -0.13980795104E+01 -0.53519492785E+01 -0.97701322555E+01  0.11227353738E+02  0.51100000000E-03 0.  1.
        -12    1    3    3    0    0  0.33778197916E+02  0.60629828845E+01  0.26429457742E+02  0.43315616727E+02  0.00000000000E+00 0.  1.
</event>
<event>
 7    1  0.1999542E-015  0.9000761E+02  0.7816164E-02  0.1186339E+00
        -11   -1    0    0    0    0  0.00000000000E+00  0.00000000000E+00  0.45593999997E+02  0.45594000000E+02  0.51100000000E-03 0.  1.
         11   -1    0    0    0    0 -0.00000000000E+00 -0.00000000000E+00 -0.45593999997E+02  0.45594000000E+02  0.51100000000E-03 0. -1.
    9900012    2    1    2    0    0 -0.14537610133E+00  0.11215989933E+01 -0.33793216743E+00  0.90007611648E+02  0.89999871321E+02 0.  0.
         12    1    1    2    0    0  0.14537610133E+00 -0.11215989933E+01  0.33793216743E+00  0.11803883523E+01  0.00000000000E+00 0. -1.
         11    1    3    3    0    0 -0.24052906464E+02  0.30253382366E+02 -0.44673086689E+01  0.38907149741E+02  0.51100000000E-03 0. -1.
        -11    1    3    3    0    0  0.56335693897E+01  0.56730602082E+01 -0.65830348308E+01  0.10356498638E+02  0.51100000000E-03 0.  1.
        -12    1    3    3    0    0  0.18273960973E+02 -0.34804843581E+02  0.10712411332E+02  0.40743963269E+02  0.00000000000E+00 0.  1.
</event>
<event>
 7    1  0.1999542E-015  0.9000733E+02  0.7816164E-02  0.1186340E+00
        -11   -1    0    0    0    0  0.00000000000E+00  0.00000000000E+00  0.45593999997E+02  0.45594000000E+02  0.51100000000E-03 0. -1.
         11   -1    0    0    0    0 -0.00000000000E+00 -0.00000000000E+00 -0.45593999997E+02  0.45594000000E+02  0.51100000000E-03 0.  1.
    9900012    2    1    2    0    0  0.87033442080E+00  0.43690037572E+00 -0.66754905306E+00  0.90007328293E+02  0.89999584225E+02 0.  0.
         12    1    1    2    0    0 -0.87033442080E+00 -0.43690037572E+00  0.66754905306E+00  0.11806717074E+01  0.00000000000E+00 0. -1.
         11    1    3    3    0    0 -0.10206826413E+02 -0.15435971372E+02  0.33396865046E+00  0.18508377912E+02  0.51100000000E-03 0. -1.
        -11    1    3    3    0    0 -0.20566043556E+02 -0.11914684819E+02  0.13036544244E+02  0.27108547508E+02  0.51100000000E-03 0.  1.
         12    1    3    3    0    0  0.31643204389E+02  0.27787556567E+02 -0.14038061948E+02  0.44390402873E+02  0.00000000000E+00 0. -1.
</event>
<event>
 7    1  0.1999542E-015  0.9000773E+02  0.7816164E-02  0.1186339E+00
        -11   -1    0    0    0    0  0.00000000000E+00  0.00000000000E+00  0.45593999997E+02  0.45594000000E+02  0.51100000000E-03 0.  1.
         11   -1    0    0    0    0 -0.00000000000E+00 -0.00000000000E+00 -0.45593999997E+02  0.45594000000E+02  0.51100000000E-03 0. -1.
    9900012    2    1    2    0    0  0.42573238425E+00 -0.10128058700E+01  0.43128149372E+00  0.90007734132E+02  0.89999995422E+02 0.  0.
         12    1    1    2    0    0 -0.42573238425E+00  0.10128058700E+01 -0.43128149372E+00  0.11802658684E+01  0.00000000000E+00 0. -1.
         11    1    3    3    0    0 -0.22659609124E+02 -0.23156943211E+02 -0.10667013220E+02  0.34109926353E+02  0.51100000000E-03 0. -1.
        -11    1    3    3    0    0 -0.71962577987E+01  0.19315578954E+02 -0.53856207761E+01  0.21304521305E+02  0.51100000000E-03 0.  1.
        -12    1    3    3    0    0  0.30281599307E+02  0.28285583872E+01  0.16483915490E+02  0.34593286473E+02  0.00000000000E+00 0.  1.
</event>
<event>
 7    1  0.1999542E-015  0.9000781E+02  0.7816164E-02  0.1186339E+00
        -11   -1    0    0    0    0  0.00000000000E+00  0.00000000000E+00  0.45593999997E+02  0.45594000000E+02  0.51100000000E-03 0.  1.
         11   -1    0    0    0    0 -0.00000000000E+00 -0.00000000000E+00 -0.45593999997E+02  0.45594000000E+02  0.51100000000E-03 0. -1.
    9900012    2    1    2    0    0 -0.50533374821E+00  0.37907573126E+00  0.99688988266E+00  0.90007809318E+02  0.90000071601E+02 0.  0.
         12    1    1    2    0    0  0.50533374821E+00 -0.37907573126E+00 -0.99688988266E+00  0.11801906817E+01  0.00000000000E+00 0. -1.
         11    1    3    3    0    0  0.38530218543E+02  0.55368779780E+01 -0.11516922316E+02  0.40594017523E+02  0.51100000000E-03 0. -1.
        -11    1    3    3    0    0 -0.58928037177E+01  0.30251296246E+01 -0.73683744773E+01  0.99080516551E+01  0.51100000000E-03 0.  1.
        -12    1    3    3    0    0 -0.33142748573E+02 -0.81829318714E+01  0.19882186676E+02  0.39505740141E+02  0.00000000000E+00 0.  1.
</event>
<event>
 7    1  0.1999542E-015  0.9000778E+02  0.7816164E-02  0.1186339E+00
        -11   -1    0    0    0    0  0.00000000000E+00  0.00000000000E+00  0.45593999997E+02  0.45594000000E+02  0.51100000000E-03 0. -1.
         11   -1    0    0    0    0 -0.00000000000E+00 -0.00000000000E+00 -0.45593999997E+02  0.45594000000E+02  0.51100000000E-03 0.  1.
    9900012    2    1    2    0    0 -0.10188929867E+01  0.58818976797E+00 -0.93874081806E-01  0.90007778637E+02  0.90000040515E+02 0.  0.
         12    1    1    2    0    0  0.10188929867E+01 -0.58818976797E+00  0.93874081806E-01  0.11802213626E+01  0.00000000000E+00 0. -1.
         11    1    3    3    0    0 -0.74454144761E+01 -0.10199699185E+01 -0.53380930906E+01  0.92179050473E+01  0.51100000000E-03 0. -1.
        -11    1    3    3    0    0  0.76877019744E+01  0.25833887943E+02 -0.28502671695E+02  0.39228724449E+02  0.51100000000E-03 0.  1.
         12    1    3    3    0    0 -0.12611804849E+01 -0.24225728256E+02  0.33746890704E+02  0.41561149141E+02  0.00000000000E+00 0. -1.
</event>
<event>
 7    1  0.1999542E-015  0.9000775E+02  0.7816164E-02  0.1186339E+00
        -11   -1    0    0    0    0  0.00000000000E+00  0.00000000000E+00  0.45593999997E+02  0.45594000000E+02  0.51100000000E-03 0.  1.
         11   -1    0    0    0    0 -0.00000000000E+00 -0.00000000000E+00 -0.45593999997E+02  0.45594000000E+02  0.51100000000E-03 0. -1.
    9900012    2    1    2    0    0  0.10703898475E+01 -0.40057668171E+00 -0.29461304518E+00  0.90007748777E+02  0.90000010261E+02 0.  0.
         12    1    1    2    0    0 -0.10703898475E+01  0.40057668171E+00  0.29461304518E+00  0.11802512232E+01  0.00000000000E+00 0. -1.
         11    1    3    3    0    0  0.76156808064E+01 -0.16261643304E+01  0.12234627672E+02  0.14502727988E+02  0.51100000000E-03 0. -1.
        -11    1    3    3    0    0 -0.19797535530E+01  0.10396670636E+02  0.29972419923E+02  0.31786099804E+02  0.51100000000E-03 0.  1.
         12    1    3    3    0    0 -0.45655374059E+01 -0.91710829872E+01 -0.42501660640E+02  0.43718920985E+02  0.00000000000E+00 0. -1.
</event>
<event>
 7    1  0.1999542E-015  0.9000767E+02  0.7816164E-02  0.1186339E+00
        -11   -1    0    0    0    0  0.00000000000E+00  0.00000000000E+00  0.45593999997E+02  0.45594000000E+02  0.51100000000E-03 0.  1.
         11   -1    0    0    0    0 -0.00000000000E+00 -0.00000000000E+00 -0.45593999997E+02  0.45594000000E+02  0.51100000000E-03 0. -1.
    9900012    2    1    2    0    0 -0.10868245638E+01  0.12899065948E+00  0.44197708722E+00  0.90007673787E+02  0.89999934281E+02 0.  0.
         12    1    1    2    0    0  0.10868245638E+01 -0.12899065948E+00 -0.44197708722E+00  0.11803262127E+01  0.00000000000E+00 0. -1.
         11    1    3    3    0    0  0.63200934079E+01  0.47556804187E+01 -0.38252595840E+01  0.87859369492E+01  0.51100000000E-03 0. -1.
        -11    1    3    3    0    0 -0.20452160346E+02  0.12119865552E+02  0.35941071079E+02  0.43092256780E+02  0.51100000000E-03 0.  1.
         12    1    3    3    0    0  0.13045242374E+02 -0.16746555311E+02 -0.31673834408E+02  0.38129480058E+02  0.00000000000E+00 0. -1.
</event>
<event>
 7    1  0.1999542E-015  0.9000768E+02  0.7816164E-02  0.1186339E+00
        -11   -1    0    0    0    0  0.00000000000E+00  0.00000000000E+00  0.45593999997E+02  0.45594000000E+02  0.51100000000E-03 0.  1.
         11   -1    0    0    0    0 -0.00000000000E+00 -0.00000000000E+00 -0.45593999997E+02  0.45594000000E+02  0.51100000000E-03 0. -1.
    9900012    2    1    2    0    0 -0.16820416133E+00  0.72593499622E+00  0.91535706511E+00  0.90007681054E+02  0.89999941643E+02 0.  0.
         12    1    1    2    0    0  0.16820416133E+00 -0.72593499622E+00 -0.91535706511E+00  0.11803189464E+01  0.00000000000E+00 0. -1.
         11    1    3    3    0    0  0.36343890102E+02 -0.24805400853E+01 -0.86038065574E+01  0.37430694816E+02  0.51100000000E-03 0. -1.
        -11    1    3    3    0    0 -0.41560719577E+01 -0.13583111134E+02 -0.20060813265E+01  0.14345668501E+02  0.51100000000E-03 0.  1.
        -12    1    3    3    0    0 -0.32356022305E+02  0.16789586216E+02  0.11525244949E+02  0.38231317736E+02  0.00000000000E+00 0.  1.
</event>
<event>
 7    1  0.2020934E-015  0.9000773E+02  0.7816164E-02  0.1186339E+00
        -11   -1    0    0    0    0  0.00000000000E+00  0.00000000000E+00  0.45593999997E+02  0.45594000000E+02  0.51100000000E-03 0.  1.
         11   -1    0    0    0    0 -0.00000000000E+00 -0.00000000000E+00 -0.45593999997E+02  0.45594000000E+02  0.51100000000E-03 0. -1.
    9900012    2    1    2    0    0 -0.85495453034E+00 -0.78566352972E+00 -0.21170566175E+00  0.90007731506E+02  0.89999992762E+02 0.  0.
         12    1    1    2    0    0  0.85495453034E+00  0.78566352972E+00  0.21170566175E+00  0.11802684941E+01  0.00000000000E+00 0. -1.
         11    1    3    3    0    0  0.25784605513E+01 -0.34040536679E+02 -0.19208778204E+02  0.39171210813E+02  0.51100000000E-03 0. -1.
        -11    1    3    3    0    0 -0.51565480495E+01 -0.55273487684E+01  0.67382097419E+01  0.10126452636E+02  0.51100000000E-03 0.  1.
        -12    1    3    3    0    0  0.17231329679E+01  0.38782221917E+02  0.12258862801E+02  0.40710068057E+02  0.00000000000E+00 0.  1.
</event>
<event>
 7    1  0.1999542E-015  0.9000775E+02  0.7816164E-02  0.1186339E+00
        -11   -1    0    0    0    0  0.00000000000E+00  0.00000000000E+00  0.45593999997E+02  0.45594000000E+02  0.51100000000E-03 0. -1.
         11   -1    0    0    0    0 -0.00000000000E+00 -0.00000000000E+00 -0.45593999997E+02  0.45594000000E+02  0.51100000000E-03 0.  1.
    9900012    2    1    2    0    0 -0.33037715921E+00  0.75387970743E+00  0.84587233654E+00  0.90007752700E+02  0.90000014235E+02 0.  0.
         12    1    1    2    0    0  0.33037715921E+00 -0.75387970743E+00 -0.84587233654E+00  0.11802473005E+01  0.00000000000E+00 0. -1.
         11    1    3    3    0    0 -0.13851303940E+01  0.28472930048E+02  0.27596610280E+02  0.39676179642E+02  0.51100000000E-03 0. -1.
        -11    1    3    3    0    0 -0.38104343319E+01  0.67807082201E+01 -0.54030881679E+01  0.94705214099E+01  0.51100000000E-03 0.  1.
        -12    1    3    3    0    0  0.48651875667E+01 -0.34499758561E+02 -0.21347649776E+02  0.40861051648E+02  0.00000000000E+00 0.  1.
</event>
<event>
 7    1  0.1999542E-015  0.9000764E+02  0.7816164E-02  0.1186339E+00
        -11   -1    0    0    0    0  0.00000000000E+00  0.00000000000E+00  0.45593999997E+02  0.45594000000E+02  0.51100000000E-03 0.  1.
         11   -1    0    0    0    0 -0.00000000000E+00 -0.00000000000E+00 -0.45593999997E+02  0.45594000000E+02  0.51100000000E-03 0. -1.
    9900012    2    1    2    0    0 -0.42642476258E+00 -0.32141387018E+00  0.10526697456E+01  0.90007636265E+02  0.89999896263E+02 0.  0.
         12    1    1    2    0    0  0.42642476258E+00  0.32141387018E+00 -0.10526697456E+01  0.11803637352E+01  0.00000000000E+00 0. -1.
         11    1    3    3    0    0 -0.16802716866E+01  0.23123485843E+02 -0.25916540694E+02  0.34773351755E+02  0.51100000000E-03 0. -1.
        -11    1    3    3    0    0 -0.20362213846E+00  0.47989446367E+00 -0.10631108493E+02  0.10643882221E+02  0.51100000000E-03 0.  1.
        -12    1    3    3    0    0  0.14574690625E+01 -0.23924794177E+02  0.37600318933E+02  0.44590402289E+02  0.00000000000E+00 0.  1.
</event>
<event>
 7    1  0.1999542E-015  0.9000761E+02  0.7816164E-02  0.1186339E+00
        -11   -1    0    0    0    0  0.00000000000E+00  0.00000000000E+00  0.45593999997E+02  0.45594000000E+02  0.51100000000E-03 0. -1.
         11   -1    0    0    0    0 -0.00000000000E+00 -0.00000000000E+00 -0.45593999997E+02  0.45594000000E+02  0.51100000000E-03 0.  1.
    9900012    2    1    2    0    0  0.35992174256E-01  0.33525075295E+00 -0.11312057927E+01  0.90007612331E+02  0.89999872014E+02 0.  0.
         12    1    1    2    0    0 -0.35992174256E-01 -0.33525075295E+00  0.11312057927E+01  0.11803876691E+01  0.00000000000E+00 0. -1.
         11    1    3    3    0    0 -0.10164477429E+02  0.11156353185E+02  0.33332690454E+02  0.36590286565E+02  0.51100000000E-03 0. -1.
        -11    1    3    3    0    0 -0.67212657489E+01  0.33272125782E+01  0.44255876566E+01  0.87081331625E+01  0.51100000000E-03 0.  1.
        -12    1    3    3    0    0  0.16921735352E+02 -0.14148315010E+02 -0.38889483903E+02  0.44709192603E+02  0.00000000000E+00 0.  1.
</event>
<event>
 7    1  0.1999542E-015  0.9000763E+02  0.7816164E-02  0.1186339E+00
        -11   -1    0    0    0    0  0.00000000000E+00  0.00000000000E+00  0.45593999997E+02  0.45594000000E+02  0.51100000000E-03 0.  1.
         11   -1    0    0    0    0 -0.00000000000E+00 -0.00000000000E+00 -0.45593999997E+02  0.45594000000E+02  0.51100000000E-03 0. -1.
    9900012    2    1    2    0    0  0.37414999593E+00  0.17286851209E+00  0.11060757823E+01  0.90007629135E+02  0.89999889040E+02 0.  0.
         12    1    1    2    0    0 -0.37414999593E+00 -0.17286851209E+00 -0.11060757823E+01  0.11803708647E+01  0.00000000000E+00 0. -1.
         11    1    3    3    0    0  0.20386513427E+02  0.34770485135E+02 -0.75517149326E+01  0.41007620815E+02  0.51100000000E-03 0. -1.
        -11    1    3    3    0    0  0.32850320693E+01 -0.42772072707E+01 -0.59835454471E+01  0.80553556167E+01  0.51100000000E-03 0.  1.
        -12    1    3    3    0    0 -0.23297395500E+02 -0.30320409353E+02  0.14641336162E+02  0.40944652703E+02  0.00000000000E+00 0.  1.
</event>
<event>
 7    1  0.1999542E-015  0.9000779E+02  0.7816164E-02  0.1186339E+00
        -11   -1    0    0    0    0  0.00000000000E+00  0.00000000000E+00  0.45593999997E+02  0.45594000000E+02  0.51100000000E-03 0.  1.
         11   -1    0    0    0    0 -0.00000000000E+00 -0.00000000000E+00 -0.45593999997E+02  0.45594000000E+02  0.51100000000E-03 0. -1.
    9900012    2    1    2    0    0  0.50927204886E+00  0.10320866662E+00  0.10596579705E+01  0.90007794483E+02  0.90000056570E+02 0.  0.
         12    1    1    2    0    0 -0.50927204886E+00 -0.10320866662E+00 -0.10596579705E+01  0.11802055173E+01  0.00000000000E+00 0. -1.
         11    1    3    3    0    0 -0.21730561882E+01 -0.15605299831E+02  0.46899809785E+01  0.16439083851E+02  0.51100000000E-03 0. -1.
        -11    1    3    3    0    0 -0.17197852284E+02  0.17307798614E+02  0.27395300470E+02  0.36685535353E+02  0.51100000000E-03 0.  1.
         12    1    3    3    0    0  0.19880180521E+02 -0.15992901164E+01 -0.31025623478E+02  0.36883175278E+02  0.00000000000E+00 0. -1.
</event>
<event>
 7    1  0.1999542E-015  0.9000780E+02  0.7816164E-02  0.1186339E+00
        -11   -1    0    0    0    0  0.00000000000E+00  0.00000000000E+00  0.45593999997E+02  0.45594000000E+02  0.51100000000E-03 0. -1.
         11   -1    0    0    0    0 -0.00000000000E+00 -0.00000000000E+00 -0.45593999997E+02  0.45594000000E+02  0.51100000000E-03 0.  1.
    9900012    2    1    2    0    0 -0.65944256051E+00 -0.70394570384E+00 -0.68005417854E+00  0.90007797589E+02  0.90000059717E+02 0.  0.
         12    1    1    2    0    0  0.65944256051E+00  0.70394570384E+00  0.68005417854E+00  0.11802024107E+01  0.00000000000E+00 0. -1.
         11    1    3    3    0    0 -0.60471308075E+01 -0.60176254301E+01  0.29589565959E+01  0.90296750338E+01  0.51100000000E-03 0. -1.
        -11    1    3    3    0    0 -0.35211086799E+02 -0.76341367805E+00  0.11764455059E+02  0.37132274871E+02  0.51100000000E-03 0.  1.
         12    1    3    3    0    0  0.40598775046E+02  0.60770934043E+01 -0.15403465833E+02  0.43845847684E+02  0.00000000000E+00 0. -1.
</event>
<event>
 7    1  0.1999542E-015  0.9000777E+02  0.7816164E-02  0.1186339E+00
        -11   -1    0    0    0    0  0.00000000000E+00  0.00000000000E+00  0.45593999997E+02  0.45594000000E+02  0.51100000000E-03 0. -1.
         11   -1    0    0    0    0 -0.00000000000E+00 -0.00000000000E+00 -0.45593999997E+02  0.45594000000E+02  0.51100000000E-03 0.  1.
    9900012    2    1    2    0    0 -0.51624480116E+00  0.10593240950E+01 -0.65395852297E-01  0.90007765765E+02  0.90000027473E+02 0.  0.
         12    1    1    2    0    0  0.51624480116E+00 -0.10593240950E+01  0.65395852297E-01  0.11802342354E+01  0.00000000000E+00 0. -1.
         11    1    3    3    0    0  0.55239133866E+01 -0.17490764902E+01  0.91539984573E+01  0.10833677847E+02  0.51100000000E-03 0. -1.
        -11    1    3    3    0    0 -0.18347015109E+02 -0.34359242958E+02  0.93809474514E-03  0.38950873433E+02  0.51100000000E-03 0.  1.
         12    1    3    3    0    0  0.12306856921E+02  0.37167643543E+02 -0.92203324043E+01  0.40223214485E+02  0.00000000000E+00 0. -1.
</event>
<event>
 7    1  0.1999542E-015  0.9000787E+02  0.7816164E-02  0.1186339E+00
        -11   -1    0    0    0    0  0.00000000000E+00  0.00000000000E+00  0.45593999997E+02  0.45594000000E+02  0.51100000000E-03 0. -1.
         11   -1    0    0    0    0 -0.00000000000E+00 -0.00000000000E+00 -0.45593999997E+02  0.45594000000E+02  0.51100000000E-03 0.  1.
    9900012    2    1    2    0    0  0.60531620973E+00  0.10129483449E+01  0.15021450434E-01  0.90007873860E+02  0.90000136995E+02 0.  0.
         12    1    1    2    0    0 -0.60531620973E+00 -0.10129483449E+01 -0.15021450434E-01  0.11801261403E+01  0.00000000000E+00 0. -1.
         11    1    3    3    0    0 -0.20311425322E+02  0.20162854490E+02  0.25077385374E+02  0.38052200426E+02  0.51100000000E-03 0. -1.
        -11    1    3    3    0    0 -0.33884057915E+01  0.71395669141E+01  0.56913357321E+00  0.79232962089E+01  0.51100000000E-03 0.  1.
        -12    1    3    3    0    0  0.24305147323E+02 -0.26289473059E+02 -0.25631497497E+02  0.44032377225E+02  0.00000000000E+00 0.  1.
</event>
<event>
 7    1  0.1999542E-015  0.9000759E+02  0.7816164E-02  0.1186339E+00
        -11   -1    0    0    0    0  0.00000000000E+00  0.00000000000E+00  0.45593999997E+02  0.45594000000E+02  0.51100000000E-03 0. -1.
         11   -1    0    0    0    0 -0.00000000000E+00 -0.00000000000E+00 -0.45593999997E+02  0.45594000000E+02  0.51100000000E-03 0.  1.
    9900012    2    1    2    0    0 -0.10319764908E+00  0.65104776331E+00  0.97921308466E+00  0.90007588542E+02  0.89999847911E+02 0.  0.
         12    1    1    2    0    0  0.10319764908E+00 -0.65104776331E+00 -0.97921308466E+00  0.11804114579E+01  0.00000000000E+00 0. -1.
         11    1    3    3    0    0 -0.41866344369E+00  0.39797455936E+01 -0.80531879878E+01  0.89926353811E+01  0.51100000000E-03 0. -1.
        -11    1    3    3    0    0  0.10956015563E+02 -0.16210636032E+02 -0.31551818425E+02  0.37125951082E+02  0.51100000000E-03 0.  1.
         12    1    3    3    0    0 -0.10640549768E+02  0.12881938202E+02  0.40584219498E+02  0.43889002079E+02  0.00000000000E+00 0. -1.
</event>
<event>
 7    1  0.1999542E-015  0.9000776E+02  0.7816164E-02  0.1186339E+00
        -11   -1    0    0    0    0  0.00000000000E+00  0.00000000000E+00  0.45593999997E+02  0.45594000000E+02  0.51100000000E-03 0.  1.
         11   -1    0    0    0    0 -0.00000000000E+00 -0.00000000000E+00 -0.45593999997E+02  0.45594000000E+02  0.51100000000E-03 0. -1.
    9900012    2    1    2    0    0  0.60258316492E+00 -0.99994661604E+00  0.17312246839E+00  0.90007758036E+02  0.90000019642E+02 0.  0.
         12    1    1    2    0    0 -0.60258316492E+00  0.99994661604E+00 -0.17312246839E+00  0.11802419644E+01  0.00000000000E+00 0. -1.
         11    1    3    3    0    0  0.46173119042E+01 -0.68799368365E+01  0.43011759363E+01  0.93355886151E+01  0.51100000000E-03 0. -1.
        -11    1    3    3    0    0 -0.21532612826E+02  0.10641528911E+02  0.32134870250E+02  0.40119140555E+02  0.51100000000E-03 0.  1.
         12    1    3    3    0    0  0.17517884087E+02 -0.47615386903E+01 -0.36262923718E+02  0.40553028865E+02  0.00000000000E+00 0. -1.
</event>
<event>
 7    1  0.1999542E-015  0.9000773E+02  0.7816164E-02  0.1186339E+00
        -11   -1    0    0    0    0  0.00000000000E+00  0.00000000000E+00  0.45593999997E+02  0.45594000000E+02  0.51100000000E-03 0.  1.
         11   -1    0    0    0    0 -0.00000000000E+00 -0.00000000000E+00 -0.45593999997E+02  0.45594000000E+02  0.51100000000E-03 0. -1.
    9900012    2    1    2    0    0 -0.16906321367E+00  0.53423377708E+00  0.10387764089E+01  0.90007726927E+02  0.89999988123E+02 0.  0.
         12    1    1    2    0    0  0.16906321367E+00 -0.53423377708E+00 -0.10387764089E+01  0.11802730728E+01  0.00000000000E+00 0. -1.
         11    1    3    3    0    0  0.29235822610E+01 -0.82344214133E+01 -0.11302224531E+01  0.88108133736E+01  0.51100000000E-03 0. -1.
        -11    1    3    3    0    0  0.24414637019E+02 -0.21669387738E+02  0.17934293286E+02  0.37246150696E+02  0.51100000000E-03 0.  1.
         12    1    3    3    0    0 -0.27507282494E+02  0.30438042929E+02 -0.15765294424E+02  0.43950762858E+02  0.00000000000E+00 0. -1.
</event>
<event>
 7    1  0.1999542E-015  0.9000777E+02  0.7816164E-02  0.1186339E+00
        -11   -1    0    0    0    0  0.00000000000E+00  0.00000000000E+00  0.45593999997E+02  0.45594000000E+02  0.51100000000E-03 0.  1.
         11   -1    0    0    0    0 -0.00000000000E+00 -0.00000000000E+00 -0.45593999997E+02  0.45594000000E+02  0.51100000000E-03 0. -1.
    9900012    2    1    2    0    0  0.27994315973E-01 -0.73937284191E+00  0.91950638894E+00  0.90007767870E+02  0.90000029606E+02 0.  0.
         12    1    1    2    0    0 -0.27994315973E-01  0.73937284191E+00 -0.91950638894E+00  0.11802321299E+01  0.00000000000E+00 0. -1.
         11    1    3    3    0    0 -0.11657263849E+01  0.78480503616E+01  0.49712875560E+01  0.93629329116E+01  0.51100000000E-03 0. -1.
        -11    1    3    3    0    0 -0.34335471161E+02  0.96387187596E+01  0.11971672311E+02  0.37618485049E+02  0.51100000000E-03 0.  1.
         12    1    3    3    0    0  0.35529191862E+02 -0.18226141963E+02 -0.16023453478E+02  0.43026349910E+02  0.00000000000E+00 0. -1.
</event>
<event>
 7    1  0.1999542E-015  0.9000761E+02  0.7816164E-02  0.1186339E+00
        -11   -1    0    0    0    0  0.00000000000E+00  0.00000000000E+00  0.45593999997E+02  0.45594000000E+02  0.51100000000E-03 0.  1.
         11   -1    0    0    0    0 -0.00000000000E+00 -0.00000000000E+00 -0.45593999997E+02  0.45594000000E+02  0.51100000000E-03 0. -1.
    9900012    2    1    2    0    0 -0.63253584665E+00 -0.11576769409E+00  0.98986158822E+00  0.90007606117E+02  0.89999865717E+02 0.  0.
         12    1    1    2    0    0  0.63253584665E+00  0.11576769409E+00 -0.98986158822E+00  0.11803938835E+01  0.00000000000E+00 0. -1.
         11    1    3    3    0    0 -0.27138310171E+02 -0.23211341273E+02  0.16664116495E+02  0.39407448806E+02  0.51100000000E-03 0. -1.
        -11    1    3    3    0    0  0.11458315989E+01 -0.78071499735E+01 -0.45339742615E+01  0.91006287490E+01  0.51100000000E-03 0.  1.
        -12    1    3    3    0    0  0.25359942725E+02  0.30902723552E+02 -0.11140280645E+02  0.41499528561E+02  0.00000000000E+00 0.  1.
</event>
<event>
 7    1  0.1999542E-015  0.9000780E+02  0.7816164E-02  0.1186339E+00
        -11   -1    0    0    0    0  0.00000000000E+00  0.00000000000E+00  0.45593999997E+02  0.45594000000E+02  0.51100000000E-03 0. -1.
         11   -1    0    0    0    0 -0.00000000000E+00 -0.00000000000E+00 -0.45593999997E+02  0.45594000000E+02  0.51100000000E-03 0.  1.
    9900012    2    1    2    0    0 -0.67915304552E+00 -0.66407440332E+00 -0.70044186648E+00  0.90007804050E+02  0.90000066263E+02 0.  0.
         12    1    1    2    0    0  0.67915304552E+00  0.66407440332E+00  0.70044186648E+00  0.11801959501E+01  0.00000000000E+00 0. -1.
         11    1    3    3    0    0 -0.74634270151E+00  0.11233648855E+02 -0.17153733866E+01  0.11388344926E+02  0.51100000000E-03 0. -1.
        -11    1    3    3    0    0  0.35410194023E+02  0.92199452204E+01 -0.52792792171E+01  0.36969717607E+02  0.51100000000E-03 0.  1.
         12    1    3    3    0    0 -0.35343004367E+02 -0.21117668479E+02  0.62942107372E+01  0.41649741517E+02  0.00000000000E+00 0. -1.
</event>
<event>
 7    1  0.1999542E-015  0.9000773E+02  0.7816164E-02  0.1186339E+00
        -11   -1    0    0    0    0  0.00000000000E+00  0.00000000000E+00  0.45593999997E+02  0.45594000000E+02  0.51100000000E-03 0. -1.
         11   -1    0    0    0    0 -0.00000000000E+00 -0.00000000000E+00 -0.45593999997E+02  0.45594000000E+02  0.51100000000E-03 0.  1.
    9900012    2    1    2    0    0 -0.11179365537E+01  0.19239794206E+00  0.32594588189E+00  0.90007728919E+02  0.89999990141E+02 0.  0.
         12    1    1    2    0    0  0.11179365537E+01 -0.19239794206E+00 -0.32594588189E+00  0.11802710808E+01  0.00000000000E+00 0. -1.
         11    1    3    3    0    0 -0.12574476398E+02  0.14866441261E+02  0.23584550717E+02  0.30583648658E+02  0.51100000000E-03 0. -1.
        -11    1    3    3    0    0 -0.19416351633E+02  0.11689440985E+01 -0.44507533860E+01  0.19954206248E+02  0.51100000000E-03 0.  1.
        -12    1    3    3    0    0  0.30872891477E+02 -0.15842987418E+02 -0.18807851449E+02  0.39469874013E+02  0.00000000000E+00 0.  1.
</event>
<event>
 7    1  0.1999542E-015  0.9000770E+02  0.7816164E-02  0.1186339E+00
        -11   -1    0    0    0    0  0.00000000000E+00  0.00000000000E+00  0.45593999997E+02  0.45594000000E+02  0.51100000000E-03 0.  1.
         11   -1    0    0    0    0 -0.00000000000E+00 -0.00000000000E+00 -0.45593999997E+02  0.45594000000E+02  0.51100000000E-03 0. -1.
    9900012    2    1    2    0    0  0.92280850685E+00 -0.24070910152E+00  0.69540742171E+00  0.90007700083E+02  0.89999960924E+02 0.  0.
         12    1    1    2    0    0 -0.92280850685E+00  0.24070910152E+00 -0.69540742171E+00  0.11802999170E+01  0.00000000000E+00 0. -1.
         11    1    3    3    0    0 -0.13451389419E+02  0.23145236882E+02 -0.19681691272E+02  0.33226658562E+02  0.51100000000E-03 0. -1.
        -11    1    3    3    0    0 -0.67635996817E+01  0.86365949019E+01 -0.35882974000E+01  0.11541790617E+02  0.51100000000E-03 0.  1.
        -12    1    3    3    0    0  0.21137797608E+02 -0.32022540885E+02  0.23965396093E+02  0.45239250904E+02  0.00000000000E+00 0.  1.
</event>
<event>
 7    1  0.1999542E-015  0.9000772E+02  0.7816164E-02  0.1186339E+00
        -11   -1    0    0    0    0  0.00000000000E+00  0.00000000000E+00  0.45593999997E+02  0.45594000000E+02  0.51100000000E-03 0. -1.
         11   -1    0    0    0    0 -0.00000000000E+00 -0.00000000000E+00 -0.45593999997E+02  0.45594000000E+02  0.51100000000E-03 0.  1.
    9900012    2    1    2    0    0  0.10069096413E+01 -0.56127095612E+00  0.25332963468E+00  0.90007716976E+02  0.89999978040E+02 0.  0.
         12    1    1    2    0    0 -0.10069096413E+01  0.56127095612E+00 -0.25332963468E+00  0.11802830236E+01  0.00000000000E+00 0. -1.
         11    1    3    3    0    0  0.23116997242E+01  0.34675858150E+01 -0.89889699939E+01  0.99080618090E+01  0.51100000000E-03 0. -1.
        -11    1    3    3    0    0  0.56181938948E+01  0.34713334860E+02  0.18406288201E+02  0.39690945634E+02  0.51100000000E-03 0.  1.
         12    1    3    3    0    0 -0.69229839777E+01 -0.38742191631E+02 -0.91639885723E+01  0.40408709533E+02  0.00000000000E+00 0. -1.
</event>
<event>
 7    1  0.1999542E-015  0.9000770E+02  0.7816164E-02  0.1186339E+00
        -11   -1    0    0    0    0  0.00000000000E+00  0.00000000000E+00  0.45593999997E+02  0.45594000000E+02  0.51100000000E-03 0.  1.
         11   -1    0    0    0    0 -0.00000000000E+00 -0.00000000000E+00 -0.45593999997E+02  0.45594000000E+02  0.51100000000E-03 0. -1.
    9900012    2    1    2    0    0  0.79229529062E+00 -0.71925920622E+00  0.49803968283E+00  0.90007699547E+02  0.89999960381E+02 0.  0.
         12    1    1    2    0    0 -0.79229529062E+00  0.71925920622E+00 -0.49803968283E+00  0.11803004528E+01  0.00000000000E+00 0. -1.
         11    1    3    3    0    0  0.27048121179E+02 -0.20606734504E+02  0.15621099486E+02  0.37420009563E+02  0.51100000000E-03 0. -1.
        -11    1    3    3    0    0  0.10004532753E+02  0.39478484745E+01 -0.34118998767E+01  0.11283494327E+02  0.51100000000E-03 0.  1.
        -12    1    3    3    0    0 -0.36260358642E+02  0.15939626823E+02 -0.11711159927E+02  0.41304195658E+02  0.00000000000E+00 0.  1.
</event>
<event>
 7    1  0.1999542E-015  0.9000774E+02  0.7816164E-02  0.1186339E+00
        -11   -1    0    0    0    0  0.00000000000E+00  0.00000000000E+00  0.45593999997E+02  0.45594000000E+02  0.51100000000E-03 0.  1.
         11   -1    0    0    0    0 -0.00000000000E+00 -0.00000000000E+00 -0.45593999997E+02  0.45594000000E+02  0.51100000000E-03 0. -1.
    9900012    2    1    2    0    0  0.76385444862E+00  0.89730752681E+00  0.66249714126E-01  0.90007735860E+02  0.89999997173E+02 0.  0.
         12    1    1    2    0    0 -0.76385444862E+00 -0.89730752681E+00 -0.66249714126E-01  0.11802641403E+01  0.00000000000E+00 0. -1.
         11    1    3    3    0    0  0.46477920741E+01 -0.87607681556E+01 -0.70222322489E+00  0.99421399889E+01  0.51100000000E-03 0. -1.
        -11    1    3    3    0    0 -0.18017810850E+02 -0.31627548381E+02  0.13297959646E+01  0.36424053618E+02  0.51100000000E-03 0.  1.
         12    1    3    3    0    0  0.14133873224E+02  0.41285624064E+02 -0.56132302559E+00  0.43641542252E+02  0.00000000000E+00 0. -1.
</event>
<event>
 7    1  0.1999542E-015  0.9000852E+02  0.7816164E-02  0.1186337E+00
        -11   -1    0    0    0    0  0.00000000000E+00  0.00000000000E+00  0.45593999997E+02  0.45594000000E+02  0.51100000000E-03 0.  1.
         11   -1    0    0    0    0 -0.00000000000E+00 -0.00000000000E+00 -0.45593999997E+02  0.45594000000E+02  0.51100000000E-03 0. -1.
    9900012    2    1    2    0    0  0.18215930791E+00  0.77560823700E+00  0.86972830516E+00  0.90008518133E+02  0.90000789768E+02 0.  0.
         12    1    1    2    0    0 -0.18215930791E+00 -0.77560823700E+00 -0.86972830516E+00  0.11794818674E+01  0.00000000000E+00 0. -1.
         11    1    3    3    0    0 -0.29980213954E+02 -0.12748899540E+02 -0.26892795002E+02  0.42244172279E+02  0.51100000000E-03 0. -1.
        -11    1    3    3    0    0  0.27479878754E+01 -0.23249892923E+01 -0.21592370599E+01  0.41975370772E+01  0.51100000000E-03 0.  1.
        -12    1    3    3    0    0  0.27414385387E+02  0.15849497070E+02  0.29921760367E+02  0.43566808777E+02  0.00000000000E+00 0.  1.
</event>
<event>
 7    1  0.1999542E-015  0.9000774E+02  0.7816164E-02  0.1186339E+00
        -11   -1    0    0    0    0  0.00000000000E+00  0.00000000000E+00  0.45593999997E+02  0.45594000000E+02  0.51100000000E-03 0.  1.
         11   -1    0    0    0    0 -0.00000000000E+00 -0.00000000000E+00 -0.45593999997E+02  0.45594000000E+02  0.51100000000E-03 0. -1.
    9900012    2    1    2    0    0 -0.30327899925E+00 -0.78085664455E+00  0.83144196212E+00  0.90007741136E+02  0.90000002519E+02 0.  0.
         12    1    1    2    0    0  0.30327899925E+00  0.78085664455E+00 -0.83144196212E+00  0.11802588644E+01  0.00000000000E+00 0. -1.
         11    1    3    3    0    0  0.55486617266E+01 -0.40310648395E+01 -0.36773793637E+02  0.37407873896E+02  0.51100000000E-03 0. -1.
        -11    1    3    3    0    0 -0.61472888881E+01  0.52233222305E+01 -0.52975521941E+01  0.96507157925E+01  0.51100000000E-03 0.  1.
        -12    1    3    3    0    0  0.29534816229E+00 -0.19731140356E+01  0.42902787794E+02  0.42949151447E+02  0.00000000000E+00 0.  1.
</event>
<event>
 7    1  0.1999542E-015  0.9000760E+02  0.7816164E-02  0.1186339E+00
        -11   -1    0    0    0    0  0.00000000000E+00  0.00000000000E+00  0.45593999997E+02  0.45594000000E+02  0.51100000000E-03 0.  1.
         11   -1    0    0    0    0 -0.00000000000E+00 -0.00000000000E+00 -0.45593999997E+02  0.45594000000E+02  0.51100000000E-03 0. -1.
    9900012    2    1    2    0    0  0.11381523104E+01 -0.12736134939E+00  0.28588584839E+00  0.90007600782E+02  0.89999860312E+02 0.  0.
         12    1    1    2    0    0 -0.11381523104E+01  0.12736134939E+00 -0.28588584839E+00  0.11803992177E+01  0.00000000000E+00 0. -1.
         11    1    3    3    0    0  0.79668640147E+01 -0.33584555016E+00  0.10317346121E+02  0.13039606808E+02  0.51100000000E-03 0. -1.
        -11    1    3    3    0    0  0.20922566659E+01  0.46449314596E+01  0.32697932307E+02  0.33092411572E+02  0.51100000000E-03 0.  1.
         12    1    3    3    0    0 -0.89209683702E+01 -0.44364472588E+01 -0.42729392580E+02  0.43875582403E+02  0.00000000000E+00 0. -1.
</event>
<event>
 7    1  0.1999542E-015  0.9000808E+02  0.7816164E-02  0.1186338E+00
        -11   -1    0    0    0    0  0.00000000000E+00  0.00000000000E+00  0.45593999997E+02  0.45594000000E+02  0.51100000000E-03 0. -1.
         11   -1    0    0    0    0 -0.00000000000E+00 -0.00000000000E+00 -0.45593999997E+02  0.45594000000E+02  0.51100000000E-03 0.  1.
    9900012    2    1    2    0    0 -0.77134585095E+00  0.41159303880E+00 -0.79234957625E+00  0.90008084282E+02  0.90000350194E+02 0.  0.
         12    1    1    2    0    0  0.77134585095E+00 -0.41159303880E+00  0.79234957625E+00  0.11799157183E+01  0.00000000000E+00 0. -1.
         11    1    3    3    0    0 -0.35950440478E+02  0.16144580745E+02  0.11073760747E+02  0.40935434959E+02  0.51100000000E-03 0. -1.
        -11    1    3    3    0    0 -0.10240023568E+01 -0.95048954371E+01 -0.73549327587E+01  0.12061784870E+02  0.51100000000E-03 0.  1.
        -12    1    3    3    0    0  0.36203096983E+02 -0.62280922692E+01 -0.45111775646E+01  0.37010864453E+02  0.00000000000E+00 0.  1.
</event>
<event>
 7    1  0.1999542E-015  0.9000750E+02  0.7816164E-02  0.1186340E+00
        -11   -1    0    0    0    0  0.00000000000E+00  0.00000000000E+00  0.45593999997E+02  0.45594000000E+02  0.51100000000E-03 0. -1.
         11   -1    0    0    0    0 -0.00000000000E+00 -0.00000000000E+00 -0.45593999997E+02  0.45594000000E+02  0.51100000000E-03 0.  1.
    9900012    2    1    2    0    0  0.98354573097E+00 -0.65042361358E+00  0.56185491012E-01  0.90007504387E+02  0.89999762645E+02 0.  0.
         12    1    1    2    0    0 -0.98354573097E+00  0.65042361358E+00 -0.56185491012E-01  0.11804956126E+01  0.00000000000E+00 0. -1.
         11    1    3    3    0    0 -0.58025407548E+01 -0.12385680788E+01  0.67678325117E+01  0.90003937283E+01  0.51100000000E-03 0. -1.
        -11    1    3    3    0    0 -0.31026305096E+02  0.19644122622E+02 -0.11287495740E+02  0.38417843794E+02  0.51100000000E-03 0.  1.
         12    1    3    3    0    0  0.37812391581E+02 -0.19055978156E+02  0.45758487192E+01  0.42589266865E+02  0.00000000000E+00 0. -1.
</event>
<event>
 7    1  0.1999542E-015  0.9000775E+02  0.7816164E-02  0.1186339E+00
        -11   -1    0    0    0    0  0.00000000000E+00  0.00000000000E+00  0.45593999997E+02  0.45594000000E+02  0.51100000000E-03 0.  1.
         11   -1    0    0    0    0 -0.00000000000E+00 -0.00000000000E+00 -0.45593999997E+02  0.45594000000E+02  0.51100000000E-03 0. -1.
    9900012    2    1    2    0    0  0.34475401490E+00 -0.80557822208E+00 -0.79067945838E+00  0.90007751887E+02  0.90000013412E+02 0.  0.
         12    1    1    2    0    0 -0.34475401490E+00  0.80557822208E+00  0.79067945838E+00  0.11802481131E+01  0.00000000000E+00 0. -1.
         11    1    3    3    0    0 -0.27666822177E+01 -0.42198665680E+02  0.10742867249E+01  0.42302907795E+02  0.51100000000E-03 0. -1.
        -11    1    3    3    0    0  0.77603904130E+01  0.29057738257E+01  0.25917960147E+01  0.86824298288E+01  0.51100000000E-03 0.  1.
        -12    1    3    3    0    0 -0.46489541804E+01  0.38487313633E+02 -0.44567621981E+01  0.39022414263E+02  0.00000000000E+00 0.  1.
</event>
<event>
 7    1  0.1999542E-015  0.9000775E+02  0.7816164E-02  0.1186339E+00
        -11   -1    0    0    0    0  0.00000000000E+00  0.00000000000E+00  0.45593999997E+02  0.45594000000E+02  0.51100000000E-03 0.  1.
         11   -1    0    0    0    0 -0.00000000000E+00 -0.00000000000E+00 -0.45593999997E+02  0.45594000000E+02  0.51100000000E-03 0. -1.
    9900012    2    1    2    0    0 -0.68999993729E-01 -0.10195162462E+01  0.59060545878E+00  0.90007750372E+02  0.90000011877E+02 0.  0.
         12    1    1    2    0    0  0.68999993729E-01  0.10195162462E+01 -0.59060545878E+00  0.11802496276E+01  0.00000000000E+00 0. -1.
         11    1    3    3    0    0 -0.10239249709E+02 -0.66786318240E+01 -0.38053227133E+01  0.12803391694E+02  0.51100000000E-03 0. -1.
        -11    1    3    3    0    0 -0.17198393735E+02 -0.28059439032E+02  0.71888161178E+01  0.33686732452E+02  0.51100000000E-03 0.  1.
         12    1    3    3    0    0  0.27368643451E+02  0.33718554610E+02 -0.27928879457E+01  0.43517626227E+02  0.00000000000E+00 0. -1.
</event>
<event>
 7    1  0.1999542E-015  0.9000770E+02  0.7816164E-02  0.1186339E+00
        -11   -1    0    0    0    0  0.00000000000E+00  0.00000000000E+00  0.45593999997E+02  0.45594000000E+02  0.51100000000E-03 0.  1.
         11   -1    0    0    0    0 -0.00000000000E+00 -0.00000000000E+00 -0.45593999997E+02  0.45594000000E+02  0.51100000000E-03 0. -1.
    9900012    2    1    2    0    0 -0.11556227554E+01 -0.21959250574E+00 -0.97047809345E-01  0.90007702114E+02  0.89999962982E+02 0.  0.
         12    1    1    2    0    0  0.11556227554E+01  0.21959250574E+00  0.97047809345E-01  0.11802978856E+01  0.00000000000E+00 0. -1.
         11    1    3    3    0    0 -0.10117762620E+02  0.18726382499E+01  0.36301624092E+01  0.10911185720E+02  0.51100000000E-03 0. -1.
        -11    1    3    3    0    0  0.29793491599E+02  0.17811655374E+02 -0.25426085404E+02  0.43027816910E+02  0.51100000000E-03 0.  1.
         12    1    3    3    0    0 -0.20831351735E+02 -0.19903886129E+02  0.21698875185E+02  0.36068699484E+02  0.00000000000E+00 0. -1.
</event>
<event>
 7    1  0.1999542E-015  0.9000768E+02  0.7816164E-02  0.1186339E+00
        -11   -1    0    0    0    0  0.00000000000E+00  0.00000000000E+00  0.45593999997E+02  0.45594000000E+02  0.51100000000E-03 0.  1.
         11   -1    0    0    0    0 -0.00000000000E+00 -0.00000000000E+00 -0.45593999997E+02  0.45594000000E+02  0.51100000000E-03 0. -1.
    9900012    2    1    2    0    0 -0.10552688376E+01  0.37170797790E+00  0.37601725936E+00  0.90007683043E+02  0.89999943659E+02 0.  0.
         12    1    1    2    0    0  0.10552688376E+01 -0.37170797790E+00 -0.37601725936E+00  0.11803169574E+01  0.00000000000E+00 0. -1.
         11    1    3    3    0    0 -0.10466833046E+01 -0.61712112593E+01  0.78614677893E+01  0.10048983551E+02  0.51100000000E-03 0. -1.
        -11    1    3    3    0    0 -0.58226601558E+01  0.11291881946E+02  0.34782041715E+02  0.37029723133E+02  0.51100000000E-03 0.  1.
         12    1    3    3    0    0  0.58140746228E+01 -0.47489627092E+01 -0.42267492245E+02  0.42928976359E+02  0.00000000000E+00 0. -1.
</event>
<event>
 7    1  0.1999542E-015  0.9000774E+02  0.7816164E-02  0.1186339E+00
        -11   -1    0    0    0    0  0.00000000000E+00  0.00000000000E+00  0.45593999997E+02  0.45594000000E+02  0.51100000000E-03 0. -1.
         11   -1    0    0    0    0 -0.00000000000E+00 -0.00000000000E+00 -0.45593999997E+02  0.45594000000E+02  0.51100000000E-03 0.  1.
    9900012    2    1    2    0    0  0.24030325008E+00 -0.11553892705E+01  0.18698523561E-01  0.90007737464E+02  0.89999998799E+02 0.  0.
         12    1    1    2    0    0 -0.24030325008E+00  0.11553892705E+01 -0.18698523561E-01  0.11802625357E+01  0.00000000000E+00 0. -1.
         11    1    3    3    0    0 -0.14948814175E+02  0.32151193535E+02  0.92476156688E+01  0.36642662114E+02  0.51100000000E-03 0. -1.
        -11    1    3    3    0    0 -0.17470273189E+01  0.70819438992E+01  0.30107505745E+01  0.78911756492E+01  0.51100000000E-03 0.  1.
        -12    1    3    3    0    0  0.16936144744E+02 -0.40388526705E+02 -0.12239667720E+02  0.45473899701E+02  0.00000000000E+00 0.  1.
</event>
<event>
 7    1  0.1999542E-015  0.9000797E+02  0.7816164E-02  0.1186339E+00
        -11   -1    0    0    0    0  0.00000000000E+00  0.00000000000E+00  0.45593999997E+02  0.45594000000E+02  0.51100000000E-03 0. -1.
         11   -1    0    0    0    0 -0.00000000000E+00 -0.00000000000E+00 -0.45593999997E+02  0.45594000000E+02  0.51100000000E-03 0.  1.
    9900012    2    1    2    0    0  0.59606230638E+00 -0.91640287966E+00 -0.44428164471E+00  0.90007970047E+02  0.90000234451E+02 0.  0.
         12    1    1    2    0    0 -0.59606230638E+00  0.91640287966E+00  0.44428164471E+00  0.11800299533E+01  0.00000000000E+00 0. -1.
         11    1    3    3    0    0 -0.24987264174E+02  0.26305966375E+02 -0.10606690651E+01  0.36297276165E+02  0.51100000000E-03 0. -1.
        -11    1    3    3    0    0 -0.41772321119E+01  0.58896325896E+01  0.52817764934E+01  0.89461837307E+01  0.51100000000E-03 0.  1.
        -12    1    3    3    0    0  0.29760558592E+02 -0.33112001844E+02 -0.46653890729E+01  0.44764510151E+02  0.00000000000E+00 0.  1.
</event>
<event>
 7    1  0.1999542E-015  0.9000768E+02  0.7816164E-02  0.1186339E+00
        -11   -1    0    0    0    0  0.00000000000E+00  0.00000000000E+00  0.45593999997E+02  0.45594000000E+02  0.51100000000E-03 0.  1.
         11   -1    0    0    0    0 -0.00000000000E+00 -0.00000000000E+00 -0.45593999997E+02  0.45594000000E+02  0.51100000000E-03 0. -1.
    9900012    2    1    2    0    0  0.28516154293E+00 -0.10239565954E+01  0.51318534811E+00  0.90007676563E+02  0.89999937093E+02 0.  0.
         12    1    1    2    0    0 -0.28516154293E+00  0.10239565954E+01 -0.51318534811E+00  0.11803234372E+01  0.00000000000E+00 0. -1.
         11    1    3    3    0    0 -0.86815595350E+01 -0.16438735443E+01  0.14917505966E+01  0.89608658227E+01  0.51100000000E-03 0. -1.
        -11    1    3    3    0    0 -0.16709226588E+02  0.51536949124E+01  0.33518240551E+02  0.37805175231E+02  0.51100000000E-03 0.  1.
         12    1    3    3    0    0  0.25675947665E+02 -0.45337779636E+01 -0.34496805799E+02  0.43241635509E+02  0.00000000000E+00 0. -1.
</event>
<event>
 7    1  0.1999542E-015  0.9000776E+02  0.7816164E-02  0.1186339E+00
        -11   -1    0    0    0    0  0.00000000000E+00  0.00000000000E+00  0.45593999997E+02  0.45594000000E+02  0.51100000000E-03 0.  1.
         11   -1    0    0    0    0 -0.00000000000E+00 -0.00000000000E+00 -0.45593999997E+02  0.45594000000E+02  0.51100000000E-03 0. -1.
    9900012    2    1    2    0    0  0.60603425102E+00 -0.26051387937E+00  0.97868135846E+00  0.90007761805E+02  0.90000023461E+02 0.  0.
         12    1    1    2    0    0 -0.60603425102E+00  0.26051387937E+00 -0.97868135846E+00  0.11802381947E+01  0.00000000000E+00 0. -1.
         11    1    3    3    0    0 -0.41887091891E+02 -0.82610210286E+01 -0.28715732625E+01  0.42790406271E+02  0.51100000000E-03 0. -1.
        -11    1    3    3    0    0  0.76020740835E+01 -0.50612913129E+01  0.39773956291E+01  0.99613190078E+01  0.51100000000E-03 0.  1.
        -12    1    3    3    0    0  0.34891052059E+02  0.13061798462E+02 -0.12714100815E+00  0.37256036527E+02  0.00000000000E+00 0.  1.
</event>
<event>
 7    1  0.1999542E-015  0.9000772E+02  0.7816164E-02  0.1186339E+00
        -11   -1    0    0    0    0  0.00000000000E+00  0.00000000000E+00  0.45593999997E+02  0.45594000000E+02  0.51100000000E-03 0. -1.
         11   -1    0    0    0    0 -0.00000000000E+00 -0.00000000000E+00 -0.45593999997E+02  0.45594000000E+02  0.51100000000E-03 0.  1.
    9900012    2    1    2    0    0  0.73733290666E+00  0.14231178952E-01 -0.92151978632E+00  0.90007719924E+02  0.89999981027E+02 0.  0.
         12    1    1    2    0    0 -0.73733290666E+00 -0.14231178952E-01  0.92151978632E+00  0.11802800762E+01  0.00000000000E+00 0. -1.
         11    1    3    3    0    0  0.62055211977E+01  0.12020882132E+01  0.67578953171E+01  0.92532512549E+01  0.51100000000E-03 0. -1.
        -11    1    3    3    0    0 -0.15907504601E+02  0.29038991759E+02 -0.27577101138E+02  0.43090697980E+02  0.51100000000E-03 0.  1.
         12    1    3    3    0    0  0.10439316310E+02 -0.30226848793E+02  0.19897686034E+02  0.37663770689E+02  0.00000000000E+00 0. -1.
</event>
<event>
 7    1  0.1999542E-015  0.9000739E+02  0.7816164E-02  0.1186340E+00
        -11   -1    0    0    0    0  0.00000000000E+00  0.00000000000E+00  0.45593999997E+02  0.45594000000E+02  0.51100000000E-03 0.  1.
         11   -1    0    0    0    0 -0.00000000000E+00 -0.00000000000E+00 -0.45593999997E+02  0.45594000000E+02  0.51100000000E-03 0. -1.
    9900012    2    1    2    0    0  0.84600324443E+00 -0.47715591032E+00 -0.67115738543E+00  0.90007385123E+02  0.89999641806E+02 0.  0.
         12    1    1    2    0    0 -0.84600324443E+00  0.47715591032E+00  0.67115738543E+00  0.11806148772E+01  0.00000000000E+00 0. -1.
         11    1    3    3    0    0 -0.40270271634E+00 -0.29256439506E+01 -0.86033006925E+01  0.90960620639E+01  0.51100000000E-03 0. -1.
        -11    1    3    3    0    0  0.34433143080E+02  0.83095864478E+01 -0.16709320732E+02  0.39164932898E+02  0.51100000000E-03 0.  1.
         12    1    3    3    0    0 -0.33184437120E+02 -0.58610984075E+01  0.24641464039E+02  0.41746390161E+02  0.00000000000E+00 0. -1.
</event>
<event>
 7    1  0.1999542E-015  0.9000784E+02  0.7816164E-02  0.1186339E+00
        -11   -1    0    0    0    0  0.00000000000E+00  0.00000000000E+00  0.45593999997E+02  0.45594000000E+02  0.51100000000E-03 0.  1.
         11   -1    0    0    0    0 -0.00000000000E+00 -0.00000000000E+00 -0.45593999997E+02  0.45594000000E+02  0.51100000000E-03 0. -1.
    9900012    2    1    2    0    0 -0.10200225539E+01 -0.22404852523E+00  0.54967678920E+00  0.90007835467E+02  0.90000098095E+02 0.  0.
         12    1    1    2    0    0  0.10200225539E+01  0.22404852523E+00 -0.54967678920E+00  0.11801645329E+01  0.00000000000E+00 0. -1.
         11    1    3    3    0    0 -0.14568600454E+02 -0.17271088765E+01 -0.92880666010E+00  0.14699990011E+02  0.51100000000E-03 0. -1.
        -11    1    3    3    0    0 -0.18786699763E+02  0.27842383578E+02  0.76201909875E+00  0.33596414759E+02  0.51100000000E-03 0.  1.
         12    1    3    3    0    0  0.32335277663E+02 -0.26339323227E+02  0.71646435055E+00  0.41711430697E+02  0.00000000000E+00 0. -1.
</event>
<event>
 7    1  0.1999542E-015  0.9000773E+02  0.7816164E-02  0.1186339E+00
        -11   -1    0    0    0    0  0.00000000000E+00  0.00000000000E+00  0.45593999997E+02  0.45594000000E+02  0.51100000000E-03 0. -1.
         11   -1    0    0    0    0 -0.00000000000E+00 -0.00000000000E+00 -0.45593999997E+02  0.45594000000E+02  0.51100000000E-03 0.  1.
    9900012    2    1    2    0    0 -0.77235335942E-01 -0.10538697499E+01 -0.52576325755E+00  0.90007731492E+02  0.89999992748E+02 0.  0.
         12    1    1    2    0    0  0.77235335942E-01  0.10538697499E+01  0.52576325755E+00  0.11802685075E+01  0.00000000000E+00 0. -1.
         11    1    3    3    0    0  0.54667254225E+01  0.24192204653E+02 -0.29412937473E+02  0.38474260797E+02  0.51100000000E-03 0. -1.
        -11    1    3    3    0    0 -0.18750440328E+01  0.82450996296E+01  0.27476683467E+01  0.88908458333E+01  0.51100000000E-03 0.  1.
        -12    1    3    3    0    0 -0.36689167256E+01 -0.33491174033E+02  0.26139505869E+02  0.42642624862E+02  0.00000000000E+00 0.  1.
</event>
<event>
 7    1  0.1999542E-015  0.9000769E+02  0.7816164E-02  0.1186339E+00
        -11   -1    0    0    0    0  0.00000000000E+00  0.00000000000E+00  0.45593999997E+02  0.45594000000E+02  0.51100000000E-03 0.  1.
         11   -1    0    0    0    0 -0.00000000000E+00 -0.00000000000E+00 -0.45593999997E+02  0.45594000000E+02  0.51100000000E-03 0. -1.
    9900012    2    1    2    0    0 -0.40528603906E+00 -0.11006242818E+00  0.11030638145E+01  0.90007694832E+02  0.89999955603E+02 0.  0.
         12    1    1    2    0    0  0.40528603906E+00  0.11006242818E+00 -0.11030638145E+01  0.11803051684E+01  0.00000000000E+00 0. -1.
         11    1    3    3    0    0  0.62299020550E+01  0.81792767067E+01  0.43433124392E+01  0.11161389262E+02  0.51100000000E-03 0. -1.
        -11    1    3    3    0    0  0.31379130298E+02 -0.68502976393E+01  0.16368221038E+02  0.36048509764E+02  0.51100000000E-03 0.  1.
         12    1    3    3    0    0 -0.38014318392E+02 -0.14390414956E+01 -0.19608469663E+02  0.42797795805E+02  0.00000000000E+00 0. -1.
</event>
<event>
 7    1  0.1999542E-015  0.9000783E+02  0.7816164E-02  0.1186339E+00
        -11   -1    0    0    0    0  0.00000000000E+00  0.00000000000E+00  0.45593999997E+02  0.45594000000E+02  0.51100000000E-03 0. -1.
         11   -1    0    0    0    0 -0.00000000000E+00 -0.00000000000E+00 -0.45593999997E+02  0.45594000000E+02  0.51100000000E-03 0.  1.
    9900012    2    1    2    0    0 -0.10692969069E+01 -0.49564907255E-01 -0.49694214857E+00  0.90007828803E+02  0.90000091343E+02 0.  0.
         12    1    1    2    0    0  0.10692969069E+01  0.49564907255E-01  0.49694214857E+00  0.11801711970E+01  0.00000000000E+00 0. -1.
         11    1    3    3    0    0 -0.46379834329E+01  0.43861899111E+01  0.84799187191E+01  0.10614074336E+02  0.51100000000E-03 0. -1.
        -11    1    3    3    0    0  0.33812357765E+02 -0.20038699254E+02  0.98253758920E+01  0.40513738621E+02  0.51100000000E-03 0.  1.
         12    1    3    3    0    0 -0.30243671238E+02  0.15602944435E+02 -0.18802236760E+02  0.38880015846E+02  0.00000000000E+00 0. -1.
</event>
<event>
 7    1  0.1999542E-015  0.9000775E+02  0.7816164E-02  0.1186339E+00
        -11   -1    0    0    0    0  0.00000000000E+00  0.00000000000E+00  0.45593999997E+02  0.45594000000E+02  0.51100000000E-03 0.  1.
         11   -1    0    0    0    0 -0.00000000000E+00 -0.00000000000E+00 -0.45593999997E+02  0.45594000000E+02  0.51100000000E-03 0. -1.
    9900012    2    1    2    0    0 -0.10713701858E+01 -0.11982284154E+00  0.48040756981E+00  0.90007752983E+02  0.90000014522E+02 0.  0.
         12    1    1    2    0    0  0.10713701858E+01  0.11982284154E+00 -0.48040756981E+00  0.11802470171E+01  0.00000000000E+00 0. -1.
         11    1    3    3    0    0  0.37946435925E+00  0.24858484806E+02 -0.15890605878E+02  0.29505925091E+02  0.51100000000E-03 0. -1.
        -11    1    3    3    0    0 -0.66148959151E+01 -0.15568463846E+02 -0.17876864465E+02  0.24611302238E+02  0.51100000000E-03 0.  1.
        -12    1    3    3    0    0  0.51640613701E+01 -0.94098438018E+01  0.34247877912E+02  0.35890525654E+02  0.00000000000E+00 0.  1.
</event>
<event>
 7    1  0.2648753E-015  0.9000767E+02  0.7816164E-02  0.1186339E+00
        -11   -1    0    0    0    0  0.00000000000E+00  0.00000000000E+00  0.45593999997E+02  0.45594000000E+02  0.51100000000E-03 0.  1.
         11   -1    0    0    0    0 -0.00000000000E+00 -0.00000000000E+00 -0.45593999997E+02  0.45594000000E+02  0.51100000000E-03 0. -1.
    9900012    2    1    2    0    0  0.88313064430E+00 -0.23426367410E+00  0.74724217334E+00  0.90007673744E+02  0.89999934238E+02 0.  0.
         12    1    1    2    0    0 -0.88313064430E+00  0.23426367410E+00 -0.74724217334E+00  0.11803262555E+01  0.00000000000E+00 0. -1.
         11    1    3    3    0    0 -0.18347587224E+02 -0.91380793760E+01 -0.32663451628E+02  0.38562151446E+02  0.51100000000E-03 0. -1.
        -11    1    3    3    0    0 -0.25690988894E+01  0.92235136361E+01 -0.20754480132E+01  0.97969871704E+01  0.51100000000E-03 0.  1.
        -12    1    3    3    0    0  0.21799816758E+02 -0.31969793423E+00  0.35486141815E+02  0.41648535128E+02  0.00000000000E+00 0.  1.
</event>
<event>
 7    1  0.1999542E-015  0.9000646E+02  0.7816164E-02  0.1186342E+00
        -11   -1    0    0    0    0  0.00000000000E+00  0.00000000000E+00  0.45593999997E+02  0.45594000000E+02  0.51100000000E-03 0.  1.
         11   -1    0    0    0    0 -0.00000000000E+00 -0.00000000000E+00 -0.45593999997E+02  0.45594000000E+02  0.51100000000E-03 0. -1.
    9900012    2    1    2    0    0  0.28462694464E+00 -0.11074995176E+01  0.29745335417E+00  0.90006456020E+02  0.89998700430E+02 0.  0.
         12    1    1    2    0    0 -0.28462694464E+00  0.11074995176E+01 -0.29745335417E+00  0.11815439802E+01  0.00000000000E+00 0. -1.
         11    1    3    3    0    0 -0.24691182357E+02 -0.78847954429E+00  0.66007092003E+01  0.25570403759E+02  0.51100000000E-03 0. -1.
        -11    1    3    3    0    0  0.37465326952E+00 -0.12037452796E+02  0.22041633913E+02  0.25117210449E+02  0.51100000000E-03 0.  1.
         12    1    3    3    0    0  0.24601156033E+02  0.11718432823E+02 -0.28344889759E+02  0.39318841812E+02  0.00000000000E+00 0. -1.
</event>
<event>
 7    1  0.1999542E-015  0.9000781E+02  0.7816164E-02  0.1186339E+00
        -11   -1    0    0    0    0  0.00000000000E+00  0.00000000000E+00  0.45593999997E+02  0.45594000000E+02  0.51100000000E-03 0.  1.
         11   -1    0    0    0    0 -0.00000000000E+00 -0.00000000000E+00 -0.45593999997E+02  0.45594000000E+02  0.51100000000E-03 0. -1.
    9900012    2    1    2    0    0  0.26419581813E+00  0.74609919718E+00  0.87543487575E+00  0.90007809480E+02  0.90000071765E+02 0.  0.
         12    1    1    2    0    0 -0.26419581813E+00 -0.74609919718E+00 -0.87543487575E+00  0.11801905202E+01  0.00000000000E+00 0. -1.
         11    1    3    3    0    0  0.41873495368E+02  0.38459068993E+01 -0.91014203904E+00  0.42059588360E+02  0.51100000000E-03 0. -1.
        -11    1    3    3    0    0 -0.65057672798E+01 -0.47390465479E+01  0.89994188688E+01  0.12073653561E+02  0.51100000000E-03 0.  1.
        -12    1    3    3    0    0 -0.35103532270E+02  0.16392388458E+01 -0.72138419540E+01  0.35874567559E+02  0.00000000000E+00 0.  1.
</event>
<event>
 7    1  0.1999542E-015  0.9000762E+02  0.7816164E-02  0.1186339E+00
        -11   -1    0    0    0    0  0.00000000000E+00  0.00000000000E+00  0.45593999997E+02  0.45594000000E+02  0.51100000000E-03 0. -1.
         11   -1    0    0    0    0 -0.00000000000E+00 -0.00000000000E+00 -0.45593999997E+02  0.45594000000E+02  0.51100000000E-03 0.  1.
    9900012    2    1    2    0    0  0.10926268689E+01 -0.44262909854E+00 -0.59471079169E-01  0.90007622602E+02  0.89999882420E+02 0.  0.
         12    1    1    2    0    0 -0.10926268689E+01  0.44262909854E+00  0.59471079169E-01  0.11803773984E+01  0.00000000000E+00 0. -1.
         11    1    3    3    0    0  0.17279828723E+02  0.12267973715E+02  0.36162309178E+02  0.41914296667E+02  0.51100000000E-03 0. -1.
        -11    1    3    3    0    0 -0.69093876535E+01  0.58963849050E+00  0.14455312709E+01  0.70835635250E+01  0.51100000000E-03 0.  1.
        -12    1    3    3    0    0 -0.92778142011E+01 -0.13300241304E+02 -0.37667311528E+02  0.41009762409E+02  0.00000000000E+00 0.  1.
</event>
<event>
 7    1  0.1999542E-015  0.9000764E+02  0.7816164E-02  0.1186339E+00
        -11   -1    0    0    0    0  0.00000000000E+00  0.00000000000E+00  0.45593999997E+02  0.45594000000E+02  0.51100000000E-03 0.  1.
         11   -1    0    0    0    0 -0.00000000000E+00 -0.00000000000E+00 -0.45593999997E+02  0.45594000000E+02  0.51100000000E-03 0. -1.
    9900012    2    1    2    0    0  0.43518767073E+00  0.36560348622E+00  0.10345049194E+01  0.90007637917E+02  0.89999897938E+02 0.  0.
         12    1    1    2    0    0 -0.43518767073E+00 -0.36560348622E+00 -0.10345049194E+01  0.11803620826E+01  0.00000000000E+00 0. -1.
         11    1    3    3    0    0  0.18091215888E+02 -0.23848474702E+02 -0.21013572837E+02  0.36573379412E+02  0.51100000000E-03 0. -1.
        -11    1    3    3    0    0  0.71573228893E+01 -0.82458318989E-01 -0.55648421466E+01  0.90665064217E+01  0.51100000000E-03 0.  1.
        -12    1    3    3    0    0 -0.24813351107E+02  0.24296536507E+02  0.27612919903E+02  0.44367752084E+02  0.00000000000E+00 0.  1.
</event>
<event>
 7    1  0.1999542E-015  0.9000771E+02  0.7816164E-02  0.1186339E+00
        -11   -1    0    0    0    0  0.00000000000E+00  0.00000000000E+00  0.45593999997E+02  0.45594000000E+02  0.51100000000E-03 0. -1.
         11   -1    0    0    0    0 -0.00000000000E+00 -0.00000000000E+00 -0.45593999997E+02  0.45594000000E+02  0.51100000000E-03 0.  1.
    9900012    2    1    2    0    0  0.24340119555E+00 -0.95877295362E+00 -0.64389054563E+00  0.90007709886E+02  0.89999970856E+02 0.  0.
         12    1    1    2    0    0 -0.24340119555E+00  0.95877295362E+00  0.64389054563E+00  0.11802901141E+01  0.00000000000E+00 0. -1.
         11    1    3    3    0    0  0.98357703531E+01 -0.30400080164E+01  0.28797169059E+01  0.10690032596E+02  0.51100000000E-03 0. -1.
        -11    1    3    3    0    0  0.32165073089E+02  0.32593155666E+01 -0.15510382296E+02  0.35857872553E+02  0.51100000000E-03 0.  1.
         12    1    3    3    0    0 -0.41757442247E+02 -0.11780805038E+01  0.11986774844E+02  0.43459804737E+02  0.00000000000E+00 0. -1.
</event>
<event>
 7    1  0.1999542E-015  0.9000775E+02  0.7816164E-02  0.1186339E+00
        -11   -1    0    0    0    0  0.00000000000E+00  0.00000000000E+00  0.45593999997E+02  0.45594000000E+02  0.51100000000E-03 0.  1.
         11   -1    0    0    0    0 -0.00000000000E+00 -0.00000000000E+00 -0.45593999997E+02  0.45594000000E+02  0.51100000000E-03 0. -1.
    9900012    2    1    2    0    0 -0.71277642669E+00  0.19483357275E+00  0.92031869450E+00  0.90007747122E+02  0.90000008584E+02 0.  0.
         12    1    1    2    0    0  0.71277642669E+00 -0.19483357275E+00 -0.92031869450E+00  0.11802528776E+01  0.00000000000E+00 0. -1.
         11    1    3    3    0    0 -0.23157782612E+01 -0.45921242401E+01 -0.92274584411E+01  0.10563920841E+02  0.51100000000E-03 0. -1.
        -11    1    3    3    0    0 -0.15961747519E+02  0.36234713790E+02 -0.58609961683E+01  0.40026030826E+02  0.51100000000E-03 0.  1.
         12    1    3    3    0    0  0.17564749354E+02 -0.31447755977E+02  0.16008773304E+02  0.39417795456E+02  0.00000000000E+00 0. -1.
</event>
<event>
 7    1  0.1999542E-015  0.9000781E+02  0.7816164E-02  0.1186339E+00
        -11   -1    0    0    0    0  0.00000000000E+00  0.00000000000E+00  0.45593999997E+02  0.45594000000E+02  0.51100000000E-03 0. -1.
         11   -1    0    0    0    0 -0.00000000000E+00 -0.00000000000E+00 -0.45593999997E+02  0.45594000000E+02  0.51100000000E-03 0.  1.
    9900012    2    1    2    0    0  0.53489951735E+00  0.10350959085E+01 -0.18791108182E+00  0.90007808656E+02  0.90000070930E+02 0.  0.
         12    1    1    2    0    0 -0.53489951735E+00 -0.10350959085E+01  0.18791108182E+00  0.11801913438E+01  0.00000000000E+00 0. -1.
         11    1    3    3    0    0 -0.13352117640E+01  0.95366407373E+01  0.65734248052E+00  0.96520674679E+01  0.51100000000E-03 0. -1.
        -11    1    3    3    0    0 -0.98476816996E+01  0.27234271690E+02  0.21985831051E+02  0.36360131416E+02  0.51100000000E-03 0.  1.
         12    1    3    3    0    0  0.11717792981E+02 -0.35735816519E+02 -0.22831084613E+02  0.43995609772E+02  0.00000000000E+00 0. -1.
</event>
<event>
 7    1  0.1999542E-015  0.9000775E+02  0.7816164E-02  0.1186339E+00
        -11   -1    0    0    0    0  0.00000000000E+00  0.00000000000E+00  0.45593999997E+02  0.45594000000E+02  0.51100000000E-03 0.  1.
         11   -1    0    0    0    0 -0.00000000000E+00 -0.00000000000E+00 -0.45593999997E+02  0.45594000000E+02  0.51100000000E-03 0. -1.
    9900012    2    1    2    0    0 -0.11330763655E+01 -0.28707893732E+00 -0.16344885071E+00  0.90007749224E+02  0.90000010714E+02 0.  0.
         12    1    1    2    0    0  0.11330763655E+01  0.28707893732E+00  0.16344885071E+00  0.11802507756E+01  0.00000000000E+00 0. -1.
         11    1    3    3    0    0 -0.55801417749E+01 -0.40073313458E+01  0.70345370270E+01  0.98326699420E+01  0.51100000000E-03 0. -1.
        -11    1    3    3    0    0  0.19516105764E+01  0.63434063555E+01  0.36110594262E+02  0.36715427360E+02  0.51100000000E-03 0.  1.
         12    1    3    3    0    0  0.24954548330E+01 -0.26231539470E+01 -0.43308580140E+02  0.43459651922E+02  0.00000000000E+00 0. -1.
</event>
<event>
 7    1  0.1999542E-015  0.9000714E+02  0.7816164E-02  0.1186340E+00
        -11   -1    0    0    0    0  0.00000000000E+00  0.00000000000E+00  0.45593999997E+02  0.45594000000E+02  0.51100000000E-03 0. -1.
         11   -1    0    0    0    0 -0.00000000000E+00 -0.00000000000E+00 -0.45593999997E+02  0.45594000000E+02  0.51100000000E-03 0.  1.
    9900012    2    1    2    0    0  0.33914395973E+00 -0.11287132349E+01 -0.73543050645E-01  0.90007144051E+02  0.89999397550E+02 0.  0.
         12    1    1    2    0    0 -0.33914395973E+00  0.11287132349E+01  0.73543050645E-01  0.11808559491E+01  0.00000000000E+00 0. -1.
         11    1    3    3    0    0  0.10030884491E+02 -0.16676963638E+02  0.31543206195E+02  0.37063642795E+02  0.51100000000E-03 0. -1.
        -11    1    3    3    0    0  0.12906684333E+02  0.12151723718E+01 -0.21535582287E+01  0.13141421447E+02  0.51100000000E-03 0.  1.
        -12    1    3    3    0    0 -0.22598424864E+02  0.14333078031E+02 -0.29463191017E+02  0.39802079809E+02  0.00000000000E+00 0.  1.
</event>
<event>
 7    1  0.1999542E-015  0.9000784E+02  0.7816164E-02  0.1186339E+00
        -11   -1    0    0    0    0  0.00000000000E+00  0.00000000000E+00  0.45593999997E+02  0.45594000000E+02  0.51100000000E-03 0.  1.
         11   -1    0    0    0    0 -0.00000000000E+00 -0.00000000000E+00 -0.45593999997E+02  0.45594000000E+02  0.51100000000E-03 0. -1.
    9900012    2    1    2    0    0 -0.24606088501E+00 -0.10158969183E+01  0.54789974806E+00  0.90007836180E+02  0.90000098818E+02 0.  0.
         12    1    1    2    0    0  0.24606088501E+00  0.10158969183E+01 -0.54789974806E+00  0.11801638198E+01  0.00000000000E+00 0. -1.
         11    1    3    3    0    0 -0.47729102173E+01  0.71791756778E+01 -0.33038124982E+01  0.92323568301E+01  0.51100000000E-03 0. -1.
        -11    1    3    3    0    0  0.24976198842E+02 -0.14941253394E+02  0.33343641699E+02  0.44258897451E+02  0.51100000000E-03 0.  1.
         12    1    3    3    0    0 -0.20449349509E+02  0.67461807977E+01 -0.29491929453E+02  0.36516581899E+02  0.00000000000E+00 0. -1.
</event>
<event>
 7    1  0.1999542E-015  0.9000768E+02  0.7816164E-02  0.1186339E+00
        -11   -1    0    0    0    0  0.00000000000E+00  0.00000000000E+00  0.45593999997E+02  0.45594000000E+02  0.51100000000E-03 0. -1.
         11   -1    0    0    0    0 -0.00000000000E+00 -0.00000000000E+00 -0.45593999997E+02  0.45594000000E+02  0.51100000000E-03 0.  1.
    9900012    2    1    2    0    0  0.27736359247E+00  0.30891462713E+00 -0.11049012256E+01  0.90007675668E+02  0.89999936187E+02 0.  0.
         12    1    1    2    0    0 -0.27736359247E+00 -0.30891462713E+00  0.11049012256E+01  0.11803243316E+01  0.00000000000E+00 0. -1.
         11    1    3    3    0    0 -0.68379190440E+01 -0.19120196957E+02  0.23465135465E+02  0.31031462279E+02  0.51100000000E-03 0. -1.
        -11    1    3    3    0    0 -0.86693005776E+01 -0.59539555500E+01 -0.27010814444E+02  0.28986038991E+02  0.51100000000E-03 0.  1.
        -12    1    3    3    0    0  0.15784583214E+02  0.25383067134E+02  0.24407777537E+01  0.29990174398E+02  0.00000000000E+00 0.  1.
</event>
<event>
 7    1  0.1999542E-015  0.9000769E+02  0.7816164E-02  0.1186339E+00
        -11   -1    0    0    0    0  0.00000000000E+00  0.00000000000E+00  0.45593999997E+02  0.45594000000E+02  0.51100000000E-03 0.  1.
         11   -1    0    0    0    0 -0.00000000000E+00 -0.00000000000E+00 -0.45593999997E+02  0.45594000000E+02  0.51100000000E-03 0. -1.
    9900012    2    1    2    0    0  0.98942134154E-01  0.92782749252E+00  0.72282142851E+00  0.90007693167E+02  0.89999953917E+02 0.  0.
         12    1    1    2    0    0 -0.98942134154E-01 -0.92782749252E+00 -0.72282142851E+00  0.11803068327E+01  0.00000000000E+00 0. -1.
         11    1    3    3    0    0  0.32483404116E+02  0.18203850030E+02  0.46975962987E+01  0.37531574842E+02  0.51100000000E-03 0. -1.
        -11    1    3    3    0    0 -0.38626582404E+01 -0.29507448637E+01 -0.17239954781E+02  0.17912092704E+02  0.51100000000E-03 0.  1.
        -12    1    3    3    0    0 -0.28521803742E+02 -0.14325277674E+02  0.13265179910E+02  0.34564025621E+02  0.00000000000E+00 0.  1.
</event>
<event>
 7    1  0.1999542E-015  0.9000780E+02  0.7816164E-02  0.1186339E+00
        -11   -1    0    0    0    0  0.00000000000E+00  0.00000000000E+00  0.45593999997E+02  0.45594000000E+02  0.51100000000E-03 0.  1.
         11   -1    0    0    0    0 -0.00000000000E+00 -0.00000000000E+00 -0.45593999997E+02  0.45594000000E+02  0.51100000000E-03 0. -1.
    9900012    2    1    2    0    0  0.59994517654E+00  0.13829063197E+00  0.10068792386E+01  0.90007803273E+02  0.90000065476E+02 0.  0.
         12    1    1    2    0    0 -0.59994517654E+00 -0.13829063197E+00 -0.10068792386E+01  0.11801967272E+01  0.00000000000E+00 0. -1.
         11    1    3    3    0    0 -0.15568025486E+02 -0.23391788958E+02  0.15658815481E+02  0.32167339192E+02  0.51100000000E-03 0. -1.
        -11    1    3    3    0    0 -0.37218388790E+00  0.26974470752E+02  0.92950736024E+01  0.28533471340E+02  0.51100000000E-03 0.  1.
         12    1    3    3    0    0  0.16540154550E+02 -0.34443911618E+01 -0.23947009845E+02  0.29306992741E+02  0.00000000000E+00 0. -1.
</event>
<event>
 7    1  0.1999542E-015  0.9000771E+02  0.7816164E-02  0.1186339E+00
        -11   -1    0    0    0    0  0.00000000000E+00  0.00000000000E+00  0.45593999997E+02  0.45594000000E+02  0.51100000000E-03 0.  1.
         11   -1    0    0    0    0 -0.00000000000E+00 -0.00000000000E+00 -0.45593999997E+02  0.45594000000E+02  0.51100000000E-03 0. -1.
    9900012    2    1    2    0    0 -0.40600345187E+00  0.10969962971E+01  0.15758941439E+00  0.90007714398E+02  0.89999975428E+02 0.  0.
         12    1    1    2    0    0  0.40600345187E+00 -0.10969962971E+01 -0.15758941439E+00  0.11802856020E+01  0.00000000000E+00 0. -1.
         11    1    3    3    0    0  0.16329332505E+02 -0.20655049724E+02 -0.18266917506E+02  0.32046192513E+02  0.51100000000E-03 0. -1.
        -11    1    3    3    0    0  0.12109504641E+02 -0.82467523215E+00 -0.63910680546E+01  0.13717359185E+02  0.51100000000E-03 0.  1.
        -12    1    3    3    0    0 -0.28844840597E+02  0.22576721254E+02  0.24815574975E+02  0.44244162699E+02  0.00000000000E+00 0.  1.
</event>
<event>
 7    1  0.1999542E-015  0.9000767E+02  0.7816164E-02  0.1186339E+00
        -11   -1    0    0    0    0  0.00000000000E+00  0.00000000000E+00  0.45593999997E+02  0.45594000000E+02  0.51100000000E-03 0.  1.
         11   -1    0    0    0    0 -0.00000000000E+00 -0.00000000000E+00 -0.45593999997E+02  0.45594000000E+02  0.51100000000E-03 0. -1.
    9900012    2    1    2    0    0 -0.49506080497E+00 -0.50931883121E-01  0.10702793865E+01  0.90007670714E+02  0.89999931168E+02 0.  0.
         12    1    1    2    0    0  0.49506080497E+00  0.50931883121E-01 -0.10702793865E+01  0.11803292857E+01  0.00000000000E+00 0. -1.
         11    1    3    3    0    0  0.13687928050E+02  0.23994550860E+02 -0.30116315724E+02  0.40866738533E+02  0.51100000000E-03 0. -1.
        -11    1    3    3    0    0 -0.15048408093E+02 -0.20201618752E+01  0.80506132419E+01  0.17185692130E+02  0.51100000000E-03 0.  1.
        -12    1    3    3    0    0  0.86541923797E+00 -0.22025320868E+02  0.23135981868E+02  0.31955240052E+02  0.00000000000E+00 0.  1.
</event>
<event>
 7    1  0.1999542E-015  0.9000776E+02  0.7816164E-02  0.1186339E+00
        -11   -1    0    0    0    0  0.00000000000E+00  0.00000000000E+00  0.45593999997E+02  0.45594000000E+02  0.51100000000E-03 0.  1.
         11   -1    0    0    0    0 -0.00000000000E+00 -0.00000000000E+00 -0.45593999997E+02  0.45594000000E+02  0.51100000000E-03 0. -1.
    9900012    2    1    2    0    0  0.75810987251E+00  0.90454677000E+00 -0.64540725709E-02  0.90007755494E+02  0.90000017067E+02 0.  0.
         12    1    1    2    0    0 -0.75810987251E+00 -0.90454677000E+00  0.64540725709E-02  0.11802445056E+01  0.00000000000E+00 0. -1.
         11    1    3    3    0    0  0.82203768049E+01  0.42419695187E+01 -0.31957241868E+01  0.97868050738E+01  0.51100000000E-03 0. -1.
        -11    1    3    3    0    0  0.17517923207E+02  0.29408326527E+02  0.15003022496E+02  0.37374028240E+02  0.51100000000E-03 0.  1.
         12    1    3    3    0    0 -0.24980190140E+02 -0.32745749276E+02 -0.11813752381E+02  0.42846922181E+02  0.00000000000E+00 0. -1.
</event>
<event>
 7    1  0.1999542E-015  0.9000767E+02  0.7816164E-02  0.1186339E+00
        -11   -1    0    0    0    0  0.00000000000E+00  0.00000000000E+00  0.45593999997E+02  0.45594000000E+02  0.51100000000E-03 0.  1.
         11   -1    0    0    0    0 -0.00000000000E+00 -0.00000000000E+00 -0.45593999997E+02  0.45594000000E+02  0.51100000000E-03 0. -1.
    9900012    2    1    2    0    0 -0.97761986071E-01 -0.11552249882E+01  0.22151725983E+00  0.90007672895E+02  0.89999933377E+02 0.  0.
         12    1    1    2    0    0  0.97761986071E-01  0.11552249882E+01 -0.22151725983E+00  0.11803271054E+01  0.00000000000E+00 0. -1.
         11    1    3    3    0    0  0.31299011521E+02  0.30700333707E+02  0.41830123116E+00  0.43844196744E+02  0.51100000000E-03 0. -1.
        -11    1    3    3    0    0 -0.88908873349E+00 -0.57898576587E+01 -0.13854252443E+01  0.60193300169E+01  0.51100000000E-03 0.  1.
        -12    1    3    3    0    0 -0.30507684773E+02 -0.26065701037E+02  0.11886412730E+01  0.40144146134E+02  0.00000000000E+00 0.  1.
</event>
<event>
 7    1  0.1999542E-015  0.9000775E+02  0.7816164E-02  0.1186339E+00
        -11   -1    0    0    0    0  0.00000000000E+00  0.00000000000E+00  0.45593999997E+02  0.45594000000E+02  0.51100000000E-03 0.  1.
         11   -1    0    0    0    0 -0.00000000000E+00 -0.00000000000E+00 -0.45593999997E+02  0.45594000000E+02  0.51100000000E-03 0. -1.
    9900012    2    1    2    0    0  0.90194899516E+00 -0.66989105467E+00  0.36155557343E+00  0.90007750684E+02  0.90000012193E+02 0.  0.
         12    1    1    2    0    0 -0.90194899516E+00  0.66989105467E+00 -0.36155557343E+00  0.11802493159E+01  0.00000000000E+00 0. -1.
         11    1    3    3    0    0  0.10537997514E+02 -0.30788238135E+01 -0.59071958431E+01  0.12466896593E+02  0.51100000000E-03 0. -1.
        -11    1    3    3    0    0  0.17163657316E+02 -0.67519586171E+01  0.33505951467E+02  0.38246945781E+02  0.51100000000E-03 0.  1.
         12    1    3    3    0    0 -0.26799705835E+02  0.91608913760E+01 -0.27237200051E+02  0.39293908309E+02  0.00000000000E+00 0. -1.
</event>
<event>
 7    1  0.1999542E-015  0.9000777E+02  0.7816164E-02  0.1186339E+00
        -11   -1    0    0    0    0  0.00000000000E+00  0.00000000000E+00  0.45593999997E+02  0.45594000000E+02  0.51100000000E-03 0. -1.
         11   -1    0    0    0    0 -0.00000000000E+00 -0.00000000000E+00 -0.45593999997E+02  0.45594000000E+02  0.51100000000E-03 0.  1.
    9900012    2    1    2    0    0 -0.44908817473E-01 -0.11572643370E+01  0.22728670716E+00  0.90007772566E+02  0.90000034364E+02 0.  0.
         12    1    1    2    0    0  0.44908817473E-01  0.11572643370E+01 -0.22728670716E+00  0.11802274335E+01  0.00000000000E+00 0. -1.
         11    1    3    3    0    0 -0.26303495033E+01  0.43560593112E+01 -0.84632405079E+01  0.98752433584E+01  0.51100000000E-03 0. -1.
        -11    1    3    3    0    0 -0.20347057471E+02  0.26011062529E+02 -0.13036008092E+02  0.35503741055E+02  0.51100000000E-03 0.  1.
         12    1    3    3    0    0  0.22932498157E+02 -0.31524386177E+02  0.21726535308E+02  0.44628788153E+02  0.00000000000E+00 0. -1.
</event>
<event>
 7    1  0.4260448E-015  0.9000774E+02  0.7816164E-02  0.1186339E+00
        -11   -1    0    0    0    0  0.00000000000E+00  0.00000000000E+00  0.45593999997E+02  0.45594000000E+02  0.51100000000E-03 0. -1.
         11   -1    0    0    0    0 -0.00000000000E+00 -0.00000000000E+00 -0.45593999997E+02  0.45594000000E+02  0.51100000000E-03 0.  1.
    9900012    2    1    2    0    0  0.90160461830E+00 -0.77521496200E-01 -0.75770724932E+00  0.90007737001E+02  0.89999998330E+02 0.  0.
         12    1    1    2    0    0 -0.90160461830E+00  0.77521496200E-01  0.75770724932E+00  0.11802629986E+01  0.00000000000E+00 0. -1.
         11    1    3    3    0    0 -0.11632595866E+02  0.24222829205E+01  0.34546095347E+02  0.36532416360E+02  0.51100000000E-03 0. -1.
        -11    1    3    3    0    0  0.38189275415E+01 -0.55513458290E+01  0.72695735975E+01  0.99120304999E+01  0.51100000000E-03 0.  1.
        -12    1    3    3    0    0  0.87152729428E+01  0.30515414124E+01 -0.42573376193E+02  0.43563290142E+02  0.00000000000E+00 0.  1.
</event>
<event>
 7    1  0.2602082E-015  0.9000772E+02  0.7816164E-02  0.1186339E+00
        -11   -1    0    0    0    0  0.00000000000E+00  0.00000000000E+00  0.45593999997E+02  0.45594000000E+02  0.51100000000E-03 0. -1.
         11   -1    0    0    0    0 -0.00000000000E+00 -0.00000000000E+00 -0.45593999997E+02  0.45594000000E+02  0.51100000000E-03 0.  1.
    9900012    2    1    2    0    0 -0.60270121362E+00 -0.74972509996E+00  0.68389949758E+00  0.90007722490E+02  0.89999983627E+02 0.  0.
         12    1    1    2    0    0  0.60270121362E+00  0.74972509996E+00 -0.68389949758E+00  0.11802775102E+01  0.00000000000E+00 0. -1.
         11    1    3    3    0    0  0.35727151408E+02  0.10545354656E+02 -0.12009990389E+02  0.39139158422E+02  0.51100000000E-03 0. -1.
        -11    1    3    3    0    0  0.23412203254E+00 -0.69053116136E+01 -0.63722676814E+01  0.93991455607E+01  0.51100000000E-03 0.  1.
        -12    1    3    3    0    0 -0.36563974655E+02 -0.43897681424E+01  0.19066157568E+02  0.41469418507E+02  0.00000000000E+00 0.  1.
</event>
<event>
 7    1  0.1999542E-015  0.9000772E+02  0.7816164E-02  0.1186339E+00
        -11   -1    0    0    0    0  0.00000000000E+00  0.00000000000E+00  0.45593999997E+02  0.45594000000E+02  0.51100000000E-03 0.  1.
         11   -1    0    0    0    0 -0.00000000000E+00 -0.00000000000E+00 -0.45593999997E+02  0.45594000000E+02  0.51100000000E-03 0. -1.
    9900012    2    1    2    0    0 -0.44384619810E+00 -0.59931083364E+00  0.91480954537E+00  0.90007724851E+02  0.89999986019E+02 0.  0.
         12    1    1    2    0    0  0.44384619810E+00  0.59931083364E+00 -0.91480954537E+00  0.11802751489E+01  0.00000000000E+00 0. -1.
         11    1    3    3    0    0  0.13616778108E+02  0.12528156438E+02 -0.29897593587E+02  0.35160168548E+02  0.51100000000E-03 0. -1.
        -11    1    3    3    0    0  0.22677500384E+01  0.89899852156E+01 -0.43270851473E+01  0.10231626975E+02  0.51100000000E-03 0.  1.
        -12    1    3    3    0    0 -0.16328374345E+02 -0.22117452487E+02  0.35139488279E+02  0.44615929328E+02  0.00000000000E+00 0.  1.
</event>
<event>
 7    1  0.1999542E-015  0.9000773E+02  0.7816164E-02  0.1186339E+00
        -11   -1    0    0    0    0  0.00000000000E+00  0.00000000000E+00  0.45593999997E+02  0.45594000000E+02  0.51100000000E-03 0.  1.
         11   -1    0    0    0    0 -0.00000000000E+00 -0.00000000000E+00 -0.45593999997E+02  0.45594000000E+02  0.51100000000E-03 0. -1.
    9900012    2    1    2    0    0  0.60697706725E+00 -0.95316628896E+00  0.34072950746E+00  0.90007727264E+02  0.89999988464E+02 0.  0.
         12    1    1    2    0    0 -0.60697706725E+00  0.95316628896E+00 -0.34072950746E+00  0.11802727362E+01  0.00000000000E+00 0. -1.
         11    1    3    3    0    0  0.36973244247E+02 -0.41327209592E+01  0.46551129989E+01  0.37493602788E+02  0.51100000000E-03 0. -1.
        -11    1    3    3    0    0  0.56189131225E+01 -0.68969620481E+01 -0.27380764698E+01  0.93079177686E+01  0.51100000000E-03 0.  1.
        -12    1    3    3    0    0 -0.41985180303E+02  0.10076516718E+02 -0.15763070217E+01  0.43206206708E+02  0.00000000000E+00 0.  1.
</event>
<event>
 7    1  0.1999542E-015  0.9000770E+02  0.7816164E-02  0.1186339E+00
        -11   -1    0    0    0    0  0.00000000000E+00  0.00000000000E+00  0.45593999997E+02  0.45594000000E+02  0.51100000000E-03 0.  1.
         11   -1    0    0    0    0 -0.00000000000E+00 -0.00000000000E+00 -0.45593999997E+02  0.45594000000E+02  0.51100000000E-03 0. -1.
    9900012    2    1    2    0    0 -0.97873759978E+00  0.22180234793E-02  0.65967768532E+00  0.90007700522E+02  0.89999961369E+02 0.  0.
         12    1    1    2    0    0  0.97873759978E+00 -0.22180234793E-02 -0.65967768532E+00  0.11802994778E+01  0.00000000000E+00 0. -1.
         11    1    3    3    0    0  0.30172572286E+01 -0.26820518844E+01 -0.68503466764E+01  0.79513831088E+01  0.51100000000E-03 0. -1.
        -11    1    3    3    0    0  0.36281037177E+02 -0.12887498414E+02  0.46038643956E+01  0.38776240685E+02  0.51100000000E-03 0.  1.
         12    1    3    3    0    0 -0.40277032006E+02  0.15571768322E+02  0.29061599661E+01  0.43280076728E+02  0.00000000000E+00 0. -1.
</event>
<event>
 7    1  0.1999542E-015  0.9000779E+02  0.7816164E-02  0.1186339E+00
        -11   -1    0    0    0    0  0.00000000000E+00  0.00000000000E+00  0.45593999997E+02  0.45594000000E+02  0.51100000000E-03 0. -1.
         11   -1    0    0    0    0 -0.00000000000E+00 -0.00000000000E+00 -0.45593999997E+02  0.45594000000E+02  0.51100000000E-03 0.  1.
    9900012    2    1    2    0    0 -0.24701559318E+00 -0.78786474931E+00 -0.84329095081E+00  0.90007793580E+02  0.90000055655E+02 0.  0.
         12    1    1    2    0    0  0.24701559318E+00  0.78786474931E+00  0.84329095081E+00  0.11802064202E+01  0.00000000000E+00 0. -1.
         11    1    3    3    0    0  0.15940015772E+00  0.21703726044E+02  0.29959675933E+02  0.36995395860E+02  0.51100000000E-03 0. -1.
        -11    1    3    3    0    0 -0.40976359445E+01  0.77618851845E+01  0.11531877393E+01  0.88525320770E+01  0.51100000000E-03 0.  1.
        -12    1    3    3    0    0  0.36912201936E+01 -0.30253475977E+02 -0.31956154623E+02  0.44159865642E+02  0.00000000000E+00 0.  1.
</event>
<event>
 7    1  0.1999542E-015  0.9000778E+02  0.7816164E-02  0.1186339E+00
        -11   -1    0    0    0    0  0.00000000000E+00  0.00000000000E+00  0.45593999997E+02  0.45594000000E+02  0.51100000000E-03 0.  1.
         11   -1    0    0    0    0 -0.00000000000E+00 -0.00000000000E+00 -0.45593999997E+02  0.45594000000E+02  0.51100000000E-03 0. -1.
    9900012    2    1    2    0    0  0.56675823692E+00  0.91531424040E+00  0.48364229578E+00  0.90007777594E+02  0.90000039458E+02 0.  0.
         12    1    1    2    0    0 -0.56675823692E+00 -0.91531424040E+00 -0.48364229578E+00  0.11802224062E+01  0.00000000000E+00 0. -1.
         11    1    3    3    0    0 -0.41583352893E+02  0.13611202871E+02  0.37135813143E+01  0.43911624518E+02  0.51100000000E-03 0. -1.
        -11    1    3    3    0    0  0.88733856995E+01 -0.13226466800E+01  0.45798032152E+01  0.10072783417E+02  0.51100000000E-03 0.  1.
        -12    1    3    3    0    0  0.33276725430E+02 -0.11373241951E+02 -0.78097422337E+01  0.36023369659E+02  0.00000000000E+00 0.  1.
</event>
<event>
 7    1  0.1999542E-015  0.9000772E+02  0.7816164E-02  0.1186339E+00
        -11   -1    0    0    0    0  0.00000000000E+00  0.00000000000E+00  0.45593999997E+02  0.45594000000E+02  0.51100000000E-03 0.  1.
         11   -1    0    0    0    0 -0.00000000000E+00 -0.00000000000E+00 -0.45593999997E+02  0.45594000000E+02  0.51100000000E-03 0. -1.
    9900012    2    1    2    0    0  0.40494021853E+00 -0.10774956508E+01  0.26094357326E+00  0.90007718251E+02  0.89999979332E+02 0.  0.
         12    1    1    2    0    0 -0.40494021853E+00  0.10774956508E+01 -0.26094357326E+00  0.11802817488E+01  0.00000000000E+00 0. -1.
         11    1    3    3    0    0 -0.64813930663E+01 -0.30161250090E+02 -0.19719849797E+02  0.36613958259E+02  0.51100000000E-03 0. -1.
        -11    1    3    3    0    0  0.17378667245E+01 -0.32075863412E+01 -0.89930611093E+01  0.97048410222E+01  0.51100000000E-03 0.  1.
        -12    1    3    3    0    0  0.51484665603E+01  0.32291340781E+02  0.28973854480E+02  0.43688918970E+02  0.00000000000E+00 0.  1.
</event>
<event>
 7    1  0.1999542E-015  0.9000769E+02  0.7816164E-02  0.1186339E+00
        -11   -1    0    0    0    0  0.00000000000E+00  0.00000000000E+00  0.45593999997E+02  0.45594000000E+02  0.51100000000E-03 0.  1.
         11   -1    0    0    0    0 -0.00000000000E+00 -0.00000000000E+00 -0.45593999997E+02  0.45594000000E+02  0.51100000000E-03 0. -1.
    9900012    2    1    2    0    0 -0.89445884859E+00 -0.72764917791E+00  0.25217501328E+00  0.90007694025E+02  0.89999954786E+02 0.  0.
         12    1    1    2    0    0  0.89445884859E+00  0.72764917791E+00 -0.25217501328E+00  0.11803059753E+01  0.00000000000E+00 0. -1.
         11    1    3    3    0    0 -0.40135192350E+01 -0.28385824110E+01  0.82275327058E+01  0.95842673919E+01  0.51100000000E-03 0. -1.
        -11    1    3    3    0    0 -0.13946942409E+02  0.50167044868E+01  0.32872012320E+02  0.36059031056E+02  0.51100000000E-03 0.  1.
         12    1    3    3    0    0  0.17066002795E+02 -0.29057712537E+01 -0.40847370012E+02  0.44364395577E+02  0.00000000000E+00 0. -1.
</event>
<event>
 7    1  0.1999542E-015  0.9000793E+02  0.7816164E-02  0.1186339E+00
        -11   -1    0    0    0    0  0.00000000000E+00  0.00000000000E+00  0.45593999997E+02  0.45594000000E+02  0.51100000000E-03 0. -1.
         11   -1    0    0    0    0 -0.00000000000E+00 -0.00000000000E+00 -0.45593999997E+02  0.45594000000E+02  0.51100000000E-03 0.  1.
    9900012    2    1    2    0    0 -0.59553883762E+00  0.77686613667E+00 -0.65907562528E+00  0.90007928739E+02  0.90000192598E+02 0.  0.
         12    1    1    2    0    0  0.59553883762E+00 -0.77686613667E+00  0.65907562528E+00  0.11800712611E+01  0.00000000000E+00 0. -1.
         11    1    3    3    0    0 -0.72538901014E+01  0.83882597904E+01 -0.16912495881E+01  0.11217938730E+02  0.51100000000E-03 0. -1.
        -11    1    3    3    0    0  0.16553866670E+02  0.24745659769E+02  0.23707616830E+02  0.38058235313E+02  0.51100000000E-03 0.  1.
         12    1    3    3    0    0 -0.98955154063E+01 -0.32357053423E+02 -0.22675442867E+02  0.40731754696E+02  0.00000000000E+00 0. -1.
</event>
<event>
 7    1  0.1999542E-015  0.9000771E+02  0.7816164E-02  0.1186339E+00
        -11   -1    0    0    0    0  0.00000000000E+00  0.00000000000E+00  0.45593999997E+02  0.45594000000E+02  0.51100000000E-03 0. -1.
         11   -1    0    0    0    0 -0.00000000000E+00 -0.00000000000E+00 -0.45593999997E+02  0.45594000000E+02  0.51100000000E-03 0.  1.
    9900012    2    1    2    0    0 -0.53516785268E+00 -0.19950342062E+00 -0.10329026596E+01  0.90007705905E+02  0.89999966823E+02 0.  0.
         12    1    1    2    0    0  0.53516785268E+00  0.19950342062E+00  0.10329026596E+01  0.11802940945E+01  0.00000000000E+00 0. -1.
         11    1    3    3    0    0 -0.30950727108E+02 -0.17019007389E+02  0.11802482220E+02  0.37241008416E+02  0.51100000000E-03 0. -1.
        -11    1    3    3    0    0 -0.30336389466E+01 -0.61172907531E+01  0.49972911659E+01  0.84615087706E+01  0.51100000000E-03 0.  1.
        -12    1    3    3    0    0  0.33449198202E+02  0.22936794721E+02 -0.17832676046E+02  0.44305188719E+02  0.00000000000E+00 0.  1.
</event>
<event>
 7    1  0.1999542E-015  0.9000769E+02  0.7816164E-02  0.1186339E+00
        -11   -1    0    0    0    0  0.00000000000E+00  0.00000000000E+00  0.45593999997E+02  0.45594000000E+02  0.51100000000E-03 0. -1.
         11   -1    0    0    0    0 -0.00000000000E+00 -0.00000000000E+00 -0.45593999997E+02  0.45594000000E+02  0.51100000000E-03 0.  1.
    9900012    2    1    2    0    0  0.11355195523E+01 -0.25622184618E-01  0.32103859523E+00  0.90007692019E+02  0.89999952754E+02 0.  0.
         12    1    1    2    0    0 -0.11355195523E+01  0.25622184618E-01 -0.32103859523E+00  0.11803079809E+01  0.00000000000E+00 0. -1.
         11    1    3    3    0    0  0.20947022483E+01 -0.86464272087E+01 -0.64272816015E+01  0.10975355576E+02  0.51100000000E-03 0. -1.
        -11    1    3    3    0    0 -0.19836666276E+02 -0.24409273573E+02 -0.15389272555E+02  0.35016220175E+02  0.51100000000E-03 0.  1.
         12    1    3    3    0    0  0.18877483580E+02  0.33030078597E+02  0.22137592752E+02  0.44016116268E+02  0.00000000000E+00 0. -1.
</event>
<event>
 7    1  0.1999542E-015  0.9000771E+02  0.7816164E-02  0.1186339E+00
        -11   -1    0    0    0    0  0.00000000000E+00  0.00000000000E+00  0.45593999997E+02  0.45594000000E+02  0.51100000000E-03 0.  1.
         11   -1    0    0    0    0 -0.00000000000E+00 -0.00000000000E+00 -0.45593999997E+02  0.45594000000E+02  0.51100000000E-03 0. -1.
    9900012    2    1    2    0    0 -0.45157003447E+00  0.10887025135E+01  0.62452628514E-01  0.90007708091E+02  0.89999969038E+02 0.  0.
         12    1    1    2    0    0  0.45157003447E+00 -0.10887025135E+01 -0.62452628514E-01  0.11802919087E+01  0.00000000000E+00 0. -1.
         11    1    3    3    0    0 -0.33991570951E+02 -0.16149265432E+02 -0.18838218715E+02  0.42084488287E+02  0.51100000000E-03 0. -1.
        -11    1    3    3    0    0  0.86011272249E+01 -0.42026342738E+01 -0.76538068992E+00  0.96035062472E+01  0.51100000000E-03 0.  1.
        -12    1    3    3    0    0  0.24938873692E+02  0.21440602220E+02  0.19666052033E+02  0.38319713558E+02  0.00000000000E+00 0.  1.
</event>
<event>
 7    1  0.1999542E-015  0.9000782E+02  0.7816164E-02  0.1186339E+00
        -11   -1    0    0    0    0  0.00000000000E+00  0.00000000000E+00  0.45593999997E+02  0.45594000000E+02  0.51100000000E-03 0. -1.
         11   -1    0    0    0    0 -0.00000000000E+00 -0.00000000000E+00 -0.45593999997E+02  0.45594000000E+02  0.51100000000E-03 0.  1.
    9900012    2    1    2    0    0  0.61554133185E+00  0.65378766444E+00 -0.76583465160E+00  0.90007816898E+02  0.90000079281E+02 0.  0.
         12    1    1    2    0    0 -0.61554133185E+00 -0.65378766444E+00  0.76583465160E+00  0.11801831023E+01  0.00000000000E+00 0. -1.
         11    1    3    3    0    0 -0.15417295343E+01  0.13103585930E+01 -0.81663613222E+01  0.84132887212E+01  0.51100000000E-03 0. -1.
        -11    1    3    3    0    0 -0.10727341734E+02 -0.32560621411E+02 -0.18100428926E+02  0.38767195603E+02  0.51100000000E-03 0.  1.
         12    1    3    3    0    0  0.12884612600E+02  0.31904050483E+02  0.25500955596E+02  0.42827332574E+02  0.00000000000E+00 0. -1.
</event>
<event>
 7    1  0.1999542E-015  0.9000775E+02  0.7816164E-02  0.1186339E+00
        -11   -1    0    0    0    0  0.00000000000E+00  0.00000000000E+00  0.45593999997E+02  0.45594000000E+02  0.51100000000E-03 0.  1.
         11   -1    0    0    0    0 -0.00000000000E+00 -0.00000000000E+00 -0.45593999997E+02  0.45594000000E+02  0.51100000000E-03 0. -1.
    9900012    2    1    2    0    0  0.13929956793E+00 -0.51530171763E+00  0.10526386231E+01  0.90007750746E+02  0.90000012256E+02 0.  0.
         12    1    1    2    0    0 -0.13929956793E+00  0.51530171763E+00 -0.10526386231E+01  0.11802492536E+01  0.00000000000E+00 0. -1.
         11    1    3    3    0    0 -0.70644077095E+01  0.66260850112E+01  0.16920973258E+01  0.98322963992E+01  0.51100000000E-03 0. -1.
        -11    1    3    3    0    0  0.14883994295E+02  0.22482912509E+02  0.27563280738E+02  0.38558385422E+02  0.51100000000E-03 0.  1.
         12    1    3    3    0    0 -0.76802870172E+01 -0.29624299238E+02 -0.28202739440E+02  0.41617068925E+02  0.00000000000E+00 0. -1.
</event>
<event>
 7    1  0.1999542E-015  0.9000690E+02  0.7816164E-02  0.1186341E+00
        -11   -1    0    0    0    0  0.00000000000E+00  0.00000000000E+00  0.45593999997E+02  0.45594000000E+02  0.51100000000E-03 0.  1.
         11   -1    0    0    0    0 -0.00000000000E+00 -0.00000000000E+00 -0.45593999997E+02  0.45594000000E+02  0.51100000000E-03 0. -1.
    9900012    2    1    2    0    0  0.12880789226E+00  0.10740245627E+01  0.47421271599E+00  0.90006899693E+02  0.89999149965E+02 0.  0.
         12    1    1    2    0    0 -0.12880789226E+00 -0.10740245627E+01 -0.47421271599E+00  0.11811003067E+01  0.00000000000E+00 0. -1.
         11    1    3    3    0    0 -0.27937103769E+02 -0.23705753268E+02 -0.18206954944E+02  0.40913783907E+02  0.51100000000E-03 0. -1.
        -11    1    3    3    0    0  0.20157986588E+01  0.77285686794E+01 -0.54776548595E+01  0.96849843100E+01  0.51100000000E-03 0.  1.
        -12    1    3    3    0    0  0.26050113002E+02  0.17051209151E+02  0.24158822520E+02  0.39408131477E+02  0.00000000000E+00 0.  1.
</event>
<event>
 7    1  0.1999542E-015  0.9000773E+02  0.7816164E-02  0.1186339E+00
        -11   -1    0    0    0    0  0.00000000000E+00  0.00000000000E+00  0.45593999997E+02  0.45594000000E+02  0.51100000000E-03 0.  1.
         11   -1    0    0    0    0 -0.00000000000E+00 -0.00000000000E+00 -0.45593999997E+02  0.45594000000E+02  0.51100000000E-03 0. -1.
    9900012    2    1    2    0    0  0.19794522396E+00 -0.11453938768E+01  0.20475220580E+00  0.90007731848E+02  0.89999993108E+02 0.  0.
         12    1    1    2    0    0 -0.19794522396E+00  0.11453938768E+01 -0.20475220580E+00  0.11802681519E+01  0.00000000000E+00 0. -1.
         11    1    3    3    0    0 -0.26452795755E+01  0.22738719055E+02 -0.29083595240E+02  0.37012192054E+02  0.51100000000E-03 0. -1.
        -11    1    3    3    0    0 -0.18633494691E+01 -0.84017229470E+01 -0.83716920925E+01  0.12006092140E+02  0.51100000000E-03 0.  1.
        -12    1    3    3    0    0  0.47065742686E+01 -0.15482389985E+02  0.37660039538E+02  0.40989447654E+02  0.00000000000E+00 0.  1.
</event>
<event>
 7    1  0.1999542E-015  0.9000771E+02  0.7816164E-02  0.1186339E+00
        -11   -1    0    0    0    0  0.00000000000E+00  0.00000000000E+00  0.45593999997E+02  0.45594000000E+02  0.51100000000E-03 0.  1.
         11   -1    0    0    0    0 -0.00000000000E+00 -0.00000000000E+00 -0.45593999997E+02  0.45594000000E+02  0.51100000000E-03 0. -1.
    9900012    2    1    2    0    0 -0.91113348507E+00 -0.69269248472E+00  0.28827336720E+00  0.90007708239E+02  0.89999969188E+02 0.  0.
         12    1    1    2    0    0  0.91113348507E+00  0.69269248472E+00 -0.28827336720E+00  0.11802917606E+01  0.00000000000E+00 0. -1.
         11    1    3    3    0    0  0.63376385494E+01 -0.63731530081E+01  0.28671431360E+01  0.94341534687E+01  0.51100000000E-03 0. -1.
        -11    1    3    3    0    0 -0.70572558136E+01 -0.30548040961E+02 -0.23093387562E+02  0.38939597013E+02  0.51100000000E-03 0.  1.
         12    1    3    3    0    0 -0.19151622094E+00  0.36228501485E+02  0.20514517793E+02  0.41633957758E+02  0.00000000000E+00 0. -1.
</event>
<event>
 7    1  0.1999542E-015  0.9000780E+02  0.7816164E-02  0.1186339E+00
        -11   -1    0    0    0    0  0.00000000000E+00  0.00000000000E+00  0.45593999997E+02  0.45594000000E+02  0.51100000000E-03 0. -1.
         11   -1    0    0    0    0 -0.00000000000E+00 -0.00000000000E+00 -0.45593999997E+02  0.45594000000E+02  0.51100000000E-03 0.  1.
    9900012    2    1    2    0    0  0.74516482314E+00 -0.87962384764E+00 -0.25269416997E+00  0.90007803800E+02  0.90000066010E+02 0.  0.
         12    1    1    2    0    0 -0.74516482314E+00  0.87962384764E+00  0.25269416997E+00  0.11801962000E+01  0.00000000000E+00 0. -1.
         11    1    3    3    0    0 -0.12555703606E+02 -0.37898019035E+02  0.81933047908E+01  0.40755806746E+02  0.51100000000E-03 0. -1.
        -11    1    3    3    0    0 -0.46690021515E+00 -0.16725340443E+01  0.55889256775E+01  0.58524743853E+01  0.51100000000E-03 0.  1.
        -12    1    3    3    0    0  0.13767768645E+02  0.38690929232E+02 -0.14034924638E+02  0.43399522669E+02  0.00000000000E+00 0.  1.
</event>
<event>
 7    1  0.1999542E-015  0.9000777E+02  0.7816164E-02  0.1186339E+00
        -11   -1    0    0    0    0  0.00000000000E+00  0.00000000000E+00  0.45593999997E+02  0.45594000000E+02  0.51100000000E-03 0.  1.
         11   -1    0    0    0    0 -0.00000000000E+00 -0.00000000000E+00 -0.45593999997E+02  0.45594000000E+02  0.51100000000E-03 0. -1.
    9900012    2    1    2    0    0 -0.65144468776E+00 -0.67159881032E-01  0.98185983890E+00  0.90007771474E+02  0.90000033257E+02 0.  0.
         12    1    1    2    0    0  0.65144468776E+00  0.67159881032E-01 -0.98185983890E+00  0.11802285262E+01  0.00000000000E+00 0. -1.
         11    1    3    3    0    0  0.91339229971E+01 -0.41054679357E+01 -0.18027844902E+01  0.10175138744E+02  0.51100000000E-03 0. -1.
        -11    1    3    3    0    0 -0.19902183121E+02  0.27278389423E+02 -0.25156628728E+02  0.42107759282E+02  0.51100000000E-03 0.  1.
         12    1    3    3    0    0  0.10116815436E+02 -0.23240081368E+02  0.27941273057E+02  0.37724873448E+02  0.00000000000E+00 0. -1.
</event>
<event>
 7    1  0.1999542E-015  0.9000776E+02  0.7816164E-02  0.1186339E+00
        -11   -1    0    0    0    0  0.00000000000E+00  0.00000000000E+00  0.45593999997E+02  0.45594000000E+02  0.51100000000E-03 0.  1.
         11   -1    0    0    0    0 -0.00000000000E+00 -0.00000000000E+00 -0.45593999997E+02  0.45594000000E+02  0.51100000000E-03 0. -1.
    9900012    2    1    2    0    0  0.10605647577E+00  0.97982541415E+00  0.64934666142E+00  0.90007764047E+02  0.90000025732E+02 0.  0.
         12    1    1    2    0    0 -0.10605647577E+00 -0.97982541415E+00 -0.64934666142E+00  0.11802359531E+01  0.00000000000E+00 0. -1.
         11    1    3    3    0    0 -0.89036185739E+00  0.43421746145E+01  0.91098782192E+01  0.10130997288E+02  0.51100000000E-03 0. -1.
        -11    1    3    3    0    0 -0.25685803852E+02 -0.38118325345E+01  0.25695778823E+02  0.36531679900E+02  0.51100000000E-03 0.  1.
         12    1    3    3    0    0  0.26682222185E+02  0.44948333419E+00 -0.34156310380E+02  0.43345086859E+02  0.00000000000E+00 0. -1.
</event>
<event>
 7    1  0.1999542E-015  0.9000766E+02  0.7816164E-02  0.1186339E+00
        -11   -1    0    0    0    0  0.00000000000E+00  0.00000000000E+00  0.45593999997E+02  0.45594000000E+02  0.51100000000E-03 0.  1.
         11   -1    0    0    0    0 -0.00000000000E+00 -0.00000000000E+00 -0.45593999997E+02  0.45594000000E+02  0.51100000000E-03 0. -1.
    9900012    2    1    2    0    0  0.80800288139E+00 -0.57762340072E+00  0.63771248480E+00  0.90007663327E+02  0.89999923682E+02 0.  0.
         12    1    1    2    0    0 -0.80800288139E+00  0.57762340072E+00 -0.63771248480E+00  0.11803366734E+01  0.00000000000E+00 0. -1.
         11    1    3    3    0    0  0.92999316051E+01  0.31446419878E+02 -0.17691197930E+02  0.37260495642E+02  0.51100000000E-03 0. -1.
        -11    1    3    3    0    0 -0.12331093290E+01  0.83395039602E+01  0.25798608086E+01  0.88160970374E+01  0.51100000000E-03 0.  1.
        -12    1    3    3    0    0 -0.72588193948E+01 -0.40363547239E+02  0.15749049606E+02  0.43931070647E+02  0.00000000000E+00 0.  1.
</event>
<event>
 7    1  0.1999542E-015  0.9000776E+02  0.7816164E-02  0.1186339E+00
        -11   -1    0    0    0    0  0.00000000000E+00  0.00000000000E+00  0.45593999997E+02  0.45594000000E+02  0.51100000000E-03 0.  1.
         11   -1    0    0    0    0 -0.00000000000E+00 -0.00000000000E+00 -0.45593999997E+02  0.45594000000E+02  0.51100000000E-03 0. -1.
    9900012    2    1    2    0    0  0.28998891674E+00 -0.92964396473E+00  0.66681683252E+00  0.90007755889E+02  0.90000017467E+02 0.  0.
         12    1    1    2    0    0 -0.28998891674E+00  0.92964396473E+00 -0.66681683252E+00  0.11802441108E+01  0.00000000000E+00 0. -1.
         11    1    3    3    0    0  0.30052615589E+02 -0.98415785596E+00 -0.24473715081E+01  0.30168160335E+02  0.51100000000E-03 0. -1.
        -11    1    3    3    0    0 -0.25832322610E+01 -0.96448986519E+01  0.22810732514E+02  0.24900334877E+02  0.51100000000E-03 0.  1.
        -12    1    3    3    0    0 -0.27179394412E+02  0.96994125431E+01 -0.19696544173E+02  0.34939260677E+02  0.00000000000E+00 0.  1.
</event>
<event>
 7    1  0.1999542E-015  0.9000740E+02  0.7816164E-02  0.1186340E+00
        -11   -1    0    0    0    0  0.00000000000E+00  0.00000000000E+00  0.45593999997E+02  0.45594000000E+02  0.51100000000E-03 0. -1.
         11   -1    0    0    0    0 -0.00000000000E+00 -0.00000000000E+00 -0.45593999997E+02  0.45594000000E+02  0.51100000000E-03 0.  1.
    9900012    2    1    2    0    0  0.96432307007E+00  0.59391964605E+00  0.33341765884E+00  0.90007395551E+02  0.89999652372E+02 0.  0.
         12    1    1    2    0    0 -0.96432307007E+00 -0.59391964605E+00 -0.33341765884E+00  0.11806044489E+01  0.00000000000E+00 0. -1.
         11    1    3    3    0    0  0.44954927245E+01 -0.40663078182E+01 -0.74540316249E+01  0.96076480907E+01  0.51100000000E-03 0. -1.
        -11    1    3    3    0    0  0.30965491014E+01 -0.34324686053E+02 -0.11593017510E+02  0.36361665861E+02  0.51100000000E-03 0.  1.
         12    1    3    3    0    0 -0.66277187559E+01  0.38984913517E+02  0.19380466794E+02  0.44038081599E+02  0.00000000000E+00 0. -1.
</event>
<event>
 7    1  0.1999542E-015  0.9000780E+02  0.7816164E-02  0.1186339E+00
        -11   -1    0    0    0    0  0.00000000000E+00  0.00000000000E+00  0.45593999997E+02  0.45594000000E+02  0.51100000000E-03 0.  1.
         11   -1    0    0    0    0 -0.00000000000E+00 -0.00000000000E+00 -0.45593999997E+02  0.45594000000E+02  0.51100000000E-03 0. -1.
    9900012    2    1    2    0    0  0.11254776642E+01 -0.25862123652E+00  0.24349825555E+00  0.90007798188E+02  0.90000060324E+02 0.  0.
         12    1    1    2    0    0 -0.11254776642E+01  0.25862123652E+00 -0.24349825555E+00  0.11802018120E+01  0.00000000000E+00 0. -1.
         11    1    3    3    0    0 -0.29489004736E+02  0.26063870547E+02  0.25334641432E+01  0.39437864914E+02  0.51100000000E-03 0. -1.
        -11    1    3    3    0    0 -0.57656469234E+01 -0.70734694211E+01  0.14563663061E+01  0.92410852812E+01  0.51100000000E-03 0.  1.
        -12    1    3    3    0    0  0.36380129323E+02 -0.19249022362E+02 -0.37463321938E+01  0.41328847992E+02  0.00000000000E+00 0.  1.
</event>
<event>
 7    1  0.1999542E-015  0.9000768E+02  0.7816164E-02  0.1186339E+00
        -11   -1    0    0    0    0  0.00000000000E+00  0.00000000000E+00  0.45593999997E+02  0.45594000000E+02  0.51100000000E-03 0. -1.
         11   -1    0    0    0    0 -0.00000000000E+00 -0.00000000000E+00 -0.45593999997E+02  0.45594000000E+02  0.51100000000E-03 0.  1.
    9900012    2    1    2    0    0 -0.24691683396E+00 -0.11541088090E+01 -0.14512323509E-01  0.90007684079E+02  0.89999944709E+02 0.  0.
         12    1    1    2    0    0  0.24691683396E+00  0.11541088090E+01  0.14512323509E-01  0.11803159210E+01  0.00000000000E+00 0. -1.
         11    1    3    3    0    0 -0.29750035315E+02 -0.18456375665E+02  0.14661267872E+02  0.37955963692E+02  0.51100000000E-03 0. -1.
        -11    1    3    3    0    0 -0.32082742302E+01 -0.70770355261E+01 -0.71644132673E+01  0.10569118842E+02  0.51100000000E-03 0.  1.
        -12    1    3    3    0    0  0.32711392712E+02  0.24379302382E+02 -0.75113669278E+01  0.41482601544E+02  0.00000000000E+00 0.  1.
</event>
<event>
 7    1  0.1999542E-015  0.9000745E+02  0.7816164E-02  0.1186340E+00
        -11   -1    0    0    0    0  0.00000000000E+00  0.00000000000E+00  0.45593999997E+02  0.45594000000E+02  0.51100000000E-03 0.  1.
         11   -1    0    0    0    0 -0.00000000000E+00 -0.00000000000E+00 -0.45593999997E+02  0.45594000000E+02  0.51100000000E-03 0. -1.
    9900012    2    1    2    0    0 -0.24630377740E-01  0.11049936813E+01  0.41482054939E+00  0.90007451916E+02  0.89999709481E+02 0.  0.
         12    1    1    2    0    0  0.24630377740E-01 -0.11049936813E+01 -0.41482054939E+00  0.11805480843E+01  0.00000000000E+00 0. -1.
         11    1    3    3    0    0 -0.33258328424E+01 -0.10616231908E+02  0.19185525497E+02  0.22177689980E+02  0.51100000000E-03 0. -1.
        -11    1    3    3    0    0  0.25212102483E+01 -0.20670205439E+02  0.11242169606E+02  0.23664324873E+02  0.51100000000E-03 0.  1.
         12    1    3    3    0    0  0.77999221638E+00  0.32391431029E+02 -0.30012874553E+02  0.44165437062E+02  0.00000000000E+00 0. -1.
</event>
<event>
 7    1  0.1999542E-015  0.9000769E+02  0.7816164E-02  0.1186339E+00
        -11   -1    0    0    0    0  0.00000000000E+00  0.00000000000E+00  0.45593999997E+02  0.45594000000E+02  0.51100000000E-03 0. -1.
         11   -1    0    0    0    0 -0.00000000000E+00 -0.00000000000E+00 -0.45593999997E+02  0.45594000000E+02  0.51100000000E-03 0.  1.
    9900012    2    1    2    0    0 -0.96109469027E+00 -0.16734876958E+00 -0.66440531061E+00  0.90007685198E+02  0.89999945843E+02 0.  0.
         12    1    1    2    0    0  0.96109469027E+00  0.16734876958E+00  0.66440531061E+00  0.11803148017E+01  0.00000000000E+00 0. -1.
         11    1    3    3    0    0 -0.73328668375E+01 -0.48335897387E+00 -0.56534511854E+01  0.92717896073E+01  0.51100000000E-03 0. -1.
        -11    1    3    3    0    0 -0.36098088898E+02  0.83682699814E+01 -0.11642999066E+01  0.37073650469E+02  0.51100000000E-03 0.  1.
         12    1    3    3    0    0  0.42469861046E+02 -0.80522597771E+01  0.61533457815E+01  0.43662245122E+02  0.00000000000E+00 0. -1.
</event>
<event>
 7    1  0.1999542E-015  0.9000773E+02  0.7816164E-02  0.1186339E+00
        -11   -1    0    0    0    0  0.00000000000E+00  0.00000000000E+00  0.45593999997E+02  0.45594000000E+02  0.51100000000E-03 0. -1.
         11   -1    0    0    0    0 -0.00000000000E+00 -0.00000000000E+00 -0.45593999997E+02  0.45594000000E+02  0.51100000000E-03 0.  1.
    9900012    2    1    2    0    0  0.42747333062E+00 -0.34665754665E+00 -0.10440922385E+01  0.90007731596E+02  0.89999992853E+02 0.  0.
         12    1    1    2    0    0 -0.42747333062E+00  0.34665754665E+00  0.10440922385E+01  0.11802684040E+01  0.00000000000E+00 0. -1.
         11    1    3    3    0    0  0.20498285891E+02 -0.22746192668E+02  0.28404897588E+02  0.41766101237E+02  0.51100000000E-03 0. -1.
        -11    1    3    3    0    0 -0.79555758632E+01 -0.16138812818E+01  0.31703559047E+00  0.81238114166E+01  0.51100000000E-03 0.  1.
        -12    1    3    3    0    0 -0.12115236697E+02  0.24013416403E+02 -0.29766025417E+02  0.40117818942E+02  0.00000000000E+00 0.  1.
</event>
<event>
 7    1  0.1999542E-015  0.9000746E+02  0.7816164E-02  0.1186340E+00
        -11   -1    0    0    0    0  0.00000000000E+00  0.00000000000E+00  0.45593999997E+02  0.45594000000E+02  0.51100000000E-03 0.  1.
         11   -1    0    0    0    0 -0.00000000000E+00 -0.00000000000E+00 -0.45593999997E+02  0.45594000000E+02  0.51100000000E-03 0. -1.
    9900012    2    1    2    0    0 -0.26698273582E+00 -0.96141407476E+00  0.63092504739E+00  0.90007464859E+02  0.89999722594E+02 0.  0.
         12    1    1    2    0    0  0.26698273582E+00  0.96141407476E+00 -0.63092504739E+00  0.11805351413E+01  0.00000000000E+00 0. -1.
         11    1    3    3    0    0 -0.32473157109E+02  0.16661508380E+02  0.79412209646E+01  0.37352038563E+02  0.51100000000E-03 0. -1.
        -11    1    3    3    0    0 -0.83841883893E+01 -0.18184998670E+01 -0.15392102081E+01  0.87161186912E+01  0.51100000000E-03 0.  1.
        -12    1    3    3    0    0  0.40590362762E+02 -0.15804422588E+02 -0.57710857091E+01  0.43939307605E+02  0.00000000000E+00 0.  1.
</event>
<event>
 7    1  0.1999542E-015  0.9000779E+02  0.7816164E-02  0.1186339E+00
        -11   -1    0    0    0    0  0.00000000000E+00  0.00000000000E+00  0.45593999997E+02  0.45594000000E+02  0.51100000000E-03 0.  1.
         11   -1    0    0    0    0 -0.00000000000E+00 -0.00000000000E+00 -0.45593999997E+02  0.45594000000E+02  0.51100000000E-03 0. -1.
    9900012    2    1    2    0    0 -0.72934263995E+00  0.85864299603E+00 -0.35167818179E+00  0.90007794075E+02  0.90000056157E+02 0.  0.
         12    1    1    2    0    0  0.72934263995E+00 -0.85864299603E+00  0.35167818179E+00  0.11802059247E+01  0.00000000000E+00 0. -1.
         11    1    3    3    0    0 -0.73784691159E+01  0.31240317863E+01  0.82839080168E+01  0.11524951774E+02  0.51100000000E-03 0. -1.
        -11    1    3    3    0    0 -0.25731071859E+02 -0.10044784267E+02  0.20369627312E+02  0.34320656565E+02  0.51100000000E-03 0.  1.
         12    1    3    3    0    0  0.32380198335E+02  0.77793954765E+01 -0.29005213511E+02  0.44162185736E+02  0.00000000000E+00 0. -1.
</event>
<event>
 7    1  0.1999542E-015  0.9000773E+02  0.7816164E-02  0.1186339E+00
        -11   -1    0    0    0    0  0.00000000000E+00  0.00000000000E+00  0.45593999997E+02  0.45594000000E+02  0.51100000000E-03 0.  1.
         11   -1    0    0    0    0 -0.00000000000E+00 -0.00000000000E+00 -0.45593999997E+02  0.45594000000E+02  0.51100000000E-03 0. -1.
    9900012    2    1    2    0    0 -0.10006188717E+01 -0.24414420621E+00  0.57636217660E+00  0.90007729743E+02  0.89999990976E+02 0.  0.
         12    1    1    2    0    0  0.10006188717E+01  0.24414420621E+00 -0.57636217660E+00  0.11802702565E+01  0.00000000000E+00 0. -1.
         11    1    3    3    0    0 -0.33752508946E+02 -0.27863951906E+02 -0.54253099052E+01  0.44102898587E+02  0.51100000000E-03 0. -1.
        -11    1    3    3    0    0  0.10365034294E+02  0.61950314311E+00  0.44235771289E+00  0.10392949565E+02  0.51100000000E-03 0.  1.
        -12    1    3    3    0    0  0.22386855781E+02  0.27000304557E+02  0.55593143689E+01  0.35511881591E+02  0.00000000000E+00 0.  1.
</event>
<event>
 7    1  0.1999542E-015  0.9000735E+02  0.7816164E-02  0.1186340E+00
        -11   -1    0    0    0    0  0.00000000000E+00  0.00000000000E+00  0.45593999997E+02  0.45594000000E+02  0.51100000000E-03 0.  1.
         11   -1    0    0    0    0 -0.00000000000E+00 -0.00000000000E+00 -0.45593999997E+02  0.45594000000E+02  0.51100000000E-03 0. -1.
    9900012    2    1    2    0    0 -0.34954827340E+00 -0.25902910862E+00  0.10975721391E+01  0.90007345658E+02  0.89999601820E+02 0.  0.
         12    1    1    2    0    0  0.34954827340E+00  0.25902910862E+00 -0.10975721391E+01  0.11806543420E+01  0.00000000000E+00 0. -1.
         11    1    3    3    0    0  0.11102602748E+02  0.11433451653E+01 -0.55984798212E-01  0.11161458709E+02  0.51100000000E-03 0. -1.
        -11    1    3    3    0    0  0.98681879907E+01  0.34086128520E+02  0.92266346337E+01  0.36665734393E+02  0.51100000000E-03 0.  1.
         12    1    3    3    0    0 -0.21320339012E+02 -0.35488502794E+02 -0.80730776963E+01  0.42180152556E+02  0.00000000000E+00 0. -1.
</event>
<event>
 7    1  0.1999542E-015  0.9000782E+02  0.7816164E-02  0.1186339E+00
        -11   -1    0    0    0    0  0.00000000000E+00  0.00000000000E+00  0.45593999997E+02  0.45594000000E+02  0.51100000000E-03 0.  1.
         11   -1    0    0    0    0 -0.00000000000E+00 -0.00000000000E+00 -0.45593999997E+02  0.45594000000E+02  0.51100000000E-03 0. -1.
    9900012    2    1    2    0    0  0.94398862480E+00  0.52264726116E+00  0.47806970388E+00  0.90007819791E+02  0.90000082212E+02 0.  0.
         12    1    1    2    0    0 -0.94398862480E+00 -0.52264726116E+00 -0.47806970388E+00  0.11801802087E+01  0.00000000000E+00 0. -1.
         11    1    3    3    0    0 -0.36532190321E+01  0.36436182445E+02 -0.15351278946E+02  0.39706462522E+02  0.51100000000E-03 0. -1.
        -11    1    3    3    0    0  0.37330545897E+01 -0.16585850193E+01 -0.77126542267E+01  0.87276363535E+01  0.51100000000E-03 0.  1.
        -12    1    3    3    0    0  0.86415306715E+00 -0.34254950165E+02  0.23542002877E+02  0.41573720916E+02  0.00000000000E+00 0.  1.
</event>
<event>
 7    1  0.1999542E-015  0.9000774E+02  0.7816164E-02  0.1186339E+00
        -11   -1    0    0    0    0  0.00000000000E+00  0.00000000000E+00  0.45593999997E+02  0.45594000000E+02  0.51100000000E-03 0. -1.
         11   -1    0    0    0    0 -0.00000000000E+00 -0.00000000000E+00 -0.45593999997E+02  0.45594000000E+02  0.51100000000E-03 0.  1.
    9900012    2    1    2    0    0 -0.88513047330E+00  0.25343951001E+00  0.73846864600E+00  0.90007735843E+02  0.89999997156E+02 0.  0.
         12    1    1    2    0    0  0.88513047330E+00 -0.25343951001E+00 -0.73846864600E+00  0.11802641573E+01  0.00000000000E+00 0. -1.
         11    1    3    3    0    0 -0.88289496361E+01 -0.27476686492E+02  0.31354988030E+02  0.42615184229E+02  0.51100000000E-03 0. -1.
        -11    1    3    3    0    0  0.33373346766E+01  0.58478650639E+01  0.27106987000E+01  0.72583204842E+01  0.51100000000E-03 0.  1.
        -12    1    3    3    0    0  0.46064844862E+01  0.21882260938E+02 -0.33327218084E+02  0.40134231129E+02  0.00000000000E+00 0.  1.
</event>
<event>
 7    1  0.1999542E-015  0.9000774E+02  0.7816164E-02  0.1186339E+00
        -11   -1    0    0    0    0  0.00000000000E+00  0.00000000000E+00  0.45593999997E+02  0.45594000000E+02  0.51100000000E-03 0.  1.
         11   -1    0    0    0    0 -0.00000000000E+00 -0.00000000000E+00 -0.45593999997E+02  0.45594000000E+02  0.51100000000E-03 0. -1.
    9900012    2    1    2    0    0 -0.73565322958E+00 -0.47407686018E+00  0.79188519959E+00  0.90007738710E+02  0.90000000061E+02 0.  0.
         12    1    1    2    0    0  0.73565322958E+00  0.47407686018E+00 -0.79188519959E+00  0.11802612901E+01  0.00000000000E+00 0. -1.
         11    1    3    3    0    0 -0.39113319249E+02  0.56338895903E+01 -0.13488526838E+02  0.41755632088E+02  0.51100000000E-03 0. -1.
        -11    1    3    3    0    0  0.10536320490E+02  0.90626966132E+01  0.76350840009E+01  0.15856892108E+02  0.51100000000E-03 0.  1.
        -12    1    3    3    0    0  0.27841345529E+02 -0.15170663064E+02  0.66453280365E+01  0.32395214514E+02  0.00000000000E+00 0.  1.
</event>
<event>
 7    1  0.1999542E-015  0.9000768E+02  0.7816164E-02  0.1186339E+00
        -11   -1    0    0    0    0  0.00000000000E+00  0.00000000000E+00  0.45593999997E+02  0.45594000000E+02  0.51100000000E-03 0. -1.
         11   -1    0    0    0    0 -0.00000000000E+00 -0.00000000000E+00 -0.45593999997E+02  0.45594000000E+02  0.51100000000E-03 0.  1.
    9900012    2    1    2    0    0 -0.15579162140E+00 -0.10821872361E+01 -0.44469286713E+00  0.90007681403E+02  0.89999941998E+02 0.  0.
         12    1    1    2    0    0  0.15579162140E+00  0.10821872361E+01  0.44469286713E+00  0.11803185965E+01  0.00000000000E+00 0. -1.
         11    1    3    3    0    0  0.72328916088E+01 -0.34327722864E+02 -0.13641297303E+02  0.37640301147E+02  0.51100000000E-03 0. -1.
        -11    1    3    3    0    0  0.91515677841E+00 -0.80754743819E+01  0.46468001248E+01  0.93618133972E+01  0.51100000000E-03 0.  1.
        -12    1    3    3    0    0 -0.83038400086E+01  0.41321010010E+02  0.85498043110E+01  0.43005566859E+02  0.00000000000E+00 0.  1.
</event>
<event>
 7    1  0.1999542E-015  0.9000767E+02  0.7816164E-02  0.1186339E+00
        -11   -1    0    0    0    0  0.00000000000E+00  0.00000000000E+00  0.45593999997E+02  0.45594000000E+02  0.51100000000E-03 0.  1.
         11   -1    0    0    0    0 -0.00000000000E+00 -0.00000000000E+00 -0.45593999997E+02  0.45594000000E+02  0.51100000000E-03 0. -1.
    9900012    2    1    2    0    0 -0.89414577249E+00  0.39203779515E+00 -0.66331241076E+00  0.90007672228E+02  0.89999932701E+02 0.  0.
         12    1    1    2    0    0  0.89414577249E+00 -0.39203779515E+00  0.66331241076E+00  0.11803277721E+01  0.00000000000E+00 0. -1.
         11    1    3    3    0    0  0.10229431999E+02 -0.55918513354E+00  0.27864149938E+01  0.10616876933E+02  0.51100000000E-03 0. -1.
        -11    1    3    3    0    0  0.47056437156E+01  0.22789594945E+02  0.29008491349E+02  0.37188725323E+02  0.51100000000E-03 0.  1.
         12    1    3    3    0    0 -0.15829221487E+02 -0.21838372017E+02 -0.32458218754E+02  0.42202069972E+02  0.00000000000E+00 0. -1.
</event>
<event>
 7    1  0.1999542E-015  0.9000780E+02  0.7816164E-02  0.1186339E+00
        -11   -1    0    0    0    0  0.00000000000E+00  0.00000000000E+00  0.45593999997E+02  0.45594000000E+02  0.51100000000E-03 0. -1.
         11   -1    0    0    0    0 -0.00000000000E+00 -0.00000000000E+00 -0.45593999997E+02  0.45594000000E+02  0.51100000000E-03 0.  1.
    9900012    2    1    2    0    0 -0.24293277008E-01 -0.10493841288E+01 -0.53951488378E+00  0.90007799372E+02  0.90000061523E+02 0.  0.
         12    1    1    2    0    0  0.24293277008E-01  0.10493841288E+01  0.53951488378E+00  0.11802006282E+01  0.00000000000E+00 0. -1.
         11    1    3    3    0    0  0.96028198248E+01 -0.23027444029E+02  0.31569245670E+02  0.40237974595E+02  0.51100000000E-03 0. -1.
        -11    1    3    3    0    0  0.95921878951E+01  0.70837384140E+01 -0.39403067749E+01  0.12558480651E+02  0.51100000000E-03 0.  1.
        -12    1    3    3    0    0 -0.19219300997E+02  0.14894321486E+02 -0.28168453779E+02  0.37211344125E+02  0.00000000000E+00 0.  1.
</event>
<event>
 7    1  0.1999542E-015  0.9000771E+02  0.7816164E-02  0.1186339E+00
        -11   -1    0    0    0    0  0.00000000000E+00  0.00000000000E+00  0.45593999997E+02  0.45594000000E+02  0.51100000000E-03 0. -1.
         11   -1    0    0    0    0 -0.00000000000E+00 -0.00000000000E+00 -0.45593999997E+02  0.45594000000E+02  0.51100000000E-03 0.  1.
    9900012    2    1    2    0    0 -0.71153728172E+00  0.82489761946E+00 -0.45424079043E+00  0.90007713560E+02  0.89999974579E+02 0.  0.
         12    1    1    2    0    0  0.71153728172E+00 -0.82489761946E+00  0.45424079043E+00  0.11802864405E+01  0.00000000000E+00 0. -1.
         11    1    3    3    0    0  0.25659358976E+02 -0.61725900363E+01  0.15258540525E+02  0.30484859029E+02  0.51100000000E-03 0. -1.
        -11    1    3    3    0    0  0.13309283774E+02 -0.67099695203E+01 -0.77272937625E+01  0.16789037932E+02  0.51100000000E-03 0.  1.
        -12    1    3    3    0    0 -0.39680180031E+02  0.13707457176E+02 -0.79854875533E+01  0.42733816598E+02  0.00000000000E+00 0.  1.
</event>
<event>
 7    1  0.1999542E-015  0.9000769E+02  0.7816164E-02  0.1186339E+00
        -11   -1    0    0    0    0  0.00000000000E+00  0.00000000000E+00  0.45593999997E+02  0.45594000000E+02  0.51100000000E-03 0.  1.
         11   -1    0    0    0    0 -0.00000000000E+00 -0.00000000000E+00 -0.45593999997E+02  0.45594000000E+02  0.51100000000E-03 0. -1.
    9900012    2    1    2    0    0 -0.21756606525E+00  0.54062266202E+00  0.10264105189E+01  0.90007692240E+02  0.89999952977E+02 0.  0.
         12    1    1    2    0    0  0.21756606525E+00 -0.54062266202E+00 -0.10264105189E+01  0.11803077602E+01  0.00000000000E+00 0. -1.
         11    1    3    3    0    0  0.10500483040E+02 -0.72115913547E+01 -0.34824351923E+02  0.37081028587E+02  0.51100000000E-03 0. -1.
        -11    1    3    3    0    0  0.11240581631E+02  0.13148472373E+01  0.11707678993E+01  0.11377618221E+02  0.51100000000E-03 0.  1.
        -12    1    3    3    0    0 -0.21958630736E+02  0.64373667794E+01  0.34679994543E+02  0.41549045432E+02  0.00000000000E+00 0.  1.
</event>
<event>
 7    1  0.1999542E-015  0.9000858E+02  0.7816164E-02  0.1186337E+00
        -11   -1    0    0    0    0  0.00000000000E+00  0.00000000000E+00  0.45593999997E+02  0.45594000000E+02  0.51100000000E-03 0. -1.
         11   -1    0    0    0    0 -0.00000000000E+00 -0.00000000000E+00 -0.45593999997E+02  0.45594000000E+02  0.51100000000E-03 0.  1.
    9900012    2    1    2    0    0 -0.86402264092E+00  0.79742430574E+00 -0.92751568474E-01  0.90008583407E+02  0.90000855903E+02 0.  0.
         12    1    1    2    0    0  0.86402264092E+00 -0.79742430574E+00  0.92751568474E-01  0.11794165934E+01  0.00000000000E+00 0. -1.
         11    1    3    3    0    0 -0.32022600808E+01  0.38959528592E+01  0.68892793196E+01  0.85378620340E+01  0.51100000000E-03 0. -1.
        -11    1    3    3    0    0 -0.15706201284E+02  0.35358982706E+02 -0.34347155040E+01  0.38842498473E+02  0.51100000000E-03 0.  1.
         12    1    3    3    0    0  0.18044438724E+02 -0.38457511260E+02 -0.35473153840E+01  0.42628222899E+02  0.00000000000E+00 0. -1.
</event>
<event>
 7    1  0.1999542E-015  0.9000770E+02  0.7816164E-02  0.1186339E+00
        -11   -1    0    0    0    0  0.00000000000E+00  0.00000000000E+00  0.45593999997E+02  0.45594000000E+02  0.51100000000E-03 0. -1.
         11   -1    0    0    0    0 -0.00000000000E+00 -0.00000000000E+00 -0.45593999997E+02  0.45594000000E+02  0.51100000000E-03 0.  1.
    9900012    2    1    2    0    0  0.41968798264E+00  0.69454482385E+00 -0.85707328017E+00  0.90007701257E+02  0.89999962114E+02 0.  0.
         12    1    1    2    0    0 -0.41968798264E+00 -0.69454482385E+00  0.85707328017E+00  0.11802987430E+01  0.00000000000E+00 0. -1.
         11    1    3    3    0    0  0.85413545993E+01 -0.84466040174E+01 -0.57539290959E+01  0.13319442861E+02  0.51100000000E-03 0. -1.
        -11    1    3    3    0    0 -0.13677732540E+01 -0.24731764086E+02 -0.21829287840E+02  0.33015886575E+02  0.51100000000E-03 0.  1.
         12    1    3    3    0    0 -0.67538933626E+01  0.33872912928E+02  0.26726143656E+02  0.43672371821E+02  0.00000000000E+00 0. -1.
</event>
<event>
 7    1  0.1999542E-015  0.9000774E+02  0.7816164E-02  0.1186339E+00
        -11   -1    0    0    0    0  0.00000000000E+00  0.00000000000E+00  0.45593999997E+02  0.45594000000E+02  0.51100000000E-03 0.  1.
         11   -1    0    0    0    0 -0.00000000000E+00 -0.00000000000E+00 -0.45593999997E+02  0.45594000000E+02  0.51100000000E-03 0. -1.
    9900012    2    1    2    0    0  0.91805028260E+00 -0.69170761545E+00  0.26781856742E+00  0.90007744718E+02  0.90000006148E+02 0.  0.
         12    1    1    2    0    0 -0.91805028260E+00  0.69170761545E+00 -0.26781856742E+00  0.11802552824E+01  0.00000000000E+00 0. -1.
         11    1    3    3    0    0  0.18158090990E+02  0.32330115621E+02 -0.71327601136E+01  0.37760149782E+02  0.51100000000E-03 0. -1.
        -11    1    3    3    0    0 -0.46922664037E+01  0.48459587359E+01 -0.71074671259E+01  0.97988146875E+01  0.51100000000E-03 0.  1.
        -12    1    3    3    0    0 -0.12547774303E+02 -0.37867781972E+02  0.14508045807E+02  0.42448780248E+02  0.00000000000E+00 0.  1.
</event>
<event>
 7    1  0.1999542E-015  0.9000773E+02  0.7816164E-02  0.1186339E+00
        -11   -1    0    0    0    0  0.00000000000E+00  0.00000000000E+00  0.45593999997E+02  0.45594000000E+02  0.51100000000E-03 0.  1.
         11   -1    0    0    0    0 -0.00000000000E+00 -0.00000000000E+00 -0.45593999997E+02  0.45594000000E+02  0.51100000000E-03 0. -1.
    9900012    2    1    2    0    0 -0.57585174148E+00 -0.35759103701E+00  0.96620806593E+00  0.90007731130E+02  0.89999992381E+02 0.  0.
         12    1    1    2    0    0  0.57585174148E+00  0.35759103701E+00 -0.96620806593E+00  0.11802688696E+01  0.00000000000E+00 0. -1.
         11    1    3    3    0    0 -0.31344113414E+02  0.17045683944E+01  0.17900946458E+02  0.36135894668E+02  0.51100000000E-03 0. -1.
        -11    1    3    3    0    0 -0.68532430825E+01 -0.15185054951E+01  0.64820604169E+01  0.95545751970E+01  0.51100000000E-03 0.  1.
        -12    1    3    3    0    0  0.37621504755E+02 -0.54365393635E+00 -0.23416798809E+02  0.44317261265E+02  0.00000000000E+00 0.  1.
</event>
<event>
 7    1  0.1999542E-015  0.9000772E+02  0.7816164E-02  0.1186339E+00
        -11   -1    0    0    0    0  0.00000000000E+00  0.00000000000E+00  0.45593999997E+02  0.45594000000E+02  0.51100000000E-03 0. -1.
         11   -1    0    0    0    0 -0.00000000000E+00 -0.00000000000E+00 -0.45593999997E+02  0.45594000000E+02  0.51100000000E-03 0.  1.
    9900012    2    1    2    0    0  0.81253048759E-01  0.11747912607E+01  0.79516547609E-01  0.90007720607E+02  0.89999981719E+02 0.  0.
         12    1    1    2    0    0 -0.81253048759E-01 -0.11747912607E+01 -0.79516547609E-01  0.11802793930E+01  0.00000000000E+00 0. -1.
         11    1    3    3    0    0  0.34373035669E+02 -0.10252515126E+02 -0.12029965618E+02  0.37833050637E+02  0.51100000000E-03 0. -1.
        -11    1    3    3    0    0 -0.69089942356E+01 -0.16870299933E+01 -0.11631370722E+02  0.13633380237E+02  0.51100000000E-03 0.  1.
        -12    1    3    3    0    0 -0.27382788384E+02  0.13114336380E+02  0.23740852888E+02  0.38541289733E+02  0.00000000000E+00 0.  1.
</event>
<event>
 7    1  0.2303319E-015  0.9000752E+02  0.7816164E-02  0.1186339E+00
        -11   -1    0    0    0    0  0.00000000000E+00  0.00000000000E+00  0.45593999997E+02  0.45594000000E+02  0.51100000000E-03 0.  1.
         11   -1    0    0    0    0 -0.00000000000E+00 -0.00000000000E+00 -0.45593999997E+02  0.45594000000E+02  0.51100000000E-03 0. -1.
    9900012    2    1    2    0    0  0.17207983307E+00  0.11678586227E+01  0.43509819157E-02  0.90007523756E+02  0.89999782269E+02 0.  0.
         12    1    1    2    0    0 -0.17207983307E+00 -0.11678586227E+01 -0.43509819157E-02  0.11804762440E+01  0.00000000000E+00 0. -1.
         11    1    3    3    0    0  0.24259926658E+02 -0.24156732873E+02 -0.22401014930E+02  0.40913289463E+02  0.51100000000E-03 0. -1.
        -11    1    3    3    0    0  0.92710127557E+00  0.90880438152E+01 -0.33095116256E+01  0.97162196673E+01  0.51100000000E-03 0.  1.
        -12    1    3    3    0    0 -0.25014948100E+02  0.16236547681E+02  0.25714877538E+02  0.39378014625E+02  0.00000000000E+00 0.  1.
</event>
<event>
 7    1  0.1999542E-015  0.9000776E+02  0.7816164E-02  0.1186339E+00
        -11   -1    0    0    0    0  0.00000000000E+00  0.00000000000E+00  0.45593999997E+02  0.45594000000E+02  0.51100000000E-03 0.  1.
         11   -1    0    0    0    0 -0.00000000000E+00 -0.00000000000E+00 -0.45593999997E+02  0.45594000000E+02  0.51100000000E-03 0. -1.
    9900012    2    1    2    0    0  0.11343080369E+01  0.15074203027E+00 -0.28913215078E+00  0.90007756261E+02  0.90000017844E+02 0.  0.
         12    1    1    2    0    0 -0.11343080369E+01 -0.15074203027E+00  0.28913215078E+00  0.11802437387E+01  0.00000000000E+00 0. -1.
         11    1    3    3    0    0  0.57297456929E+01  0.30180652316E+01 -0.36512509098E+02  0.37082368106E+02  0.51100000000E-03 0. -1.
        -11    1    3    3    0    0  0.10651516402E+02  0.11814610373E+01 -0.25927860164E+01  0.11026023373E+02  0.51100000000E-03 0.  1.
        -12    1    3    3    0    0 -0.15246954058E+02 -0.40487842387E+01  0.38816162964E+02  0.41899364782E+02  0.00000000000E+00 0.  1.
</event>
<event>
 7    1  0.1999542E-015  0.9000777E+02  0.7816164E-02  0.1186339E+00
        -11   -1    0    0    0    0  0.00000000000E+00  0.00000000000E+00  0.45593999997E+02  0.45594000000E+02  0.51100000000E-03 0.  1.
         11   -1    0    0    0    0 -0.00000000000E+00 -0.00000000000E+00 -0.45593999997E+02  0.45594000000E+02  0.51100000000E-03 0. -1.
    9900012    2    1    2    0    0  0.16552026086E+00  0.10677398500E+01  0.47484882413E+00  0.90007768349E+02  0.90000030091E+02 0.  0.
         12    1    1    2    0    0 -0.16552026086E+00 -0.10677398500E+01 -0.47484882413E+00  0.11802316509E+01  0.00000000000E+00 0. -1.
         11    1    3    3    0    0  0.29379200159E+01  0.10742535363E+01  0.83955353403E+01  0.89593754577E+01  0.51100000000E-03 0. -1.
        -11    1    3    3    0    0 -0.15764453753E+02 -0.31137481342E+02  0.17277136831E+02  0.38943037938E+02  0.51100000000E-03 0.  1.
         12    1    3    3    0    0  0.12992053998E+02  0.31130967656E+02 -0.25197823348E+02  0.42105354953E+02  0.00000000000E+00 0. -1.
</event>
<event>
 7    1  0.1999542E-015  0.9000776E+02  0.7816164E-02  0.1186339E+00
        -11   -1    0    0    0    0  0.00000000000E+00  0.00000000000E+00  0.45593999997E+02  0.45594000000E+02  0.51100000000E-03 0.  1.
         11   -1    0    0    0    0 -0.00000000000E+00 -0.00000000000E+00 -0.45593999997E+02  0.45594000000E+02  0.51100000000E-03 0. -1.
    9900012    2    1    2    0    0 -0.43879639678E+00  0.15004364608E-01  0.10955357198E+01  0.90007760227E+02  0.90000021862E+02 0.  0.
         12    1    1    2    0    0  0.43879639678E+00 -0.15004364608E-01 -0.10955357198E+01  0.11802397731E+01  0.00000000000E+00 0. -1.
         11    1    3    3    0    0 -0.19029221756E+02 -0.28892467712E+00 -0.28794864865E+02  0.34515779015E+02  0.51100000000E-03 0. -1.
        -11    1    3    3    0    0 -0.29773535928E+01  0.61564431782E+01 -0.85980343745E+01  0.10986019406E+02  0.51100000000E-03 0.  1.
        -12    1    3    3    0    0  0.21567778952E+02 -0.58525141365E+01  0.38488434960E+02  0.44505961806E+02  0.00000000000E+00 0.  1.
</event>
<event>
 7    1  0.1999542E-015  0.9000773E+02  0.7816164E-02  0.1186339E+00
        -11   -1    0    0    0    0  0.00000000000E+00  0.00000000000E+00  0.45593999997E+02  0.45594000000E+02  0.51100000000E-03 0. -1.
         11   -1    0    0    0    0 -0.00000000000E+00 -0.00000000000E+00 -0.45593999997E+02  0.45594000000E+02  0.51100000000E-03 0.  1.
    9900012    2    1    2    0    0  0.17003193887E+00 -0.78485581610E+00  0.86494589706E+00  0.90007728456E+02  0.89999989672E+02 0.  0.
         12    1    1    2    0    0 -0.17003193887E+00  0.78485581610E+00 -0.86494589706E+00  0.11802715438E+01  0.00000000000E+00 0. -1.
         11    1    3    3    0    0  0.22003432710E+02  0.28978522548E+02 -0.19304450940E+02  0.41189411824E+02  0.51100000000E-03 0. -1.
        -11    1    3    3    0    0 -0.82570052062E+01  0.61041205071E+00 -0.23942477383E+01  0.86187679132E+01  0.51100000000E-03 0.  1.
        -12    1    3    3    0    0 -0.13576395565E+02 -0.30373790415E+02  0.22563644575E+02  0.40199548719E+02  0.00000000000E+00 0.  1.
</event>
<event>
 7    1  0.1999542E-015  0.9000772E+02  0.7816164E-02  0.1186339E+00
        -11   -1    0    0    0    0  0.00000000000E+00  0.00000000000E+00  0.45593999997E+02  0.45594000000E+02  0.51100000000E-03 0. -1.
         11   -1    0    0    0    0 -0.00000000000E+00 -0.00000000000E+00 -0.45593999997E+02  0.45594000000E+02  0.51100000000E-03 0.  1.
    9900012    2    1    2    0    0 -0.15798975763E+00  0.12810512480E+00 -0.11626229418E+01  0.90007718766E+02  0.89999979854E+02 0.  0.
         12    1    1    2    0    0  0.15798975763E+00 -0.12810512480E+00  0.11626229418E+01  0.11802812340E+01  0.00000000000E+00 0. -1.
         11    1    3    3    0    0 -0.71386683738E+01  0.37657942623E+01 -0.58989334764E+01  0.99969599878E+01  0.51100000000E-03 0. -1.
        -11    1    3    3    0    0 -0.25395933277E+02 -0.11596890430E+02 -0.23366213794E+02  0.36406335190E+02  0.51100000000E-03 0.  1.
         12    1    3    3    0    0  0.32376611893E+02  0.79592012926E+01  0.28102524328E+02  0.43604423588E+02  0.00000000000E+00 0. -1.
</event>
<event>
 7    1  0.1999542E-015  0.9000793E+02  0.7816164E-02  0.1186339E+00
        -11   -1    0    0    0    0  0.00000000000E+00  0.00000000000E+00  0.45593999997E+02  0.45594000000E+02  0.51100000000E-03 0.  1.
         11   -1    0    0    0    0 -0.00000000000E+00 -0.00000000000E+00 -0.45593999997E+02  0.45594000000E+02  0.51100000000E-03 0. -1.
    9900012    2    1    2    0    0  0.85696755283E+00  0.66514366492E+00  0.46448866069E+00  0.90007932545E+02  0.90000196455E+02 0.  0.
         12    1    1    2    0    0 -0.85696755283E+00 -0.66514366492E+00 -0.46448866069E+00  0.11800674546E+01  0.00000000000E+00 0. -1.
         11    1    3    3    0    0  0.79781586360E+01  0.50094117576E+00 -0.60585021478E+01  0.10030324313E+02  0.51100000000E-03 0. -1.
        -11    1    3    3    0    0 -0.58595834746E+01  0.39332310260E+02  0.87804720553E+01  0.40724219313E+02  0.51100000000E-03 0.  1.
         12    1    3    3    0    0 -0.12616076086E+01 -0.39168107771E+02 -0.22574812468E+01  0.39253388920E+02  0.00000000000E+00 0. -1.
</event>
<event>
 7    1  0.1999542E-015  0.9000773E+02  0.7816164E-02  0.1186339E+00
        -11   -1    0    0    0    0  0.00000000000E+00  0.00000000000E+00  0.45593999997E+02  0.45594000000E+02  0.51100000000E-03 0. -1.
         11   -1    0    0    0    0 -0.00000000000E+00 -0.00000000000E+00 -0.45593999997E+02  0.45594000000E+02  0.51100000000E-03 0.  1.
    9900012    2    1    2    0    0  0.96868503783E+00  0.56913344183E+00 -0.36161872621E+00  0.90007732369E+02  0.89999993636E+02 0.  0.
         12    1    1    2    0    0 -0.96868503783E+00 -0.56913344183E+00  0.36161872621E+00  0.11802676308E+01  0.00000000000E+00 0. -1.
         11    1    3    3    0    0 -0.15445287121E+02  0.34946795327E+02  0.51187212846E+01  0.38549146628E+02  0.51100000000E-03 0. -1.
        -11    1    3    3    0    0  0.84361770536E+01  0.57484347809E+01 -0.22532965807E+00  0.10210992088E+02  0.51100000000E-03 0.  1.
        -12    1    3    3    0    0  0.79777951051E+01 -0.40126096666E+02 -0.52550103527E+01  0.41247593653E+02  0.00000000000E+00 0.  1.
</event>
<event>
 7    1  0.1999542E-015  0.9000750E+02  0.7816164E-02  0.1186340E+00
        -11   -1    0    0    0    0  0.00000000000E+00  0.00000000000E+00  0.45593999997E+02  0.45594000000E+02  0.51100000000E-03 0.  1.
         11   -1    0    0    0    0 -0.00000000000E+00 -0.00000000000E+00 -0.45593999997E+02  0.45594000000E+02  0.51100000000E-03 0. -1.
    9900012    2    1    2    0    0 -0.33267399805E-01  0.11662361794E+01  0.17990014866E+00  0.90007501118E+02  0.89999759333E+02 0.  0.
         12    1    1    2    0    0  0.33267399805E-01 -0.11662361794E+01 -0.17990014866E+00  0.11804988816E+01  0.00000000000E+00 0. -1.
         11    1    3    3    0    0 -0.17510933038E+02 -0.32695472475E+02 -0.32217118486E+01  0.37229103182E+02  0.51100000000E-03 0. -1.
        -11    1    3    3    0    0 -0.32463327796E+01 -0.17246779198E+01  0.10378747900E+02  0.11010522180E+02  0.51100000000E-03 0.  1.
        -12    1    3    3    0    0  0.20723998418E+02  0.35586386574E+02 -0.69771359026E+01  0.41767875757E+02  0.00000000000E+00 0.  1.
</event>
<event>
 7    1  0.1999542E-015  0.9000776E+02  0.7816164E-02  0.1186339E+00
        -11   -1    0    0    0    0  0.00000000000E+00  0.00000000000E+00  0.45593999997E+02  0.45594000000E+02  0.51100000000E-03 0. -1.
         11   -1    0    0    0    0 -0.00000000000E+00 -0.00000000000E+00 -0.45593999997E+02  0.45594000000E+02  0.51100000000E-03 0.  1.
    9900012    2    1    2    0    0 -0.61485998672E+00  0.90236782814E+00 -0.44794320845E+00  0.90007756966E+02  0.90000018558E+02 0.  0.
         12    1    1    2    0    0  0.61485998672E+00 -0.90236782814E+00  0.44794320845E+00  0.11802430337E+01  0.00000000000E+00 0. -1.
         11    1    3    3    0    0  0.85080221879E+01  0.33996130705E+02  0.25994105236E+02  0.43632749762E+02  0.51100000000E-03 0. -1.
        -11    1    3    3    0    0  0.44150821624E+01 -0.41461805718E+01 -0.53847517796E+01  0.81042776250E+01  0.51100000000E-03 0.  1.
        -12    1    3    3    0    0 -0.13537964337E+02 -0.28947582305E+02 -0.21057296665E+02  0.38270729580E+02  0.00000000000E+00 0.  1.
</event>
<event>
 7    1  0.1999542E-015  0.9000785E+02  0.7816164E-02  0.1186339E+00
        -11   -1    0    0    0    0  0.00000000000E+00  0.00000000000E+00  0.45593999997E+02  0.45594000000E+02  0.51100000000E-03 0. -1.
         11   -1    0    0    0    0 -0.00000000000E+00 -0.00000000000E+00 -0.45593999997E+02  0.45594000000E+02  0.51100000000E-03 0.  1.
    9900012    2    1    2    0    0  0.12656554052E+00 -0.10187717192E+01 -0.58209889887E+00  0.90007850103E+02  0.90000112924E+02 0.  0.
         12    1    1    2    0    0 -0.12656554052E+00  0.10187717192E+01  0.58209889887E+00  0.11801498972E+01  0.00000000000E+00 0. -1.
         11    1    3    3    0    0 -0.22444142010E+01 -0.63217342314E+01 -0.66607304437E+01  0.94534146796E+01  0.51100000000E-03 0. -1.
        -11    1    3    3    0    0  0.80368765415E+00  0.22991094663E+02 -0.31491374805E+02  0.38999269673E+02  0.51100000000E-03 0.  1.
         12    1    3    3    0    0  0.15672920874E+01 -0.17688132151E+02  0.37570006350E+02  0.41555165751E+02  0.00000000000E+00 0. -1.
</event>
<event>
 7    1  0.1999542E-015  0.9000775E+02  0.7816164E-02  0.1186339E+00
        -11   -1    0    0    0    0  0.00000000000E+00  0.00000000000E+00  0.45593999997E+02  0.45594000000E+02  0.51100000000E-03 0.  1.
         11   -1    0    0    0    0 -0.00000000000E+00 -0.00000000000E+00 -0.45593999997E+02  0.45594000000E+02  0.51100000000E-03 0. -1.
    9900012    2    1    2    0    0 -0.81132380359E+00  0.32225273670E+00  0.79428550310E+00  0.90007753161E+02  0.90000014703E+02 0.  0.
         12    1    1    2    0    0  0.81132380359E+00 -0.32225273670E+00 -0.79428550310E+00  0.11802468390E+01  0.00000000000E+00 0. -1.
         11    1    3    3    0    0 -0.32020528292E+02 -0.19824712376E+02 -0.16058551768E+01  0.37694989375E+02  0.51100000000E-03 0. -1.
        -11    1    3    3    0    0 -0.62005249941E+01 -0.10866956004E+01  0.65655182335E+01  0.90957928443E+01  0.51100000000E-03 0.  1.
        -12    1    3    3    0    0  0.37409729483E+02  0.21233660713E+02 -0.41653775536E+01  0.43216970942E+02  0.00000000000E+00 0.  1.
</event>
<event>
 7    1  0.1999542E-015  0.9000772E+02  0.7816164E-02  0.1186339E+00
        -11   -1    0    0    0    0  0.00000000000E+00  0.00000000000E+00  0.45593999997E+02  0.45594000000E+02  0.51100000000E-03 0. -1.
         11   -1    0    0    0    0 -0.00000000000E+00 -0.00000000000E+00 -0.45593999997E+02  0.45594000000E+02  0.51100000000E-03 0.  1.
    9900012    2    1    2    0    0  0.67166392911E+00 -0.44163943949E+00 -0.86422568233E+00  0.90007718738E+02  0.89999979825E+02 0.  0.
         12    1    1    2    0    0 -0.67166392911E+00  0.44163943949E+00  0.86422568233E+00  0.11802812623E+01  0.00000000000E+00 0. -1.
         11    1    3    3    0    0 -0.26227702053E+02  0.16383274486E+02 -0.25457643492E+02  0.40054907943E+02  0.51100000000E-03 0. -1.
        -11    1    3    3    0    0  0.43349629273E+01  0.74811334102E+01 -0.29414293324E-01  0.86463938231E+01  0.51100000000E-03 0.  1.
        -12    1    3    3    0    0  0.22564403055E+02 -0.24306047336E+02  0.24622832103E+02  0.41306416972E+02  0.00000000000E+00 0.  1.
</event>
<event>
 7    1  0.1999542E-015  0.9000784E+02  0.7816164E-02  0.1186339E+00
        -11   -1    0    0    0    0  0.00000000000E+00  0.00000000000E+00  0.45593999997E+02  0.45594000000E+02  0.51100000000E-03 0.  1.
         11   -1    0    0    0    0 -0.00000000000E+00 -0.00000000000E+00 -0.45593999997E+02  0.45594000000E+02  0.51100000000E-03 0. -1.
    9900012    2    1    2    0    0 -0.77849293847E+00 -0.68929776985E+00  0.55820584654E+00  0.90007840503E+02  0.90000103198E+02 0.  0.
         12    1    1    2    0    0  0.77849293847E+00  0.68929776985E+00 -0.55820584654E+00  0.11801594968E+01  0.00000000000E+00 0. -1.
         11    1    3    3    0    0  0.86967441481E+00 -0.95177528107E+01 -0.21313321851E+01  0.97921667315E+01  0.51100000000E-03 0. -1.
        -11    1    3    3    0    0  0.19318696782E+02 -0.77904630977E+01 -0.30904821113E+02  0.37269442294E+02  0.51100000000E-03 0.  1.
         12    1    3    3    0    0 -0.20966864135E+02  0.16618918139E+02  0.33594359145E+02  0.42946231477E+02  0.00000000000E+00 0. -1.
</event>
<event>
 7    1  0.1999542E-015  0.9000775E+02  0.7816164E-02  0.1186339E+00
        -11   -1    0    0    0    0  0.00000000000E+00  0.00000000000E+00  0.45593999997E+02  0.45594000000E+02  0.51100000000E-03 0.  1.
         11   -1    0    0    0    0 -0.00000000000E+00 -0.00000000000E+00 -0.45593999997E+02  0.45594000000E+02  0.51100000000E-03 0. -1.
    9900012    2    1    2    0    0  0.35126226577E+00  0.46013258541E+00  0.10285389006E+01  0.90007746025E+02  0.90000007473E+02 0.  0.
         12    1    1    2    0    0 -0.35126226577E+00 -0.46013258541E+00 -0.10285389006E+01  0.11802539750E+01  0.00000000000E+00 0. -1.
         11    1    3    3    0    0 -0.55958825830E+01  0.14945409324E+01  0.52822639238E+01  0.78389965495E+01  0.51100000000E-03 0. -1.
        -11    1    3    3    0    0 -0.13656486738E+02 -0.14247159631E+02  0.32762540326E+02  0.38247421305E+02  0.51100000000E-03 0.  1.
         12    1    3    3    0    0  0.19603631587E+02  0.13212751284E+02 -0.37016265349E+02  0.43921328171E+02  0.00000000000E+00 0. -1.
</event>
<event>
 7    1  0.1999542E-015  0.9000795E+02  0.7816164E-02  0.1186339E+00
        -11   -1    0    0    0    0  0.00000000000E+00  0.00000000000E+00  0.45593999997E+02  0.45594000000E+02  0.51100000000E-03 0. -1.
         11   -1    0    0    0    0 -0.00000000000E+00 -0.00000000000E+00 -0.45593999997E+02  0.45594000000E+02  0.51100000000E-03 0.  1.
    9900012    2    1    2    0    0 -0.14744396493E+00  0.65809526808E+00 -0.96834843208E+00  0.90007945853E+02  0.90000209938E+02 0.  0.
         12    1    1    2    0    0  0.14744396493E+00 -0.65809526808E+00  0.96834843208E+00  0.11800541473E+01  0.00000000000E+00 0. -1.
         11    1    3    3    0    0  0.24240147765E+01 -0.12867922154E+02  0.13544254159E+02  0.18838951382E+02  0.51100000000E-03 0. -1.
        -11    1    3    3    0    0 -0.10149889980E+02 -0.26761433142E+02 -0.45404474656E+01  0.28979479531E+02  0.51100000000E-03 0.  1.
         12    1    3    3    0    0  0.75784312389E+01  0.40287450564E+02 -0.99721551251E+01  0.42189514940E+02  0.00000000000E+00 0. -1.
</event>
<event>
 7    1  0.1999542E-015  0.9000774E+02  0.7816164E-02  0.1186339E+00
        -11   -1    0    0    0    0  0.00000000000E+00  0.00000000000E+00  0.45593999997E+02  0.45594000000E+02  0.51100000000E-03 0. -1.
         11   -1    0    0    0    0 -0.00000000000E+00 -0.00000000000E+00 -0.45593999997E+02  0.45594000000E+02  0.51100000000E-03 0.  1.
    9900012    2    1    2    0    0  0.10523468242E+01 -0.19344992586E+00 -0.49815868392E+00  0.90007737831E+02  0.89999999171E+02 0.  0.
         12    1    1    2    0    0 -0.10523468242E+01  0.19344992586E+00  0.49815868392E+00  0.11802621686E+01  0.00000000000E+00 0. -1.
         11    1    3    3    0    0 -0.78161088434E+01 -0.50946373026E+01  0.11892431462E+01  0.94053807057E+01  0.51100000000E-03 0. -1.
        -11    1    3    3    0    0 -0.22303521483E+02  0.14675735469E+02  0.26379601909E+02  0.37532754751E+02  0.51100000000E-03 0.  1.
         12    1    3    3    0    0  0.31171977150E+02 -0.97745480918E+01 -0.28067003739E+02  0.43069602375E+02  0.00000000000E+00 0. -1.
</event>
<event>
 7    1  0.1999542E-015  0.9000776E+02  0.7816164E-02  0.1186339E+00
        -11   -1    0    0    0    0  0.00000000000E+00  0.00000000000E+00  0.45593999997E+02  0.45594000000E+02  0.51100000000E-03 0.  1.
         11   -1    0    0    0    0 -0.00000000000E+00 -0.00000000000E+00 -0.45593999997E+02  0.45594000000E+02  0.51100000000E-03 0. -1.
    9900012    2    1    2    0    0 -0.94455079220E+00 -0.33058587542E+00 -0.62569283752E+00  0.90007764961E+02  0.90000026659E+02 0.  0.
         12    1    1    2    0    0  0.94455079220E+00  0.33058587542E+00  0.62569283752E+00  0.11802350389E+01  0.00000000000E+00 0. -1.
         11    1    3    3    0    0  0.40589999265E+02 -0.25386422986E+01 -0.12188366031E+02  0.42456436636E+02  0.51100000000E-03 0. -1.
        -11    1    3    3    0    0 -0.23690700726E+01 -0.46203014289E+01  0.50910629293E+01  0.72717673446E+01  0.51100000000E-03 0.  1.
        -12    1    3    3    0    0 -0.39165479985E+02  0.68283578520E+01  0.64716102645E+01  0.40279560981E+02  0.00000000000E+00 0.  1.
</event>
<event>
 7    1  0.1999542E-015  0.9000755E+02  0.7816164E-02  0.1186339E+00
        -11   -1    0    0    0    0  0.00000000000E+00  0.00000000000E+00  0.45593999997E+02  0.45594000000E+02  0.51100000000E-03 0.  1.
         11   -1    0    0    0    0 -0.00000000000E+00 -0.00000000000E+00 -0.45593999997E+02  0.45594000000E+02  0.51100000000E-03 0. -1.
    9900012    2    1    2    0    0  0.49319277268E+00 -0.53897101821E-01  0.10711242896E+01  0.90007554638E+02  0.89999813559E+02 0.  0.
         12    1    1    2    0    0 -0.49319277268E+00  0.53897101821E-01 -0.10711242896E+01  0.11804453618E+01  0.00000000000E+00 0. -1.
         11    1    3    3    0    0 -0.65594583006E+01 -0.13117431546E+02 -0.33416080014E+02  0.36492847344E+02  0.51100000000E-03 0. -1.
        -11    1    3    3    0    0 -0.57051945232E+01 -0.61794755423E+01 -0.34611295786E+01  0.90947556727E+01  0.51100000000E-03 0.  1.
        -12    1    3    3    0    0  0.12757845596E+02  0.19243009986E+02  0.37948333882E+02  0.44419951621E+02  0.00000000000E+00 0.  1.
</event>
<event>
 7    1  0.1999542E-015  0.9000775E+02  0.7816164E-02  0.1186339E+00
        -11   -1    0    0    0    0  0.00000000000E+00  0.00000000000E+00  0.45593999997E+02  0.45594000000E+02  0.51100000000E-03 0. -1.
         11   -1    0    0    0    0 -0.00000000000E+00 -0.00000000000E+00 -0.45593999997E+02  0.45594000000E+02  0.51100000000E-03 0.  1.
    9900012    2    1    2    0    0  0.70129927548E+00 -0.91648753487E+00  0.24741287057E+00  0.90007752906E+02  0.90000014444E+02 0.  0.
         12    1    1    2    0    0 -0.70129927548E+00  0.91648753487E+00 -0.24741287057E+00  0.11802470944E+01  0.00000000000E+00 0. -1.
         11    1    3    3    0    0 -0.49710206552E+01 -0.69655489646E+01  0.27442744234E+01  0.89867102493E+01  0.51100000000E-03 0. -1.
        -11    1    3    3    0    0  0.10720611665E+02 -0.12869248807E+02 -0.37412025707E+02  0.40990349438E+02  0.51100000000E-03 0.  1.
         12    1    3    3    0    0 -0.50482917348E+01  0.18918310236E+02  0.34915164154E+02  0.40030693218E+02  0.00000000000E+00 0. -1.
</event>
<event>
 7    1  0.1999542E-015  0.9000716E+02  0.7816164E-02  0.1186340E+00
        -11   -1    0    0    0    0  0.00000000000E+00  0.00000000000E+00  0.45593999997E+02  0.45594000000E+02  0.51100000000E-03 0. -1.
         11   -1    0    0    0    0 -0.00000000000E+00 -0.00000000000E+00 -0.45593999997E+02  0.45594000000E+02  0.51100000000E-03 0.  1.
    9900012    2    1    2    0    0  0.17282175335E-01 -0.21228232887E-01 -0.11805183370E+01  0.90007164340E+02  0.89999418108E+02 0.  0.
         12    1    1    2    0    0 -0.17282175335E-01  0.21228232887E-01  0.11805183370E+01  0.11808356598E+01  0.00000000000E+00 0. -1.
         11    1    3    3    0    0 -0.19185585480E+02  0.28559701020E+02 -0.56196168070E+01  0.34861487431E+02  0.51100000000E-03 0. -1.
        -11    1    3    3    0    0 -0.27760939883E+01  0.80525588414E+01  0.87457229952E+01  0.12208115035E+02  0.51100000000E-03 0.  1.
        -12    1    3    3    0    0  0.21978961644E+02 -0.36633488095E+02 -0.43066245252E+01  0.42937561875E+02  0.00000000000E+00 0.  1.
</event>
<event>
 7    1  0.1999542E-015  0.9000749E+02  0.7816164E-02  0.1186340E+00
        -11   -1    0    0    0    0  0.00000000000E+00  0.00000000000E+00  0.45593999997E+02  0.45594000000E+02  0.51100000000E-03 0.  1.
         11   -1    0    0    0    0 -0.00000000000E+00 -0.00000000000E+00 -0.45593999997E+02  0.45594000000E+02  0.51100000000E-03 0. -1.
    9900012    2    1    2    0    0 -0.25217604185E+00  0.81342539480E+00  0.81752747841E+00  0.90007489599E+02  0.89999747661E+02 0.  0.
         12    1    1    2    0    0  0.25217604185E+00 -0.81342539480E+00 -0.81752747841E+00  0.11805104010E+01  0.00000000000E+00 0. -1.
         11    1    3    3    0    0 -0.32664310562E+01  0.14169474873E+01  0.93041035992E+01  0.99621110249E+01  0.51100000000E-03 0. -1.
        -11    1    3    3    0    0 -0.33448895200E+01 -0.17520137351E+02  0.31480397363E+02  0.36182301158E+02  0.51100000000E-03 0.  1.
         12    1    3    3    0    0  0.63591445344E+01  0.16916615258E+02 -0.39966973484E+02  0.43863077416E+02  0.00000000000E+00 0. -1.
</event>
<event>
 7    1  0.1999542E-015  0.9000769E+02  0.7816164E-02  0.1186339E+00
        -11   -1    0    0    0    0  0.00000000000E+00  0.00000000000E+00  0.45593999997E+02  0.45594000000E+02  0.51100000000E-03 0.  1.
         11   -1    0    0    0    0 -0.00000000000E+00 -0.00000000000E+00 -0.45593999997E+02  0.45594000000E+02  0.51100000000E-03 0. -1.
    9900012    2    1    2    0    0  0.53824327415E-01 -0.11354633213E+01  0.31773393940E+00  0.90007691198E+02  0.89999951922E+02 0.  0.
         12    1    1    2    0    0 -0.53824327415E-01  0.11354633213E+01 -0.31773393940E+00  0.11803088022E+01  0.00000000000E+00 0. -1.
         11    1    3    3    0    0  0.28776927629E+01 -0.62399533131E+01 -0.36353483843E+01  0.77739237920E+01  0.51100000000E-03 0. -1.
        -11    1    3    3    0    0 -0.15402761924E+02 -0.11373569835E+02 -0.33981421402E+02  0.39004360864E+02  0.51100000000E-03 0.  1.
         12    1    3    3    0    0  0.12578893489E+02  0.16478059827E+02  0.37934503725E+02  0.43229406542E+02  0.00000000000E+00 0. -1.
</event>
<event>
 7    1  0.1999542E-015  0.9000777E+02  0.7816164E-02  0.1186339E+00
        -11   -1    0    0    0    0  0.00000000000E+00  0.00000000000E+00  0.45593999997E+02  0.45594000000E+02  0.51100000000E-03 0. -1.
         11   -1    0    0    0    0 -0.00000000000E+00 -0.00000000000E+00 -0.45593999997E+02  0.45594000000E+02  0.51100000000E-03 0.  1.
    9900012    2    1    2    0    0  0.50719489083E+00 -0.87266108350E+00 -0.61168987395E+00  0.90007767597E+02  0.90000029329E+02 0.  0.
         12    1    1    2    0    0 -0.50719489083E+00  0.87266108350E+00  0.61168987395E+00  0.11802324033E+01  0.00000000000E+00 0. -1.
         11    1    3    3    0    0  0.27397146219E+01 -0.23740604746E+02  0.17908905678E+02  0.29863878729E+02  0.51100000000E-03 0. -1.
        -11    1    3    3    0    0  0.21941383542E+02  0.57567527734E+01  0.38749798487E+01  0.23012604879E+02  0.51100000000E-03 0.  1.
        -12    1    3    3    0    0 -0.24173903273E+02  0.17111190889E+02 -0.22395575401E+02  0.37131283988E+02  0.00000000000E+00 0.  1.
</event>
<event>
 7    1  0.1999542E-015  0.9000826E+02  0.7816164E-02  0.1186338E+00
        -11   -1    0    0    0    0  0.00000000000E+00  0.00000000000E+00  0.45593999997E+02  0.45594000000E+02  0.51100000000E-03 0. -1.
         11   -1    0    0    0    0 -0.00000000000E+00 -0.00000000000E+00 -0.45593999997E+02  0.45594000000E+02  0.51100000000E-03 0.  1.
    9900012    2    1    2    0    0 -0.23724781147E+00 -0.11512026036E+01  0.10113798321E+00  0.90008261533E+02  0.90000529784E+02 0.  0.
         12    1    1    2    0    0  0.23724781147E+00  0.11512026036E+01 -0.10113798321E+00  0.11797384669E+01  0.00000000000E+00 0. -1.
         11    1    3    3    0    0  0.72682994789E+00 -0.90143232681E+01 -0.66891205105E+01  0.11248583876E+02  0.51100000000E-03 0. -1.
        -11    1    3    3    0    0 -0.26100029030E+02 -0.25612676185E+02  0.19731980792E+01  0.36621226190E+02  0.51100000000E-03 0.  1.
         12    1    3    3    0    0  0.25135951270E+02  0.33475796850E+02  0.48170604145E+01  0.42138451467E+02  0.00000000000E+00 0. -1.
</event>
<event>
 7    1  0.1999542E-015  0.9000772E+02  0.7816164E-02  0.1186339E+00
        -11   -1    0    0    0    0  0.00000000000E+00  0.00000000000E+00  0.45593999997E+02  0.45594000000E+02  0.51100000000E-03 0.  1.
         11   -1    0    0    0    0 -0.00000000000E+00 -0.00000000000E+00 -0.45593999997E+02  0.45594000000E+02  0.51100000000E-03 0. -1.
    9900012    2    1    2    0    0  0.59132317339E+00  0.22255845784E+00  0.99692522950E+00  0.90007722373E+02  0.89999983509E+02 0.  0.
         12    1    1    2    0    0 -0.59132317339E+00 -0.22255845784E+00 -0.99692522950E+00  0.11802776266E+01  0.00000000000E+00 0. -1.
         11    1    3    3    0    0  0.60932106423E+01  0.18057669976E+01 -0.78652898686E+01  0.10111913536E+02  0.51100000000E-03 0. -1.
        -11    1    3    3    0    0  0.32537058663E+02 -0.74763876773E+01  0.21112731825E+02  0.39500683596E+02  0.51100000000E-03 0.  1.
         12    1    3    3    0    0 -0.38038946132E+02  0.58931791375E+01 -0.12250516727E+02  0.40395125242E+02  0.00000000000E+00 0. -1.
</event>
<event>
 7    1  0.1999542E-015  0.9000773E+02  0.7816164E-02  0.1186339E+00
        -11   -1    0    0    0    0  0.00000000000E+00  0.00000000000E+00  0.45593999997E+02  0.45594000000E+02  0.51100000000E-03 0.  1.
         11   -1    0    0    0    0 -0.00000000000E+00 -0.00000000000E+00 -0.45593999997E+02  0.45594000000E+02  0.51100000000E-03 0. -1.
    9900012    2    1    2    0    0  0.10324287186E+01 -0.56804548081E+00 -0.66640626471E-01  0.90007734903E+02  0.89999996203E+02 0.  0.
         12    1    1    2    0    0 -0.10324287186E+01  0.56804548081E+00  0.66640626471E-01  0.11802650975E+01  0.00000000000E+00 0. -1.
         11    1    3    3    0    0  0.20210528317E+01 -0.14665442024E+02 -0.35321563645E+02  0.38298468676E+02  0.51100000000E-03 0. -1.
        -11    1    3    3    0    0 -0.10709930421E+02 -0.22656911660E+01 -0.76114431289E+00  0.10973390862E+02  0.51100000000E-03 0.  1.
        -12    1    3    3    0    0  0.97213063080E+01  0.16363087710E+02  0.36016067331E+02  0.40735875365E+02  0.00000000000E+00 0.  1.
</event>
<event>
 7    1  0.1999542E-015  0.9000753E+02  0.7816164E-02  0.1186339E+00
        -11   -1    0    0    0    0  0.00000000000E+00  0.00000000000E+00  0.45593999997E+02  0.45594000000E+02  0.51100000000E-03 0.  1.
         11   -1    0    0    0    0 -0.00000000000E+00 -0.00000000000E+00 -0.45593999997E+02  0.45594000000E+02  0.51100000000E-03 0. -1.
    9900012    2    1    2    0    0  0.81265597783E-01  0.85775433035E+00  0.80694280403E+00  0.90007532602E+02  0.89999791232E+02 0.  0.
         12    1    1    2    0    0 -0.81265597783E-01 -0.85775433035E+00 -0.80694280403E+00  0.11804673979E+01  0.00000000000E+00 0. -1.
         11    1    3    3    0    0  0.71110288046E+01 -0.72338284012E+00 -0.62073964938E+01  0.94668783073E+01  0.51100000000E-03 0. -1.
        -11    1    3    3    0    0  0.12949086642E+02 -0.27102082806E+02 -0.20236879993E+02  0.36217855395E+02  0.51100000000E-03 0.  1.
         12    1    3    3    0    0 -0.19978849848E+02  0.28683219977E+02  0.27251219291E+02  0.44322798900E+02  0.00000000000E+00 0. -1.
</event>
<event>
 7    1  0.1999542E-015  0.9000772E+02  0.7816164E-02  0.1186339E+00
        -11   -1    0    0    0    0  0.00000000000E+00  0.00000000000E+00  0.45593999997E+02  0.45594000000E+02  0.51100000000E-03 0.  1.
         11   -1    0    0    0    0 -0.00000000000E+00 -0.00000000000E+00 -0.45593999997E+02  0.45594000000E+02  0.51100000000E-03 0. -1.
    9900012    2    1    2    0    0 -0.57000784169E+00 -0.99772798241E+00  0.26961370752E+00  0.90007719687E+02  0.89999980787E+02 0.  0.
         12    1    1    2    0    0  0.57000784169E+00  0.99772798241E+00 -0.26961370752E+00  0.11802803132E+01  0.00000000000E+00 0. -1.
         11    1    3    3    0    0 -0.34471879233E+01  0.41251254706E+01  0.34520326173E+01  0.63887631181E+01  0.51100000000E-03 0. -1.
        -11    1    3    3    0    0 -0.27410321453E+02 -0.24673605740E+01  0.28561846591E+02  0.39663492929E+02  0.51100000000E-03 0.  1.
         12    1    3    3    0    0  0.30287501534E+02 -0.26554928790E+01 -0.31744265501E+02  0.43955463640E+02  0.00000000000E+00 0. -1.
</event>
<event>
 7    1  0.1999542E-015  0.9000775E+02  0.7816164E-02  0.1186339E+00
        -11   -1    0    0    0    0  0.00000000000E+00  0.00000000000E+00  0.45593999997E+02  0.45594000000E+02  0.51100000000E-03 0. -1.
         11   -1    0    0    0    0 -0.00000000000E+00 -0.00000000000E+00 -0.45593999997E+02  0.45594000000E+02  0.51100000000E-03 0.  1.
    9900012    2    1    2    0    0 -0.77632376872E+00  0.55799441700E-01 -0.88723943041E+00  0.90007751730E+02  0.90000013253E+02 0.  0.
         12    1    1    2    0    0  0.77632376872E+00 -0.55799441700E-01  0.88723943041E+00  0.11802482698E+01  0.00000000000E+00 0. -1.
         11    1    3    3    0    0 -0.53365414635E+01  0.79376885357E+01 -0.19054229222E+01  0.97527540139E+01  0.51100000000E-03 0. -1.
        -11    1    3    3    0    0 -0.32116069696E+02 -0.46664902544E+01 -0.19743901101E+02  0.37987362306E+02  0.51100000000E-03 0.  1.
         12    1    3    3    0    0  0.36676287391E+02 -0.32153988396E+01  0.20762084593E+02  0.42267635410E+02  0.00000000000E+00 0. -1.
</event>
<event>
 7    1  0.1999542E-015  0.9000772E+02  0.7816164E-02  0.1186339E+00
        -11   -1    0    0    0    0  0.00000000000E+00  0.00000000000E+00  0.45593999997E+02  0.45594000000E+02  0.51100000000E-03 0.  1.
         11   -1    0    0    0    0 -0.00000000000E+00 -0.00000000000E+00 -0.45593999997E+02  0.45594000000E+02  0.51100000000E-03 0. -1.
    9900012    2    1    2    0    0 -0.24148130989E+00  0.10843881512E+01 -0.39855405453E+00  0.90007721973E+02  0.89999983104E+02 0.  0.
         12    1    1    2    0    0  0.24148130989E+00 -0.10843881512E+01  0.39855405453E+00  0.11802780265E+01  0.00000000000E+00 0. -1.
         11    1    3    3    0    0 -0.24916052824E+02  0.36228614963E+01 -0.28918789198E+02  0.38343593764E+02  0.51100000000E-03 0. -1.
        -11    1    3    3    0    0  0.87524856857E-01 -0.56292800078E+01 -0.66040848910E+01  0.86781559974E+01  0.51100000000E-03 0.  1.
        -12    1    3    3    0    0  0.24587046657E+02  0.30908066627E+01  0.35124320035E+02  0.42985972213E+02  0.00000000000E+00 0.  1.
</event>
<event>
 7    1  0.1999542E-015  0.9000772E+02  0.7816164E-02  0.1186339E+00
        -11   -1    0    0    0    0  0.00000000000E+00  0.00000000000E+00  0.45593999997E+02  0.45594000000E+02  0.51100000000E-03 0.  1.
         11   -1    0    0    0    0 -0.00000000000E+00 -0.00000000000E+00 -0.45593999997E+02  0.45594000000E+02  0.51100000000E-03 0. -1.
    9900012    2    1    2    0    0 -0.13357777132E+00 -0.19797524051E+00  0.11558652016E+01  0.90007719702E+02  0.89999980802E+02 0.  0.
         12    1    1    2    0    0  0.13357777132E+00  0.19797524051E+00 -0.11558652016E+01  0.11802802977E+01  0.00000000000E+00 0. -1.
         11    1    3    3    0    0  0.19973691282E+01  0.64651251508E+01  0.43902579832E+01  0.80660828207E+01  0.51100000000E-03 0. -1.
        -11    1    3    3    0    0  0.31088192658E+02 -0.27536044970E+02  0.50757477161E+01  0.41838650916E+02  0.51100000000E-03 0.  1.
         12    1    3    3    0    0 -0.33219139557E+02  0.20872944579E+02 -0.83101404977E+01  0.40102985966E+02  0.00000000000E+00 0. -1.
</event>
<event>
 7    1  0.1999542E-015  0.9000773E+02  0.7816164E-02  0.1186339E+00
        -11   -1    0    0    0    0  0.00000000000E+00  0.00000000000E+00  0.45593999997E+02  0.45594000000E+02  0.51100000000E-03 0.  1.
         11   -1    0    0    0    0 -0.00000000000E+00 -0.00000000000E+00 -0.45593999997E+02  0.45594000000E+02  0.51100000000E-03 0. -1.
    9900012    2    1    2    0    0  0.63570882271E+00  0.68313188629E+00  0.72266239535E+00  0.90007730616E+02  0.89999991860E+02 0.  0.
         12    1    1    2    0    0 -0.63570882271E+00 -0.68313188629E+00 -0.72266239535E+00  0.11802693841E+01  0.00000000000E+00 0. -1.
         11    1    3    3    0    0  0.76701050583E+01  0.56383171961E+01 -0.62186372885E+00  0.95398033087E+01  0.51100000000E-03 0. -1.
        -11    1    3    3    0    0  0.33286928491E+02 -0.11280144292E+02  0.13855936322E+02  0.37778939043E+02  0.51100000000E-03 0.  1.
         12    1    3    3    0    0 -0.40321324727E+02  0.63249589819E+01 -0.12511410198E+02  0.42688988264E+02  0.00000000000E+00 0. -1.
</event>
<event>
 7    1  0.1999542E-015  0.9000737E+02  0.7816164E-02  0.1186340E+00
        -11   -1    0    0    0    0  0.00000000000E+00  0.00000000000E+00  0.45593999997E+02  0.45594000000E+02  0.51100000000E-03 0. -1.
         11   -1    0    0    0    0 -0.00000000000E+00 -0.00000000000E+00 -0.45593999997E+02  0.45594000000E+02  0.51100000000E-03 0.  1.
    9900012    2    1    2    0    0  0.91191388419E+00 -0.66766199986E+00  0.34135938888E+00  0.90007370629E+02  0.89999627121E+02 0.  0.
         12    1    1    2    0    0 -0.91191388419E+00  0.66766199986E+00 -0.34135938888E+00  0.11806293706E+01  0.00000000000E+00 0. -1.
         11    1    3    3    0    0 -0.28259402576E+01  0.63310778055E+01 -0.57422315960E+01  0.90023168397E+01  0.51100000000E-03 0. -1.
        -11    1    3    3    0    0 -0.23139596698E+02 -0.10042742668E+02 -0.27872469863E+02  0.37592182594E+02  0.51100000000E-03 0.  1.
         12    1    3    3    0    0  0.26877450840E+02  0.30440028630E+01  0.33956060848E+02  0.43412871195E+02  0.00000000000E+00 0. -1.
</event>
<event>
 7    1  0.1999542E-015  0.9000718E+02  0.7816164E-02  0.1186340E+00
        -11   -1    0    0    0    0  0.00000000000E+00  0.00000000000E+00  0.45593999997E+02  0.45594000000E+02  0.51100000000E-03 0. -1.
         11   -1    0    0    0    0 -0.00000000000E+00 -0.00000000000E+00 -0.45593999997E+02  0.45594000000E+02  0.51100000000E-03 0.  1.
    9900012    2    1    2    0    0  0.59408443135E+00 -0.69705358731E-01 -0.10181050238E+01  0.90007181221E+02  0.89999435212E+02 0.  0.
         12    1    1    2    0    0 -0.59408443135E+00  0.69705358731E-01  0.10181050238E+01  0.11808187787E+01  0.00000000000E+00 0. -1.
         11    1    3    3    0    0  0.84683615506E+01  0.10820862228E+01 -0.43846727221E+01  0.95973649033E+01  0.51100000000E-03 0. -1.
        -11    1    3    3    0    0 -0.27581675506E+02  0.14441744240E+02 -0.26847319661E+02  0.41110720909E+02  0.51100000000E-03 0.  1.
         12    1    3    3    0    0  0.19707398387E+02 -0.15593535822E+02  0.30213887359E+02  0.39299095409E+02  0.00000000000E+00 0. -1.
</event>
<event>
 7    1  0.1999542E-015  0.9000766E+02  0.7816164E-02  0.1186339E+00
        -11   -1    0    0    0    0  0.00000000000E+00  0.00000000000E+00  0.45593999997E+02  0.45594000000E+02  0.51100000000E-03 0.  1.
         11   -1    0    0    0    0 -0.00000000000E+00 -0.00000000000E+00 -0.45593999997E+02  0.45594000000E+02  0.51100000000E-03 0. -1.
    9900012    2    1    2    0    0 -0.45084105540E+00  0.69206169643E+00  0.84320621606E+00  0.90007659468E+02  0.89999919773E+02 0.  0.
         12    1    1    2    0    0  0.45084105540E+00 -0.69206169643E+00 -0.84320621606E+00  0.11803405321E+01  0.00000000000E+00 0. -1.
         11    1    3    3    0    0  0.35966464450E+01  0.24597017834E+02 -0.26691018197E+02  0.36474094980E+02  0.51100000000E-03 0. -1.
        -11    1    3    3    0    0 -0.84567091304E+01  0.41878915254E+01 -0.47052210491E+01  0.10544831441E+02  0.51100000000E-03 0.  1.
        -12    1    3    3    0    0  0.44092216300E+01 -0.28092847663E+02  0.32239445462E+02  0.42988733046E+02  0.00000000000E+00 0.  1.
</event>
<event>
 7    1  0.1999542E-015  0.9000771E+02  0.7816164E-02  0.1186339E+00
        -11   -1    0    0    0    0  0.00000000000E+00  0.00000000000E+00  0.45593999997E+02  0.45594000000E+02  0.51100000000E-03 0. -1.
         11   -1    0    0    0    0 -0.00000000000E+00 -0.00000000000E+00 -0.45593999997E+02  0.45594000000E+02  0.51100000000E-03 0.  1.
    9900012    2    1    2    0    0 -0.91744411345E+00 -0.69801545045E+00  0.25330231891E+00  0.90007707098E+02  0.89999968031E+02 0.  0.
         12    1    1    2    0    0  0.91744411345E+00  0.69801545045E+00 -0.25330231891E+00  0.11802929023E+01  0.00000000000E+00 0. -1.
         11    1    3    3    0    0 -0.35325427941E+01 -0.43132407830E+01  0.78166162349E+01  0.96011662973E+01  0.51100000000E-03 0. -1.
        -11    1    3    3    0    0 -0.12289952331E+02  0.39385087268E+02 -0.26153098279E+01  0.41340874122E+02  0.51100000000E-03 0.  1.
         12    1    3    3    0    0  0.14905051011E+02 -0.35769861936E+02 -0.49480040881E+01  0.39065666678E+02  0.00000000000E+00 0. -1.
</event>
<event>
 7    1  0.1999542E-015  0.9000775E+02  0.7816164E-02  0.1186339E+00
        -11   -1    0    0    0    0  0.00000000000E+00  0.00000000000E+00  0.45593999997E+02  0.45594000000E+02  0.51100000000E-03 0.  1.
         11   -1    0    0    0    0 -0.00000000000E+00 -0.00000000000E+00 -0.45593999997E+02  0.45594000000E+02  0.51100000000E-03 0. -1.
    9900012    2    1    2    0    0  0.35422054412E+00  0.94429669814E+00  0.61304555489E+00  0.90007748628E+02  0.90000010110E+02 0.  0.
         12    1    1    2    0    0 -0.35422054412E+00 -0.94429669814E+00 -0.61304555489E+00  0.11802513717E+01  0.00000000000E+00 0. -1.
         11    1    3    3    0    0 -0.18953617133E+02 -0.30887431745E+02 -0.12967966181E+02  0.38489494533E+02  0.51100000000E-03 0. -1.
        -11    1    3    3    0    0 -0.32877402743E+01 -0.28154440237E+01  0.88915979967E+01  0.98892100978E+01  0.51100000000E-03 0.  1.
        -12    1    3    3    0    0  0.22595577952E+02  0.34647172467E+02  0.46894137395E+01  0.41629043998E+02  0.00000000000E+00 0.  1.
</event>
<event>
 7    1  0.1999542E-015  0.9000782E+02  0.7816164E-02  0.1186339E+00
        -11   -1    0    0    0    0  0.00000000000E+00  0.00000000000E+00  0.45593999997E+02  0.45594000000E+02  0.51100000000E-03 0.  1.
         11   -1    0    0    0    0 -0.00000000000E+00 -0.00000000000E+00 -0.45593999997E+02  0.45594000000E+02  0.51100000000E-03 0. -1.
    9900012    2    1    2    0    0 -0.97182063548E-01  0.10224509657E+00  0.11717160083E+01  0.90007823396E+02  0.90000085864E+02 0.  0.
         12    1    1    2    0    0  0.97182063548E-01 -0.10224509657E+00 -0.11717160083E+01  0.11801766043E+01  0.00000000000E+00 0. -1.
         11    1    3    3    0    0  0.32421451640E+02 -0.26751845244E+02  0.74479256699E+00  0.42040057880E+02  0.51100000000E-03 0. -1.
        -11    1    3    3    0    0 -0.19459565309E+01  0.68001086239E+01  0.79477479735E+01  0.10639310233E+02  0.51100000000E-03 0.  1.
        -12    1    3    3    0    0 -0.30572677172E+02  0.20053981716E+02 -0.75208245321E+01  0.37328455283E+02  0.00000000000E+00 0.  1.
</event>
<event>
 7    1  0.1999542E-015  0.9000777E+02  0.7816164E-02  0.1186339E+00
        -11   -1    0    0    0    0  0.00000000000E+00  0.00000000000E+00  0.45593999997E+02  0.45594000000E+02  0.51100000000E-03 0.  1.
         11   -1    0    0    0    0 -0.00000000000E+00 -0.00000000000E+00 -0.45593999997E+02  0.45594000000E+02  0.51100000000E-03 0. -1.
    9900012    2    1    2    0    0 -0.76320639245E+00 -0.80392485400E+00  0.40516782296E+00  0.90007771152E+02  0.90000032931E+02 0.  0.
         12    1    1    2    0    0  0.76320639245E+00  0.80392485400E+00 -0.40516782296E+00  0.11802288478E+01  0.00000000000E+00 0. -1.
         11    1    3    3    0    0  0.56114109965E+00  0.84359361657E+01  0.23012932344E+01  0.87621828979E+01  0.51100000000E-03 0. -1.
        -11    1    3    3    0    0  0.33866729918E+02 -0.63368823084E+01 -0.21741116559E+02  0.40740491188E+02  0.51100000000E-03 0.  1.
         12    1    3    3    0    0 -0.35191077410E+02 -0.29029787113E+01  0.19844991147E+02  0.40505097066E+02  0.00000000000E+00 0. -1.
</event>
<event>
 7    1  0.2257722E-015  0.9000760E+02  0.7816164E-02  0.1186339E+00
        -11   -1    0    0    0    0  0.00000000000E+00  0.00000000000E+00  0.45593999997E+02  0.45594000000E+02  0.51100000000E-03 0.  1.
         11   -1    0    0    0    0 -0.00000000000E+00 -0.00000000000E+00 -0.45593999997E+02  0.45594000000E+02  0.51100000000E-03 0. -1.
    9900012    2    1    2    0    0 -0.10555902451E+01  0.31805759803E+00  0.42179956626E+00  0.90007599104E+02  0.89999858612E+02 0.  0.
         12    1    1    2    0    0  0.10555902451E+01 -0.31805759803E+00 -0.42179956626E+00  0.11804008960E+01  0.00000000000E+00 0. -1.
         11    1    3    3    0    0  0.18927627653E+01  0.31458713607E+02 -0.21450332956E+02  0.38122827766E+02  0.51100000000E-03 0. -1.
        -11    1    3    3    0    0 -0.70536046955E+01  0.62344516233E+01  0.35824427618E+01  0.10072518188E+02  0.51100000000E-03 0.  1.
        -12    1    3    3    0    0  0.41052516851E+01 -0.37375107632E+02  0.18289689761E+02  0.41812253150E+02  0.00000000000E+00 0.  1.
</event>
<event>
 7    1  0.1999542E-015  0.9000786E+02  0.7816164E-02  0.1186339E+00
        -11   -1    0    0    0    0  0.00000000000E+00  0.00000000000E+00  0.45593999997E+02  0.45594000000E+02  0.51100000000E-03 0. -1.
         11   -1    0    0    0    0 -0.00000000000E+00 -0.00000000000E+00 -0.45593999997E+02  0.45594000000E+02  0.51100000000E-03 0.  1.
    9900012    2    1    2    0    0  0.21170930092E+00  0.10098921221E+01 -0.57273460224E+00  0.90007861088E+02  0.90000124055E+02 0.  0.
         12    1    1    2    0    0 -0.21170930092E+00 -0.10098921221E+01  0.57273460224E+00  0.11801389118E+01  0.00000000000E+00 0. -1.
         11    1    3    3    0    0  0.88256830408E+01 -0.46927668470E-01 -0.42118303146E+01  0.97792841354E+01  0.51100000000E-03 0. -1.
        -11    1    3    3    0    0  0.24512320683E+02 -0.23258164388E+02  0.15902471678E+02  0.37345477393E+02  0.51100000000E-03 0.  1.
         12    1    3    3    0    0 -0.33126294423E+02  0.24314984178E+02 -0.12263375966E+02  0.42883099560E+02  0.00000000000E+00 0. -1.
</event>
<event>
 7    1  0.1999542E-015  0.9000772E+02  0.7816164E-02  0.1186339E+00
        -11   -1    0    0    0    0  0.00000000000E+00  0.00000000000E+00  0.45593999997E+02  0.45594000000E+02  0.51100000000E-03 0.  1.
         11   -1    0    0    0    0 -0.00000000000E+00 -0.00000000000E+00 -0.45593999997E+02  0.45594000000E+02  0.51100000000E-03 0. -1.
    9900012    2    1    2    0    0 -0.90725754734E+00 -0.57372467813E+00  0.49070634381E+00  0.90007716568E+02  0.89999977627E+02 0.  0.
         12    1    1    2    0    0  0.90725754734E+00  0.57372467813E+00 -0.49070634381E+00  0.11802834318E+01  0.00000000000E+00 0. -1.
         11    1    3    3    0    0 -0.31005320012E+02  0.20482193717E+01  0.12095802803E+02  0.33344167667E+02  0.51100000000E-03 0. -1.
        -11    1    3    3    0    0 -0.23561165476E+01  0.56474350629E+01  0.13490382724E+02  0.14813346492E+02  0.51100000000E-03 0.  1.
        -12    1    3    3    0    0  0.32454179013E+02 -0.82693791127E+01 -0.25095479183E+02  0.41850202410E+02  0.00000000000E+00 0.  1.
</event>
<event>
 7    1  0.1999542E-015  0.9000766E+02  0.7816164E-02  0.1186339E+00
        -11   -1    0    0    0    0  0.00000000000E+00  0.00000000000E+00  0.45593999997E+02  0.45594000000E+02  0.51100000000E-03 0.  1.
         11   -1    0    0    0    0 -0.00000000000E+00 -0.00000000000E+00 -0.45593999997E+02  0.45594000000E+02  0.51100000000E-03 0. -1.
    9900012    2    1    2    0    0 -0.55654343942E+00  0.81185152724E+00  0.65142578666E+00  0.90007661465E+02  0.89999921796E+02 0.  0.
         12    1    1    2    0    0  0.55654343942E+00 -0.81185152724E+00 -0.65142578666E+00  0.11803385352E+01  0.00000000000E+00 0. -1.
         11    1    3    3    0    0 -0.24998150054E+02 -0.28293559668E+02  0.15566824493E+02  0.40838205762E+02  0.51100000000E-03 0. -1.
        -11    1    3    3    0    0  0.74466470484E+01 -0.43894579326E+01  0.28921292596E+00  0.86489038371E+01  0.51100000000E-03 0.  1.
        -12    1    3    3    0    0  0.16994959567E+02  0.33494869128E+02 -0.15204611633E+02  0.40520551865E+02  0.00000000000E+00 0.  1.
</event>
<event>
 7    1  0.1999542E-015  0.9000755E+02  0.7816164E-02  0.1186339E+00
        -11   -1    0    0    0    0  0.00000000000E+00  0.00000000000E+00  0.45593999997E+02  0.45594000000E+02  0.51100000000E-03 0.  1.
         11   -1    0    0    0    0 -0.00000000000E+00 -0.00000000000E+00 -0.45593999997E+02  0.45594000000E+02  0.51100000000E-03 0. -1.
    9900012    2    1    2    0    0  0.69255594843E+00  0.94610079457E+00  0.13686020298E+00  0.90007546202E+02  0.89999805011E+02 0.  0.
         12    1    1    2    0    0 -0.69255594843E+00 -0.94610079457E+00 -0.13686020298E+00  0.11804537985E+01  0.00000000000E+00 0. -1.
         11    1    3    3    0    0  0.15304844594E+00  0.82379500740E+01 -0.56137719163E+01  0.99700391492E+01  0.51100000000E-03 0. -1.
        -11    1    3    3    0    0  0.33545198375E+02  0.18164644632E+02  0.25605374198E+01  0.38233375482E+02  0.51100000000E-03 0.  1.
         12    1    3    3    0    0 -0.33005690872E+02 -0.25456493911E+02  0.31900946995E+01  0.41804131571E+02  0.00000000000E+00 0. -1.
</event>
<event>
 7    1  0.1999542E-015  0.9000750E+02  0.7816164E-02  0.1186340E+00
        -11   -1    0    0    0    0  0.00000000000E+00  0.00000000000E+00  0.45593999997E+02  0.45594000000E+02  0.51100000000E-03 0. -1.
         11   -1    0    0    0    0 -0.00000000000E+00 -0.00000000000E+00 -0.45593999997E+02  0.45594000000E+02  0.51100000000E-03 0.  1.
    9900012    2    1    2    0    0  0.60623644566E+00  0.56870344924E+00  0.83822892362E+00  0.90007502660E+02  0.89999760895E+02 0.  0.
         12    1    1    2    0    0 -0.60623644566E+00 -0.56870344924E+00 -0.83822892362E+00  0.11804973399E+01  0.00000000000E+00 0. -1.
         11    1    3    3    0    0  0.81057086299E+01  0.29828543408E+01 -0.90859801089E+01  0.12536146426E+02  0.51100000000E-03 0. -1.
        -11    1    3    3    0    0  0.29845041754E+02 -0.14122466143E+02 -0.86770672597E+01  0.34138864418E+02  0.51100000000E-03 0.  1.
         12    1    3    3    0    0 -0.37344513938E+02  0.11708315252E+02  0.18601276292E+02  0.43332491816E+02  0.00000000000E+00 0. -1.
</event>
<event>
 7    1  0.1999542E-015  0.9000772E+02  0.7816164E-02  0.1186339E+00
        -11   -1    0    0    0    0  0.00000000000E+00  0.00000000000E+00  0.45593999997E+02  0.45594000000E+02  0.51100000000E-03 0. -1.
         11   -1    0    0    0    0 -0.00000000000E+00 -0.00000000000E+00 -0.45593999997E+02  0.45594000000E+02  0.51100000000E-03 0.  1.
    9900012    2    1    2    0    0 -0.39622493696E+00 -0.11111586603E+01 -0.37227268869E-01  0.90007723067E+02  0.89999984211E+02 0.  0.
         12    1    1    2    0    0  0.39622493696E+00  0.11111586603E+01  0.37227268869E-01  0.11802769330E+01  0.00000000000E+00 0. -1.
         11    1    3    3    0    0  0.32253181902E+01 -0.59055447489E+01 -0.49764819479E+01  0.83692000244E+01  0.51100000000E-03 0. -1.
        -11    1    3    3    0    0 -0.38035493356E+02  0.13560005585E+02 -0.12231870460E+02  0.42192311640E+02  0.51100000000E-03 0.  1.
         12    1    3    3    0    0  0.34413950229E+02 -0.87656194966E+01  0.17171125139E+02  0.39446211403E+02  0.00000000000E+00 0. -1.
</event>
<event>
 7    1  0.1999542E-015  0.9000778E+02  0.7816164E-02  0.1186339E+00
        -11   -1    0    0    0    0  0.00000000000E+00  0.00000000000E+00  0.45593999997E+02  0.45594000000E+02  0.51100000000E-03 0.  1.
         11   -1    0    0    0    0 -0.00000000000E+00 -0.00000000000E+00 -0.45593999997E+02  0.45594000000E+02  0.51100000000E-03 0. -1.
    9900012    2    1    2    0    0 -0.65618126920E+00 -0.71615113874E+00  0.67043416715E+00  0.90007776172E+02  0.90000038018E+02 0.  0.
         12    1    1    2    0    0  0.65618126920E+00  0.71615113874E+00 -0.67043416715E+00  0.11802238279E+01  0.00000000000E+00 0. -1.
         11    1    3    3    0    0  0.64713394009E+01  0.63684100551E+00  0.66846935085E+01  0.93257132527E+01  0.51100000000E-03 0. -1.
        -11    1    3    3    0    0 -0.34270811052E+02 -0.83165331336E+01  0.21587986076E+02  0.41348450474E+02  0.51100000000E-03 0.  1.
         12    1    3    3    0    0  0.27143290382E+02  0.69635409894E+01 -0.27602245417E+02  0.39333612445E+02  0.00000000000E+00 0. -1.
</event>
<event>
 7    1  0.1999542E-015  0.9000772E+02  0.7816164E-02  0.1186339E+00
        -11   -1    0    0    0    0  0.00000000000E+00  0.00000000000E+00  0.45593999997E+02  0.45594000000E+02  0.51100000000E-03 0.  1.
         11   -1    0    0    0    0 -0.00000000000E+00 -0.00000000000E+00 -0.45593999997E+02  0.45594000000E+02  0.51100000000E-03 0. -1.
    9900012    2    1    2    0    0 -0.10247528974E+01 -0.58194932251E+00  0.65361874248E-01  0.90007722198E+02  0.89999983331E+02 0.  0.
         12    1    1    2    0    0  0.10247528974E+01  0.58194932251E+00 -0.65361874248E-01  0.11802778018E+01  0.00000000000E+00 0. -1.
         11    1    3    3    0    0 -0.38775572225E+01 -0.80385475262E+01 -0.61919094200E+00  0.89463452889E+01  0.51100000000E-03 0. -1.
        -11    1    3    3    0    0 -0.12990802137E+02 -0.14571412614E+02  0.33321149601E+02  0.38618467301E+02  0.51100000000E-03 0.  1.
         12    1    3    3    0    0  0.15843606462E+02  0.22028010818E+02 -0.32636596785E+02  0.42442909608E+02  0.00000000000E+00 0. -1.
</event>
<event>
 7    1  0.1999542E-015  0.9000772E+02  0.7816164E-02  0.1186339E+00
        -11   -1    0    0    0    0  0.00000000000E+00  0.00000000000E+00  0.45593999997E+02  0.45594000000E+02  0.51100000000E-03 0. -1.
         11   -1    0    0    0    0 -0.00000000000E+00 -0.00000000000E+00 -0.45593999997E+02  0.45594000000E+02  0.51100000000E-03 0.  1.
    9900012    2    1    2    0    0  0.25434694816E+00 -0.92699044561E+00 -0.68488600775E+00  0.90007715077E+02  0.89999976116E+02 0.  0.
         12    1    1    2    0    0 -0.25434694816E+00  0.92699044561E+00  0.68488600775E+00  0.11802849232E+01  0.00000000000E+00 0. -1.
         11    1    3    3    0    0  0.49358352180E+01  0.69585724874E+01  0.53115144403E+01  0.10049695830E+02  0.51100000000E-03 0. -1.
        -11    1    3    3    0    0  0.28975747936E+02  0.20199178959E+02  0.20883582972E+01  0.35383075611E+02  0.51100000000E-03 0.  1.
         12    1    3    3    0    0 -0.33657236206E+02 -0.28084741892E+02 -0.80847587453E+01  0.44574943636E+02  0.00000000000E+00 0. -1.
</event>
<event>
 7    1  0.1999542E-015  0.9000769E+02  0.7816164E-02  0.1186339E+00
        -11   -1    0    0    0    0  0.00000000000E+00  0.00000000000E+00  0.45593999997E+02  0.45594000000E+02  0.51100000000E-03 0. -1.
         11   -1    0    0    0    0 -0.00000000000E+00 -0.00000000000E+00 -0.45593999997E+02  0.45594000000E+02  0.51100000000E-03 0.  1.
    9900012    2    1    2    0    0  0.45704063763E+00  0.41815847913E+00 -0.10046852003E+01  0.90007688596E+02  0.89999949286E+02 0.  0.
         12    1    1    2    0    0 -0.45704063763E+00 -0.41815847913E+00  0.10046852003E+01  0.11803114037E+01  0.00000000000E+00 0. -1.
         11    1    3    3    0    0  0.80931111394E+01 -0.31521543255E+01  0.40215847298E+01  0.95711895189E+01  0.51100000000E-03 0. -1.
        -11    1    3    3    0    0  0.25488416618E+02  0.12088617173E+02  0.22857865032E+02  0.36308071292E+02  0.51100000000E-03 0.  1.
         12    1    3    3    0    0 -0.33124487120E+02 -0.85183043685E+01 -0.27884134962E+02  0.44128427786E+02  0.00000000000E+00 0. -1.
</event>
<event>
 7    1  0.1999542E-015  0.9000752E+02  0.7816164E-02  0.1186339E+00
        -11   -1    0    0    0    0  0.00000000000E+00  0.00000000000E+00  0.45593999997E+02  0.45594000000E+02  0.51100000000E-03 0. -1.
         11   -1    0    0    0    0 -0.00000000000E+00 -0.00000000000E+00 -0.45593999997E+02  0.45594000000E+02  0.51100000000E-03 0.  1.
    9900012    2    1    2    0    0 -0.24465705938E+00 -0.89108957139E+00 -0.73459753578E+00  0.90007520758E+02  0.89999779232E+02 0.  0.
         12    1    1    2    0    0  0.24465705938E+00  0.89108957139E+00  0.73459753578E+00  0.11804792419E+01  0.00000000000E+00 0. -1.
         11    1    3    3    0    0  0.16528365574E+02 -0.60880084029E+01 -0.35503883883E+01  0.17968193366E+02  0.51100000000E-03 0. -1.
        -11    1    3    3    0    0 -0.97294620188E+00  0.29924116602E+02  0.21847711380E+02  0.37063754148E+02  0.51100000000E-03 0.  1.
         12    1    3    3    0    0 -0.15800076432E+02 -0.24727197770E+02 -0.19031920528E+02  0.34975573245E+02  0.00000000000E+00 0. -1.
</event>
<event>
 7    1  0.1999542E-015  0.9000772E+02  0.7816164E-02  0.1186339E+00
        -11   -1    0    0    0    0  0.00000000000E+00  0.00000000000E+00  0.45593999997E+02  0.45594000000E+02  0.51100000000E-03 0. -1.
         11   -1    0    0    0    0 -0.00000000000E+00 -0.00000000000E+00 -0.45593999997E+02  0.45594000000E+02  0.51100000000E-03 0.  1.
    9900012    2    1    2    0    0  0.11281213110E+01 -0.30130721836E+00  0.17212536615E+00  0.90007715766E+02  0.89999976814E+02 0.  0.
         12    1    1    2    0    0 -0.11281213110E+01  0.30130721836E+00 -0.17212536615E+00  0.11802842343E+01  0.00000000000E+00 0. -1.
         11    1    3    3    0    0 -0.98134377584E+01  0.16616907631E+02 -0.43367423990E+01  0.19779598448E+02  0.51100000000E-03 0. -1.
        -11    1    3    3    0    0  0.14305511874E+02 -0.17502211999E+02 -0.28874665244E+02  0.36670442975E+02  0.51100000000E-03 0.  1.
         12    1    3    3    0    0 -0.33639528041E+01  0.58399714958E+00  0.33383533009E+02  0.33557674343E+02  0.00000000000E+00 0. -1.
</event>
<event>
 7    1  0.1999542E-015  0.9000772E+02  0.7816164E-02  0.1186339E+00
        -11   -1    0    0    0    0  0.00000000000E+00  0.00000000000E+00  0.45593999997E+02  0.45594000000E+02  0.51100000000E-03 0. -1.
         11   -1    0    0    0    0 -0.00000000000E+00 -0.00000000000E+00 -0.45593999997E+02  0.45594000000E+02  0.51100000000E-03 0.  1.
    9900012    2    1    2    0    0  0.10759340386E+01  0.48919220315E-01 -0.48273446046E+00  0.90007720497E+02  0.89999981608E+02 0.  0.
         12    1    1    2    0    0 -0.10759340386E+01 -0.48919220315E-01  0.48273446046E+00  0.11802795028E+01  0.00000000000E+00 0. -1.
         11    1    3    3    0    0 -0.55471134851E+01 -0.10323014205E+01 -0.56746240431E+01  0.80023416905E+01  0.51100000000E-03 0. -1.
        -11    1    3    3    0    0 -0.72723549437E+01  0.33351887890E+02  0.24402901498E+02  0.41961138856E+02  0.51100000000E-03 0.  1.
         12    1    3    3    0    0  0.13895402467E+02 -0.32270667249E+02 -0.19211011916E+02  0.40044239951E+02  0.00000000000E+00 0. -1.
</event>
<event>
 7    1  0.2736718E-015  0.9000770E+02  0.7816164E-02  0.1186339E+00
        -11   -1    0    0    0    0  0.00000000000E+00  0.00000000000E+00  0.45593999997E+02  0.45594000000E+02  0.51100000000E-03 0.  1.
         11   -1    0    0    0    0 -0.00000000000E+00 -0.00000000000E+00 -0.45593999997E+02  0.45594000000E+02  0.51100000000E-03 0. -1.
    9900012    2    1    2    0    0  0.50112768812E+00 -0.10666282679E+01  0.65533753832E-01  0.90007695169E+02  0.89999955945E+02 0.  0.
         12    1    1    2    0    0 -0.50112768812E+00  0.10666282679E+01 -0.65533753832E-01  0.11803048312E+01  0.00000000000E+00 0. -1.
         11    1    3    3    0    0  0.94235926195E+01  0.34218977631E+02 -0.19378217577E+02  0.40438321487E+02  0.51100000000E-03 0. -1.
        -11    1    3    3    0    0 -0.30123316207E+01  0.27006595827E+01  0.87912634748E+01  0.96775005926E+01  0.51100000000E-03 0.  1.
        -12    1    3    3    0    0 -0.59101333106E+01 -0.37986265482E+02  0.10652487856E+02  0.39891873089E+02  0.00000000000E+00 0.  1.
</event>
<event>
 7    1  0.1999542E-015  0.9000778E+02  0.7816164E-02  0.1186339E+00
        -11   -1    0    0    0    0  0.00000000000E+00  0.00000000000E+00  0.45593999997E+02  0.45594000000E+02  0.51100000000E-03 0.  1.
         11   -1    0    0    0    0 -0.00000000000E+00 -0.00000000000E+00 -0.45593999997E+02  0.45594000000E+02  0.51100000000E-03 0. -1.
    9900012    2    1    2    0    0  0.60159934449E+00  0.88537967668E+00  0.49708666033E+00  0.90007782185E+02  0.90000044110E+02 0.  0.
         12    1    1    2    0    0 -0.60159934449E+00 -0.88537967668E+00 -0.49708666033E+00  0.11802178151E+01  0.00000000000E+00 0. -1.
         11    1    3    3    0    0 -0.28565177826E+02  0.23967658205E+02 -0.16864745768E+02  0.40924780685E+02  0.51100000000E-03 0. -1.
        -11    1    3    3    0    0  0.87173787633E+01  0.24152643906E+00 -0.57105470189E+01  0.10424076700E+02  0.51100000000E-03 0.  1.
        -12    1    3    3    0    0  0.20449398407E+02 -0.23323804967E+02  0.23072379447E+02  0.38658924800E+02  0.00000000000E+00 0.  1.
</event>
<event>
 7    1  0.1999542E-015  0.9000768E+02  0.7816164E-02  0.1186339E+00
        -11   -1    0    0    0    0  0.00000000000E+00  0.00000000000E+00  0.45593999997E+02  0.45594000000E+02  0.51100000000E-03 0. -1.
         11   -1    0    0    0    0 -0.00000000000E+00 -0.00000000000E+00 -0.45593999997E+02  0.45594000000E+02  0.51100000000E-03 0.  1.
    9900012    2    1    2    0    0 -0.44251364422E+00 -0.70368165800E+00  0.83794893942E+00  0.90007684523E+02  0.89999945158E+02 0.  0.
         12    1    1    2    0    0  0.44251364422E+00  0.70368165800E+00 -0.83794893942E+00  0.11803154774E+01  0.00000000000E+00 0. -1.
         11    1    3    3    0    0 -0.15052585446E+01 -0.91511762330E+01 -0.28872679484E+01  0.97131944385E+01  0.51100000000E-03 0. -1.
        -11    1    3    3    0    0  0.11954333892E+02 -0.32280992117E+02  0.13568523207E+02  0.37000991516E+02  0.51100000000E-03 0.  1.
         12    1    3    3    0    0 -0.10891588992E+02  0.40728486692E+02 -0.98433063188E+01  0.43293498568E+02  0.00000000000E+00 0. -1.
</event>
<event>
 7    1  0.1999542E-015  0.9000775E+02  0.7816164E-02  0.1186339E+00
        -11   -1    0    0    0    0  0.00000000000E+00  0.00000000000E+00  0.45593999997E+02  0.45594000000E+02  0.51100000000E-03 0.  1.
         11   -1    0    0    0    0 -0.00000000000E+00 -0.00000000000E+00 -0.45593999997E+02  0.45594000000E+02  0.51100000000E-03 0. -1.
    9900012    2    1    2    0    0  0.20544036019E+00 -0.10197020639E+01  0.55766141153E+00  0.90007752445E+02  0.90000013977E+02 0.  0.
         12    1    1    2    0    0 -0.20544036019E+00  0.10197020639E+01 -0.55766141153E+00  0.11802475548E+01  0.00000000000E+00 0. -1.
         11    1    3    3    0    0 -0.19975376225E+02 -0.20954414639E+02  0.25336459360E+02  0.38471279175E+02  0.51100000000E-03 0. -1.
        -11    1    3    3    0    0 -0.30043282485E+01 -0.81729894741E+01 -0.57010420401E+01  0.10407959731E+02  0.51100000000E-03 0.  1.
        -12    1    3    3    0    0  0.23185144833E+02  0.28107702049E+02 -0.19077755908E+02  0.41128513539E+02  0.00000000000E+00 0.  1.
</event>
<event>
 7    1  0.1999542E-015  0.9000763E+02  0.7816164E-02  0.1186339E+00
        -11   -1    0    0    0    0  0.00000000000E+00  0.00000000000E+00  0.45593999997E+02  0.45594000000E+02  0.51100000000E-03 0.  1.
         11   -1    0    0    0    0 -0.00000000000E+00 -0.00000000000E+00 -0.45593999997E+02  0.45594000000E+02  0.51100000000E-03 0. -1.
    9900012    2    1    2    0    0  0.92631717820E+00  0.72813330394E+00 -0.70970901832E-01  0.90007627816E+02  0.89999887704E+02 0.  0.
         12    1    1    2    0    0 -0.92631717820E+00 -0.72813330394E+00  0.70970901832E-01  0.11803721836E+01  0.00000000000E+00 0. -1.
         11    1    3    3    0    0 -0.59235420013E+01 -0.49942144280E+01  0.53202555393E+01  0.93987045309E+01  0.51100000000E-03 0. -1.
        -11    1    3    3    0    0 -0.10452658507E+02 -0.70118048005E+01  0.33716287097E+02  0.35989046838E+02  0.51100000000E-03 0.  1.
         12    1    3    3    0    0  0.17302517686E+02  0.12734152532E+02 -0.39107513539E+02  0.44619876447E+02  0.00000000000E+00 0. -1.
</event>
<event>
 7    1  0.1999542E-015  0.9000768E+02  0.7816164E-02  0.1186339E+00
        -11   -1    0    0    0    0  0.00000000000E+00  0.00000000000E+00  0.45593999997E+02  0.45594000000E+02  0.51100000000E-03 0. -1.
         11   -1    0    0    0    0 -0.00000000000E+00 -0.00000000000E+00 -0.45593999997E+02  0.45594000000E+02  0.51100000000E-03 0.  1.
    9900012    2    1    2    0    0  0.64446070244E+00 -0.91826747909E+00 -0.36689869713E+00  0.90007678258E+02  0.89999938811E+02 0.  0.
         12    1    1    2    0    0 -0.64446070244E+00  0.91826747909E+00  0.36689869713E+00  0.11803217418E+01  0.00000000000E+00 0. -1.
         11    1    3    3    0    0 -0.25198062028E+02 -0.17527531034E+02  0.22989711945E+02  0.38349491909E+02  0.51100000000E-03 0. -1.
        -11    1    3    3    0    0  0.17791654911E+01  0.27398479208E+01  0.86704785352E+01  0.92654948472E+01  0.51100000000E-03 0.  1.
        -12    1    3    3    0    0  0.24063357239E+02  0.13869415635E+02 -0.32027089177E+02  0.42392691502E+02  0.00000000000E+00 0.  1.
</event>
<event>
 7    1  0.1999542E-015  0.9000777E+02  0.7816164E-02  0.1186339E+00
        -11   -1    0    0    0    0  0.00000000000E+00  0.00000000000E+00  0.45593999997E+02  0.45594000000E+02  0.51100000000E-03 0. -1.
         11   -1    0    0    0    0 -0.00000000000E+00 -0.00000000000E+00 -0.45593999997E+02  0.45594000000E+02  0.51100000000E-03 0.  1.
    9900012    2    1    2    0    0 -0.64198024351E+00 -0.84181908438E+00 -0.52167888421E+00  0.90007768302E+02  0.90000030043E+02 0.  0.
         12    1    1    2    0    0  0.64198024351E+00  0.84181908438E+00  0.52167888421E+00  0.11802316985E+01  0.00000000000E+00 0. -1.
         11    1    3    3    0    0  0.44400735366E+01  0.67799291931E+01 -0.61003199648E+01  0.10143746685E+02  0.51100000000E-03 0. -1.
        -11    1    3    3    0    0  0.85463608083E+01  0.38824016046E+01 -0.34628849676E+02  0.35878552861E+02  0.51100000000E-03 0.  1.
         12    1    3    3    0    0 -0.13628414588E+02 -0.11504149882E+02  0.40207490756E+02  0.43985468755E+02  0.00000000000E+00 0. -1.
</event>
<event>
 7    1  0.1999542E-015  0.9000756E+02  0.7816164E-02  0.1186339E+00
        -11   -1    0    0    0    0  0.00000000000E+00  0.00000000000E+00  0.45593999997E+02  0.45594000000E+02  0.51100000000E-03 0. -1.
         11   -1    0    0    0    0 -0.00000000000E+00 -0.00000000000E+00 -0.45593999997E+02  0.45594000000E+02  0.51100000000E-03 0.  1.
    9900012    2    1    2    0    0 -0.31721192668E+00  0.11368647160E+01 -0.18824671399E-01  0.90007559761E+02  0.89999818750E+02 0.  0.
         12    1    1    2    0    0  0.31721192668E+00 -0.11368647160E+01  0.18824671399E-01  0.11804402387E+01  0.00000000000E+00 0. -1.
         11    1    3    3    0    0 -0.39670905932E+01  0.10796727328E+02  0.12131541935E+02  0.16717698369E+02  0.51100000000E-03 0. -1.
        -11    1    3    3    0    0 -0.82246851974E+01  0.29642032019E+02 -0.92884396652E+01  0.32133636901E+02  0.51100000000E-03 0.  1.
         12    1    3    3    0    0  0.11874563864E+02 -0.39301894631E+02 -0.28619269408E+01  0.41156224491E+02  0.00000000000E+00 0. -1.
</event>
<event>
 7    1  0.1999542E-015  0.9000781E+02  0.7816164E-02  0.1186339E+00
        -11   -1    0    0    0    0  0.00000000000E+00  0.00000000000E+00  0.45593999997E+02  0.45594000000E+02  0.51100000000E-03 0.  1.
         11   -1    0    0    0    0 -0.00000000000E+00 -0.00000000000E+00 -0.45593999997E+02  0.45594000000E+02  0.51100000000E-03 0. -1.
    9900012    2    1    2    0    0 -0.73793665795E+00 -0.66038476938E+00 -0.64201970082E+00  0.90007810248E+02  0.90000072543E+02 0.  0.
         12    1    1    2    0    0  0.73793665795E+00  0.66038476938E+00  0.64201970082E+00  0.11801897521E+01  0.00000000000E+00 0. -1.
         11    1    3    3    0    0  0.51759926869E+01 -0.85157587185E+01  0.17327442409E+01  0.10114912244E+02  0.51100000000E-03 0. -1.
        -11    1    3    3    0    0 -0.30266381203E+02 -0.24782565085E+02 -0.32740534837E+00  0.39119516329E+02  0.51100000000E-03 0.  1.
         12    1    3    3    0    0  0.24352451858E+02  0.32637939035E+02 -0.20473585933E+01  0.40773381674E+02  0.00000000000E+00 0. -1.
</event>
<event>
 7    1  0.1999542E-015  0.9000779E+02  0.7816164E-02  0.1186339E+00
        -11   -1    0    0    0    0  0.00000000000E+00  0.00000000000E+00  0.45593999997E+02  0.45594000000E+02  0.51100000000E-03 0.  1.
         11   -1    0    0    0    0 -0.00000000000E+00 -0.00000000000E+00 -0.45593999997E+02  0.45594000000E+02  0.51100000000E-03 0. -1.
    9900012    2    1    2    0    0  0.39219133654E+00 -0.77738987784E+00  0.79671175017E+00  0.90007788714E+02  0.90000050725E+02 0.  0.
         12    1    1    2    0    0 -0.39219133654E+00  0.77738987784E+00 -0.79671175017E+00  0.11802112859E+01  0.00000000000E+00 0. -1.
         11    1    3    3    0    0  0.50770229791E+01  0.39756343861E+01 -0.54369699014E+01  0.84345997577E+01  0.51100000000E-03 0. -1.
        -11    1    3    3    0    0  0.12985043032E+02 -0.39548629474E+02 -0.20592412375E+01  0.41676683056E+02  0.51100000000E-03 0.  1.
         12    1    3    3    0    0 -0.17669874675E+02  0.34795605210E+02  0.82929228891E+01  0.39896505900E+02  0.00000000000E+00 0. -1.
</event>
<event>
 7    1  0.1999542E-015  0.9000805E+02  0.7816164E-02  0.1186338E+00
        -11   -1    0    0    0    0  0.00000000000E+00  0.00000000000E+00  0.45593999997E+02  0.45594000000E+02  0.51100000000E-03 0. -1.
         11   -1    0    0    0    0 -0.00000000000E+00 -0.00000000000E+00 -0.45593999997E+02  0.45594000000E+02  0.51100000000E-03 0.  1.
    9900012    2    1    2    0    0  0.10808169733E+01 -0.30921686553E+00  0.35846482954E+00  0.90008051936E+02  0.90000317421E+02 0.  0.
         12    1    1    2    0    0 -0.10808169733E+01  0.30921686553E+00 -0.35846482954E+00  0.11799480640E+01  0.00000000000E+00 0. -1.
         11    1    3    3    0    0 -0.13880580342E+02  0.57744815996E+01  0.34926149941E+02  0.38024348757E+02  0.51100000000E-03 0. -1.
        -11    1    3    3    0    0  0.12749220123E+01  0.62668209617E+01  0.51403035278E+01  0.82049492212E+01  0.51100000000E-03 0.  1.
        -12    1    3    3    0    0  0.13686475303E+02 -0.12350519427E+02 -0.39707988640E+02  0.43778753958E+02  0.00000000000E+00 0.  1.
</event>
<event>
 7    1  0.1999542E-015  0.9000785E+02  0.7816164E-02  0.1186339E+00
        -11   -1    0    0    0    0  0.00000000000E+00  0.00000000000E+00  0.45593999997E+02  0.45594000000E+02  0.51100000000E-03 0. -1.
         11   -1    0    0    0    0 -0.00000000000E+00 -0.00000000000E+00 -0.45593999997E+02  0.45594000000E+02  0.51100000000E-03 0.  1.
    9900012    2    1    2    0    0  0.55143104364E+00  0.69136011468E+00 -0.78146531839E+00  0.90007854650E+02  0.90000117531E+02 0.  0.
         12    1    1    2    0    0 -0.55143104364E+00 -0.69136011468E+00  0.78146531839E+00  0.11801453503E+01  0.00000000000E+00 0. -1.
         11    1    3    3    0    0  0.13643281211E+01  0.77638734647E+01  0.44081838279E+01  0.90316779902E+01  0.51100000000E-03 0. -1.
        -11    1    3    3    0    0  0.25635564557E+02  0.19510458695E+02  0.17983201042E+02  0.36894927682E+02  0.51100000000E-03 0.  1.
         12    1    3    3    0    0 -0.26448461635E+02 -0.26582972045E+02 -0.23172850188E+02  0.44081248978E+02  0.00000000000E+00 0. -1.
</event>
<event>
 7    1  0.1999542E-015  0.9000760E+02  0.7816164E-02  0.1186339E+00
        -11   -1    0    0    0    0  0.00000000000E+00  0.00000000000E+00  0.45593999997E+02  0.45594000000E+02  0.51100000000E-03 0.  1.
         11   -1    0    0    0    0 -0.00000000000E+00 -0.00000000000E+00 -0.45593999997E+02  0.45594000000E+02  0.51100000000E-03 0. -1.
    9900012    2    1    2    0    0 -0.42274229393E+00 -0.74206365248E+00 -0.81484676245E+00  0.90007599747E+02  0.89999859263E+02 0.  0.
         12    1    1    2    0    0  0.42274229393E+00  0.74206365248E+00  0.81484676245E+00  0.11804002532E+01  0.00000000000E+00 0. -1.
         11    1    3    3    0    0  0.26721331093E+01 -0.36964630334E+02 -0.15404052301E+02  0.40134885308E+02  0.51100000000E-03 0. -1.
        -11    1    3    3    0    0  0.13916111563E+02  0.17018769120E+02  0.55676358357E+01  0.22678078235E+02  0.51100000000E-03 0.  1.
        -12    1    3    3    0    0 -0.17010986966E+02  0.19203797562E+02  0.90215697025E+01  0.27194636204E+02  0.00000000000E+00 0.  1.
</event>
<event>
 7    1  0.1999542E-015  0.9000773E+02  0.7816164E-02  0.1186339E+00
        -11   -1    0    0    0    0  0.00000000000E+00  0.00000000000E+00  0.45593999997E+02  0.45594000000E+02  0.51100000000E-03 0. -1.
         11   -1    0    0    0    0 -0.00000000000E+00 -0.00000000000E+00 -0.45593999997E+02  0.45594000000E+02  0.51100000000E-03 0.  1.
    9900012    2    1    2    0    0  0.10474831909E+01  0.38782556490E+00 -0.38132101499E+00  0.90007730785E+02  0.89999992031E+02 0.  0.
         12    1    1    2    0    0 -0.10474831909E+01 -0.38782556490E+00  0.38132101499E+00  0.11802692153E+01  0.00000000000E+00 0. -1.
         11    1    3    3    0    0  0.76829413918E+01  0.79055592932E+01  0.64992661132E+00  0.11043000545E+02  0.51100000000E-03 0. -1.
        -11    1    3    3    0    0  0.18702808620E+02 -0.41963492544E+01 -0.32923633005E+02  0.38096850366E+02  0.51100000000E-03 0.  1.
         12    1    3    3    0    0 -0.25338266820E+02 -0.33213844739E+01  0.31892385378E+02  0.40867879874E+02  0.00000000000E+00 0. -1.
</event>
<event>
 7    1  0.1999542E-015  0.9000772E+02  0.7816164E-02  0.1186339E+00
        -11   -1    0    0    0    0  0.00000000000E+00  0.00000000000E+00  0.45593999997E+02  0.45594000000E+02  0.51100000000E-03 0. -1.
         11   -1    0    0    0    0 -0.00000000000E+00 -0.00000000000E+00 -0.45593999997E+02  0.45594000000E+02  0.51100000000E-03 0.  1.
    9900012    2    1    2    0    0 -0.83717605884E+00  0.75928373293E+00  0.34012582309E+00  0.90007719899E+02  0.89999981002E+02 0.  0.
         12    1    1    2    0    0  0.83717605884E+00 -0.75928373293E+00 -0.34012582309E+00  0.11802801007E+01  0.00000000000E+00 0. -1.
         11    1    3    3    0    0  0.16265825681E+01  0.18526047249E+02  0.33305564921E+02  0.38146046355E+02  0.51100000000E-03 0. -1.
        -11    1    3    3    0    0  0.41166996334E+01  0.81055716655E+01  0.43733598046E+00  0.91015806823E+01  0.51100000000E-03 0.  1.
        -12    1    3    3    0    0 -0.65804582603E+01 -0.25872335182E+02 -0.33402775078E+02  0.42760092862E+02  0.00000000000E+00 0.  1.
</event>
<event>
 7    1  0.1999542E-015  0.9000778E+02  0.7816164E-02  0.1186339E+00
        -11   -1    0    0    0    0  0.00000000000E+00  0.00000000000E+00  0.45593999997E+02  0.45594000000E+02  0.51100000000E-03 0. -1.
         11   -1    0    0    0    0 -0.00000000000E+00 -0.00000000000E+00 -0.45593999997E+02  0.45594000000E+02  0.51100000000E-03 0.  1.
    9900012    2    1    2    0    0 -0.60914464207E+00 -0.25225697674E+00 -0.97889031400E+00  0.90007780942E+02  0.90000042851E+02 0.  0.
         12    1    1    2    0    0  0.60914464207E+00  0.25225697674E+00  0.97889031400E+00  0.11802190577E+01  0.00000000000E+00 0. -1.
         11    1    3    3    0    0 -0.86425979809E+00 -0.97155472668E+01  0.11210718837E+01  0.98181264059E+01  0.51100000000E-03 0. -1.
        -11    1    3    3    0    0  0.26321078678E+02 -0.19352829805E+02 -0.19026663460E+02  0.37806680982E+02  0.51100000000E-03 0.  1.
         12    1    3    3    0    0 -0.26065963521E+02  0.28816120096E+02  0.16926701262E+02  0.42382973554E+02  0.00000000000E+00 0. -1.
</event>
<event>
 7    1  0.1999542E-015  0.9000782E+02  0.7816164E-02  0.1186339E+00
        -11   -1    0    0    0    0  0.00000000000E+00  0.00000000000E+00  0.45593999997E+02  0.45594000000E+02  0.51100000000E-03 0.  1.
         11   -1    0    0    0    0 -0.00000000000E+00 -0.00000000000E+00 -0.45593999997E+02  0.45594000000E+02  0.51100000000E-03 0. -1.
    9900012    2    1    2    0    0 -0.11866450488E-01 -0.17601574547E+00  0.11669165778E+01  0.90007823465E+02  0.90000085934E+02 0.  0.
         12    1    1    2    0    0  0.11866450488E-01  0.17601574547E+00 -0.11669165778E+01  0.11801765354E+01  0.00000000000E+00 0. -1.
         11    1    3    3    0    0  0.11587567138E+01 -0.63132898675E+01  0.31208379602E+01  0.71372246642E+01  0.51100000000E-03 0. -1.
        -11    1    3    3    0    0  0.21176263728E+01  0.25961766669E+02  0.33308455782E+02  0.42284168395E+02  0.51100000000E-03 0.  1.
         12    1    3    3    0    0 -0.32882495371E+01 -0.19824492547E+02 -0.35262377164E+02  0.40586430405E+02  0.00000000000E+00 0. -1.
</event>
<event>
 7    1  0.1999542E-015  0.9000749E+02  0.7816164E-02  0.1186340E+00
        -11   -1    0    0    0    0  0.00000000000E+00  0.00000000000E+00  0.45593999997E+02  0.45594000000E+02  0.51100000000E-03 0.  1.
         11   -1    0    0    0    0 -0.00000000000E+00 -0.00000000000E+00 -0.45593999997E+02  0.45594000000E+02  0.51100000000E-03 0. -1.
    9900012    2    1    2    0    0 -0.46872637093E+00 -0.58286713852E+00  0.91332784923E+00  0.90007488978E+02  0.89999747033E+02 0.  0.
         12    1    1    2    0    0  0.46872637093E+00  0.58286713852E+00 -0.91332784923E+00  0.11805110216E+01  0.00000000000E+00 0. -1.
         11    1    3    3    0    0 -0.38005801602E+02  0.21207207865E+01 -0.43036730727E+01  0.38307440716E+02  0.51100000000E-03 0. -1.
        -11    1    3    3    0    0 -0.23626629569E+01 -0.98386822424E+01 -0.25387384279E+01  0.10432019823E+02  0.51100000000E-03 0.  1.
        -12    1    3    3    0    0  0.39899738188E+02  0.71350943174E+01  0.77557393499E+01  0.41268028439E+02  0.00000000000E+00 0.  1.
</event>
<event>
 7    1  0.1999542E-015  0.9000774E+02  0.7816164E-02  0.1186339E+00
        -11   -1    0    0    0    0  0.00000000000E+00  0.00000000000E+00  0.45593999997E+02  0.45594000000E+02  0.51100000000E-03 0.  1.
         11   -1    0    0    0    0 -0.00000000000E+00 -0.00000000000E+00 -0.45593999997E+02  0.45594000000E+02  0.51100000000E-03 0. -1.
    9900012    2    1    2    0    0 -0.97339589122E+00 -0.17335032795E+00  0.64457312124E+00  0.90007735451E+02  0.89999996759E+02 0.  0.
         12    1    1    2    0    0  0.97339589122E+00  0.17335032795E+00 -0.64457312124E+00  0.11802645491E+01  0.00000000000E+00 0. -1.
         11    1    3    3    0    0 -0.74656408144E+01  0.26358762243E+00 -0.99547911274E+01  0.12446008913E+02  0.51100000000E-03 0. -1.
        -11    1    3    3    0    0 -0.17345946430E+02 -0.17813426732E+02 -0.22282210042E+02  0.33387077052E+02  0.51100000000E-03 0.  1.
         12    1    3    3    0    0  0.23838191353E+02  0.17376488782E+02  0.32881574290E+02  0.44174649486E+02  0.00000000000E+00 0. -1.
</event>
<event>
 7    1  0.1999542E-015  0.9000775E+02  0.7816164E-02  0.1186339E+00
        -11   -1    0    0    0    0  0.00000000000E+00  0.00000000000E+00  0.45593999997E+02  0.45594000000E+02  0.51100000000E-03 0. -1.
         11   -1    0    0    0    0 -0.00000000000E+00 -0.00000000000E+00 -0.45593999997E+02  0.45594000000E+02  0.51100000000E-03 0.  1.
    9900012    2    1    2    0    0  0.97256821177E+00 -0.29853483481E+00  0.59831281703E+00  0.90007749941E+02  0.90000011440E+02 0.  0.
         12    1    1    2    0    0 -0.97256821177E+00  0.29853483481E+00 -0.59831281703E+00  0.11802500587E+01  0.00000000000E+00 0. -1.
         11    1    3    3    0    0  0.64598889680E+01  0.45177755639E+01  0.23636388451E+01  0.82296567593E+01  0.51100000000E-03 0. -1.
        -11    1    3    3    0    0  0.21064504054E+02 -0.28218380547E+02  0.19734920309E+02  0.40366538266E+02  0.51100000000E-03 0.  1.
         12    1    3    3    0    0 -0.26551824810E+02  0.23402070149E+02 -0.21500246337E+02  0.41411554916E+02  0.00000000000E+00 0. -1.
</event>
<event>
 7    1  0.1999542E-015  0.9000646E+02  0.7816164E-02  0.1186342E+00
        -11   -1    0    0    0    0  0.00000000000E+00  0.00000000000E+00  0.45593999997E+02  0.45594000000E+02  0.51100000000E-03 0.  1.
         11   -1    0    0    0    0 -0.00000000000E+00 -0.00000000000E+00 -0.45593999997E+02  0.45594000000E+02  0.51100000000E-03 0. -1.
    9900012    2    1    2    0    0 -0.86444016001E+00  0.72568023063E+00  0.34953868146E+00  0.90006456147E+02  0.89998700558E+02 0.  0.
         12    1    1    2    0    0  0.86444016001E+00 -0.72568023063E+00 -0.34953868146E+00  0.11815438533E+01  0.00000000000E+00 0. -1.
         11    1    3    3    0    0  0.33732048961E+02 -0.47861774756E+01 -0.12798465645E+02  0.36394496082E+02  0.51100000000E-03 0. -1.
        -11    1    3    3    0    0  0.58345717109E+01 -0.73048923586E+01  0.42741788774E+01  0.10279702562E+02  0.51100000000E-03 0.  1.
        -12    1    3    3    0    0 -0.40431060832E+02  0.12816750065E+02  0.88738254491E+01  0.43332257503E+02  0.00000000000E+00 0.  1.
</event>
<event>
 7    1  0.1999542E-015  0.9000777E+02  0.7816164E-02  0.1186339E+00
        -11   -1    0    0    0    0  0.00000000000E+00  0.00000000000E+00  0.45593999997E+02  0.45594000000E+02  0.51100000000E-03 0.  1.
         11   -1    0    0    0    0 -0.00000000000E+00 -0.00000000000E+00 -0.45593999997E+02  0.45594000000E+02  0.51100000000E-03 0. -1.
    9900012    2    1    2    0    0  0.65782849154E-01  0.10120947526E+01 -0.60355758061E+00  0.90007769122E+02  0.90000030875E+02 0.  0.
         12    1    1    2    0    0 -0.65782849154E-01 -0.10120947526E+01  0.60355758061E+00  0.11802308776E+01  0.00000000000E+00 0. -1.
         11    1    3    3    0    0  0.10427055464E+01  0.79765303425E+01 -0.20037751842E+01  0.82901982130E+01  0.51100000000E-03 0. -1.
        -11    1    3    3    0    0  0.31548572156E+02  0.18964175549E+02  0.12136187263E+02  0.38758733221E+02  0.51100000000E-03 0.  1.
         12    1    3    3    0    0 -0.32525494853E+02 -0.25928611139E+02 -0.10735969659E+02  0.42958837689E+02  0.00000000000E+00 0. -1.
</event>
<event>
 7    1  0.1999542E-015  0.9000778E+02  0.7816164E-02  0.1186339E+00
        -11   -1    0    0    0    0  0.00000000000E+00  0.00000000000E+00  0.45593999997E+02  0.45594000000E+02  0.51100000000E-03 0.  1.
         11   -1    0    0    0    0 -0.00000000000E+00 -0.00000000000E+00 -0.45593999997E+02  0.45594000000E+02  0.51100000000E-03 0. -1.
    9900012    2    1    2    0    0  0.15903616018E+00 -0.74937358518E+00  0.89781116893E+00  0.90007780459E+02  0.90000042361E+02 0.  0.
         12    1    1    2    0    0 -0.15903616018E+00  0.74937358518E+00 -0.89781116893E+00  0.11802195412E+01  0.00000000000E+00 0. -1.
         11    1    3    3    0    0 -0.13173791469E+02  0.85049025568E+00  0.31843697113E+01  0.13579850001E+02  0.51100000000E-03 0. -1.
        -11    1    3    3    0    0 -0.12182636023E+02  0.15996809161E+02  0.27081004211E+02  0.33729739299E+02  0.51100000000E-03 0.  1.
         12    1    3    3    0    0  0.25515463652E+02 -0.17596673002E+02 -0.29367562753E+02  0.42698191159E+02  0.00000000000E+00 0. -1.
</event>
<event>
 7    1  0.1999542E-015  0.9000870E+02  0.7816164E-02  0.1186337E+00
        -11   -1    0    0    0    0  0.00000000000E+00  0.00000000000E+00  0.45593999997E+02  0.45594000000E+02  0.51100000000E-03 0.  1.
         11   -1    0    0    0    0 -0.00000000000E+00 -0.00000000000E+00 -0.45593999997E+02  0.45594000000E+02  0.51100000000E-03 0. -1.
    9900012    2    1    2    0    0  0.66982848236E-01  0.73976496252E+00  0.91597078678E+00  0.90008703013E+02  0.90000977087E+02 0.  0.
         12    1    1    2    0    0 -0.66982848236E-01 -0.73976496252E+00 -0.91597078678E+00  0.11792969872E+01  0.00000000000E+00 0. -1.
         11    1    3    3    0    0 -0.53047291681E+01  0.74610857122E+01 -0.43313151966E+00  0.91649088772E+01  0.51100000000E-03 0. -1.
        -11    1    3    3    0    0  0.25527860903E+02  0.88287692150E+00  0.33509533511E+02  0.42134783616E+02  0.51100000000E-03 0.  1.
         12    1    3    3    0    0 -0.20156148886E+02 -0.76041976712E+01 -0.32160431205E+02  0.38709010520E+02  0.00000000000E+00 0. -1.
</event>
<event>
 7    1  0.1999542E-015  0.9000773E+02  0.7816164E-02  0.1186339E+00
        -11   -1    0    0    0    0  0.00000000000E+00  0.00000000000E+00  0.45593999997E+02  0.45594000000E+02  0.51100000000E-03 0.  1.
         11   -1    0    0    0    0 -0.00000000000E+00 -0.00000000000E+00 -0.45593999997E+02  0.45594000000E+02  0.51100000000E-03 0. -1.
    9900012    2    1    2    0    0  0.99488411302E+00  0.63064458466E+00  0.74287387306E-01  0.90007734942E+02  0.89999996244E+02 0.  0.
         12    1    1    2    0    0 -0.99488411302E+00 -0.63064458466E+00 -0.74287387306E-01  0.11802650577E+01  0.00000000000E+00 0. -1.
         11    1    3    3    0    0 -0.23731074857E+01 -0.81049305196E+01  0.21118387955E+01  0.87052513591E+01  0.51100000000E-03 0. -1.
        -11    1    3    3    0    0  0.15452425726E+02 -0.14255691995E+02  0.32121553966E+02  0.38390056584E+02  0.51100000000E-03 0.  1.
         12    1    3    3    0    0 -0.12084434127E+02  0.22991267099E+02 -0.34159105375E+02  0.42912426999E+02  0.00000000000E+00 0. -1.
</event>
<event>
 7    1  0.1999542E-015  0.9000768E+02  0.7816164E-02  0.1186339E+00
        -11   -1    0    0    0    0  0.00000000000E+00  0.00000000000E+00  0.45593999997E+02  0.45594000000E+02  0.51100000000E-03 0.  1.
         11   -1    0    0    0    0 -0.00000000000E+00 -0.00000000000E+00 -0.45593999997E+02  0.45594000000E+02  0.51100000000E-03 0. -1.
    9900012    2    1    2    0    0  0.26717997214E+00  0.74050046597E+00  0.87945405114E+00  0.90007675678E+02  0.89999936197E+02 0.  0.
         12    1    1    2    0    0 -0.26717997214E+00 -0.74050046597E+00 -0.87945405114E+00  0.11803243222E+01  0.00000000000E+00 0. -1.
         11    1    3    3    0    0 -0.34737920710E+01 -0.53905590844E+01  0.68356214175E+01  0.93728906437E+01  0.51100000000E-03 0. -1.
        -11    1    3    3    0    0 -0.13900011164E+02  0.26517215569E+02  0.25414351931E+02  0.39271647741E+02  0.51100000000E-03 0.  1.
         12    1    3    3    0    0  0.17640983207E+02 -0.20386156019E+02 -0.31370519298E+02  0.41363137293E+02  0.00000000000E+00 0. -1.
</event>
<event>
 7    1  0.1999542E-015  0.9000778E+02  0.7816164E-02  0.1186339E+00
        -11   -1    0    0    0    0  0.00000000000E+00  0.00000000000E+00  0.45593999997E+02  0.45594000000E+02  0.51100000000E-03 0.  1.
         11   -1    0    0    0    0 -0.00000000000E+00 -0.00000000000E+00 -0.45593999997E+02  0.45594000000E+02  0.51100000000E-03 0. -1.
    9900012    2    1    2    0    0  0.81430734284E+00 -0.81296757789E+00 -0.26248760392E+00  0.90007782870E+02  0.90000044804E+02 0.  0.
         12    1    1    2    0    0 -0.81430734284E+00  0.81296757789E+00  0.26248760392E+00  0.11802171298E+01  0.00000000000E+00 0. -1.
         11    1    3    3    0    0 -0.41053297025E+01  0.90483754579E+01 -0.69337666169E+01  0.12116267996E+02  0.51100000000E-03 0. -1.
        -11    1    3    3    0    0 -0.35583512171E+02 -0.92911806449E+01  0.67138500969E+01  0.37384330402E+02  0.51100000000E-03 0.  1.
         12    1    3    3    0    0  0.40503149216E+02 -0.57016239088E+00 -0.42571083983E-01  0.40507184472E+02  0.00000000000E+00 0. -1.
</event>
<event>
 7    1  0.1999542E-015  0.9000770E+02  0.7816164E-02  0.1186339E+00
        -11   -1    0    0    0    0  0.00000000000E+00  0.00000000000E+00  0.45593999997E+02  0.45594000000E+02  0.51100000000E-03 0. -1.
         11   -1    0    0    0    0 -0.00000000000E+00 -0.00000000000E+00 -0.45593999997E+02  0.45594000000E+02  0.51100000000E-03 0.  1.
    9900012    2    1    2    0    0  0.59778950378E+00 -0.16601635636E+00 -0.10040898330E+01  0.90007699143E+02  0.89999959971E+02 0.  0.
         12    1    1    2    0    0 -0.59778950378E+00  0.16601635636E+00  0.10040898330E+01  0.11803008575E+01  0.00000000000E+00 0. -1.
         11    1    3    3    0    0  0.15683614740E+00  0.36286391130E+01 -0.10264290510E+01  0.37742782419E+01  0.51100000000E-03 0. -1.
        -11    1    3    3    0    0  0.16600785133E+02  0.33436174314E+02 -0.18449854332E+02  0.41640856678E+02  0.51100000000E-03 0.  1.
         12    1    3    3    0    0 -0.16159831776E+02 -0.37230829783E+02  0.18472193550E+02  0.44592564222E+02  0.00000000000E+00 0. -1.
</event>
<event>
 7    1  0.1999542E-015  0.9000769E+02  0.7816164E-02  0.1186339E+00
        -11   -1    0    0    0    0  0.00000000000E+00  0.00000000000E+00  0.45593999997E+02  0.45594000000E+02  0.51100000000E-03 0. -1.
         11   -1    0    0    0    0 -0.00000000000E+00 -0.00000000000E+00 -0.45593999997E+02  0.45594000000E+02  0.51100000000E-03 0.  1.
    9900012    2    1    2    0    0 -0.11553094990E+01 -0.80298010130E-01  0.22789720337E+00  0.90007692860E+02  0.89999953606E+02 0.  0.
         12    1    1    2    0    0  0.11553094990E+01  0.80298010130E-01 -0.22789720337E+00  0.11803071398E+01  0.00000000000E+00 0. -1.
         11    1    3    3    0    0 -0.32037604512E+02 -0.22566037828E+02  0.11971573917E+02  0.40975025912E+02  0.51100000000E-03 0. -1.
        -11    1    3    3    0    0  0.73977244087E+01  0.45819412333E+01  0.93265592545E+01  0.12755595622E+02  0.51100000000E-03 0.  1.
        -12    1    3    3    0    0  0.23484570604E+02  0.17903798585E+02 -0.21070235968E+02  0.36277071326E+02  0.00000000000E+00 0.  1.
</event>
<event>
 7    1  0.1999542E-015  0.9000759E+02  0.7816164E-02  0.1186339E+00
        -11   -1    0    0    0    0  0.00000000000E+00  0.00000000000E+00  0.45593999997E+02  0.45594000000E+02  0.51100000000E-03 0.  1.
         11   -1    0    0    0    0 -0.00000000000E+00 -0.00000000000E+00 -0.45593999997E+02  0.45594000000E+02  0.51100000000E-03 0. -1.
    9900012    2    1    2    0    0  0.54137295235E+00  0.98978261523E+00 -0.34730794067E+00  0.90007586045E+02  0.89999845381E+02 0.  0.
         12    1    1    2    0    0 -0.54137295235E+00 -0.98978261523E+00  0.34730794067E+00  0.11804139548E+01  0.00000000000E+00 0. -1.
         11    1    3    3    0    0 -0.59647300588E+01  0.14489363356E+01 -0.11676418010E+01  0.62482644643E+01  0.51100000000E-03 0. -1.
        -11    1    3    3    0    0 -0.24287879687E+02  0.11429076464E+02  0.29605225764E+02  0.39962410854E+02  0.51100000000E-03 0.  1.
         12    1    3    3    0    0  0.30793982698E+02 -0.11888230184E+02 -0.28784891903E+02  0.43796910727E+02  0.00000000000E+00 0. -1.
</event>
<event>
 7    1  0.1999542E-015  0.9000769E+02  0.7816164E-02  0.1186339E+00
        -11   -1    0    0    0    0  0.00000000000E+00  0.00000000000E+00  0.45593999997E+02  0.45594000000E+02  0.51100000000E-03 0.  1.
         11   -1    0    0    0    0 -0.00000000000E+00 -0.00000000000E+00 -0.45593999997E+02  0.45594000000E+02  0.51100000000E-03 0. -1.
    9900012    2    1    2    0    0  0.84771657722E+00  0.57693297768E+00  0.58451108866E+00  0.90007691452E+02  0.89999952179E+02 0.  0.
         12    1    1    2    0    0 -0.84771657722E+00 -0.57693297768E+00 -0.58451108866E+00  0.11803085481E+01  0.00000000000E+00 0. -1.
         11    1    3    3    0    0  0.60518085954E+01 -0.91653045691E+01  0.15261031144E+01  0.11088561047E+02  0.51100000000E-03 0. -1.
        -11    1    3    3    0    0 -0.32243894287E+02 -0.17335433382E+02 -0.12919662639E+02  0.38821432899E+02  0.51100000000E-03 0.  1.
         12    1    3    3    0    0  0.27039802269E+02  0.27077670928E+02  0.11978070614E+02  0.40097697506E+02  0.00000000000E+00 0. -1.
</event>
<event>
 7    1  0.1999542E-015  0.9000769E+02  0.7816164E-02  0.1186339E+00
        -11   -1    0    0    0    0  0.00000000000E+00  0.00000000000E+00  0.45593999997E+02  0.45594000000E+02  0.51100000000E-03 0. -1.
         11   -1    0    0    0    0 -0.00000000000E+00 -0.00000000000E+00 -0.45593999997E+02  0.45594000000E+02  0.51100000000E-03 0.  1.
    9900012    2    1    2    0    0 -0.10314518593E+01 -0.40214416247E+00 -0.40928174873E+00  0.90007693084E+02  0.89999953833E+02 0.  0.
         12    1    1    2    0    0  0.10314518593E+01  0.40214416247E+00  0.40928174873E+00  0.11803069157E+01  0.00000000000E+00 0. -1.
         11    1    3    3    0    0  0.69626331503E+01  0.73957736741E-01 -0.62700046452E+01  0.93699887216E+01  0.51100000000E-03 0. -1.
        -11    1    3    3    0    0  0.25673910818E+02  0.26742996823E+02  0.42287372698E+01  0.37312461658E+02  0.51100000000E-03 0.  1.
         12    1    3    3    0    0 -0.33667995828E+02 -0.27219098723E+02  0.16319856267E+01  0.43325242705E+02  0.00000000000E+00 0. -1.
</event>
<event>
 7    1  0.1999542E-015  0.9000776E+02  0.7816164E-02  0.1186339E+00
        -11   -1    0    0    0    0  0.00000000000E+00  0.00000000000E+00  0.45593999997E+02  0.45594000000E+02  0.51100000000E-03 0.  1.
         11   -1    0    0    0    0 -0.00000000000E+00 -0.00000000000E+00 -0.45593999997E+02  0.45594000000E+02  0.51100000000E-03 0. -1.
    9900012    2    1    2    0    0  0.79022184279E+00  0.76776286412E+00  0.42315680615E+00  0.90007757627E+02  0.90000019228E+02 0.  0.
         12    1    1    2    0    0 -0.79022184279E+00 -0.76776286412E+00 -0.42315680615E+00  0.11802423730E+01  0.00000000000E+00 0. -1.
         11    1    3    3    0    0  0.77331627940E+00  0.51497462302E+01  0.11656729598E+02  0.12767037616E+02  0.51100000000E-03 0. -1.
        -11    1    3    3    0    0  0.33432111024E+02  0.27611790700E+01  0.12322788834E+02  0.35737673152E+02  0.51100000000E-03 0.  1.
         12    1    3    3    0    0 -0.33415205461E+02 -0.71431624361E+01 -0.23556361626E+02  0.41503046859E+02  0.00000000000E+00 0. -1.
</event>
<event>
 7    1  0.1999542E-015  0.9000772E+02  0.7816164E-02  0.1186339E+00
        -11   -1    0    0    0    0  0.00000000000E+00  0.00000000000E+00  0.45593999997E+02  0.45594000000E+02  0.51100000000E-03 0. -1.
         11   -1    0    0    0    0 -0.00000000000E+00 -0.00000000000E+00 -0.45593999997E+02  0.45594000000E+02  0.51100000000E-03 0.  1.
    9900012    2    1    2    0    0  0.10155279735E+01  0.41786226142E+00  0.43262693672E+00  0.90007715288E+02  0.89999976330E+02 0.  0.
         12    1    1    2    0    0 -0.10155279735E+01 -0.41786226142E+00 -0.43262693672E+00  0.11802847118E+01  0.00000000000E+00 0. -1.
         11    1    3    3    0    0  0.11534341493E+02  0.97230572493E+01  0.17015593304E+02  0.22740037197E+02  0.51100000000E-03 0. -1.
        -11    1    3    3    0    0  0.21904595190E+02 -0.82465335999E+01 -0.24491425409E+02  0.33876932058E+02  0.51100000000E-03 0.  1.
         12    1    3    3    0    0 -0.32423408709E+02 -0.10586613880E+01  0.79084590415E+01  0.33390746033E+02  0.00000000000E+00 0. -1.
</event>
<event>
 7    1  0.1999542E-015  0.9000775E+02  0.7816164E-02  0.1186339E+00
        -11   -1    0    0    0    0  0.00000000000E+00  0.00000000000E+00  0.45593999997E+02  0.45594000000E+02  0.51100000000E-03 0.  1.
         11   -1    0    0    0    0 -0.00000000000E+00 -0.00000000000E+00 -0.45593999997E+02  0.45594000000E+02  0.51100000000E-03 0. -1.
    9900012    2    1    2    0    0  0.16170054639E+00 -0.11536916028E+01  0.18932946081E+00  0.90007747050E+02  0.90000008511E+02 0.  0.
         12    1    1    2    0    0 -0.16170054639E+00  0.11536916028E+01 -0.18932946081E+00  0.11802529499E+01  0.00000000000E+00 0. -1.
         11    1    3    3    0    0 -0.99374480609E+01  0.28990335107E+00 -0.37817253017E+01  0.10636651937E+02  0.51100000000E-03 0. -1.
        -11    1    3    3    0    0  0.43885674681E+02  0.69319655455E+01  0.33583910875E+01  0.44556518933E+02  0.51100000000E-03 0.  1.
         12    1    3    3    0    0 -0.33786526073E+02 -0.83755604994E+01  0.61266367505E+00  0.34814576180E+02  0.00000000000E+00 0. -1.
</event>
<event>
 7    1  0.1999542E-015  0.9000775E+02  0.7816164E-02  0.1186339E+00
        -11   -1    0    0    0    0  0.00000000000E+00  0.00000000000E+00  0.45593999997E+02  0.45594000000E+02  0.51100000000E-03 0.  1.
         11   -1    0    0    0    0 -0.00000000000E+00 -0.00000000000E+00 -0.45593999997E+02  0.45594000000E+02  0.51100000000E-03 0. -1.
    9900012    2    1    2    0    0  0.39748253891E+00 -0.52745144722E+00  0.97816254480E+00  0.90007746060E+02  0.90000007508E+02 0.  0.
         12    1    1    2    0    0 -0.39748253891E+00  0.52745144722E+00 -0.97816254480E+00  0.11802539396E+01  0.00000000000E+00 0. -1.
         11    1    3    3    0    0  0.26470253273E+02  0.24027940550E+02 -0.15412599608E+02  0.38930251249E+02  0.51100000000E-03 0. -1.
        -11    1    3    3    0    0  0.74154504727E+01 -0.15790505625E+01  0.42376348430E+01  0.86856119943E+01  0.51100000000E-03 0.  1.
        -12    1    3    3    0    0 -0.33488221207E+02 -0.22976341435E+02  0.12153127309E+02  0.42391882817E+02  0.00000000000E+00 0.  1.
</event>
<event>
 7    1  0.1999542E-015  0.9000776E+02  0.7816164E-02  0.1186339E+00
        -11   -1    0    0    0    0  0.00000000000E+00  0.00000000000E+00  0.45593999997E+02  0.45594000000E+02  0.51100000000E-03 0.  1.
         11   -1    0    0    0    0 -0.00000000000E+00 -0.00000000000E+00 -0.45593999997E+02  0.45594000000E+02  0.51100000000E-03 0. -1.
    9900012    2    1    2    0    0 -0.92419618652E+00  0.50626739577E+00 -0.53152328410E+00  0.90007761775E+02  0.90000023430E+02 0.  0.
         12    1    1    2    0    0  0.92419618652E+00 -0.50626739577E+00  0.53152328410E+00  0.11802382254E+01  0.00000000000E+00 0. -1.
         11    1    3    3    0    0 -0.94577538738E+01  0.16800893985E+01  0.18916179964E+01  0.97903027343E+01  0.51100000000E-03 0. -1.
        -11    1    3    3    0    0 -0.43429979527E+00 -0.30972591613E+02  0.24165159180E+02  0.39286702152E+02  0.51100000000E-03 0.  1.
         12    1    3    3    0    0  0.89678574825E+01  0.29798769610E+02 -0.26588300460E+02  0.40930756888E+02  0.00000000000E+00 0. -1.
</event>
<event>
 7    1  0.1999542E-015  0.9000776E+02  0.7816164E-02  0.1186339E+00
        -11   -1    0    0    0    0  0.00000000000E+00  0.00000000000E+00  0.45593999997E+02  0.45594000000E+02  0.51100000000E-03 0.  1.
         11   -1    0    0    0    0 -0.00000000000E+00 -0.00000000000E+00 -0.45593999997E+02  0.45594000000E+02  0.51100000000E-03 0. -1.
    9900012    2    1    2    0    0  0.98058631315E+00 -0.48168675191E+00  0.44654527920E+00  0.90007756665E+02  0.90000018253E+02 0.  0.
         12    1    1    2    0    0 -0.98058631315E+00  0.48168675191E+00 -0.44654527920E+00  0.11802433355E+01  0.00000000000E+00 0. -1.
         11    1    3    3    0    0 -0.31160154367E+02 -0.49626323355E+01 -0.14606072330E+02  0.34769531044E+02  0.51100000000E-03 0. -1.
        -11    1    3    3    0    0 -0.94602297027E+01 -0.13154248790E+01 -0.22474831617E+01  0.98121083088E+01  0.51100000000E-03 0.  1.
        -12    1    3    3    0    0  0.41600970383E+02  0.57963704626E+01  0.17300100771E+02  0.45426117312E+02  0.00000000000E+00 0.  1.
</event>
<event>
 7    1  0.1999542E-015  0.9000772E+02  0.7816164E-02  0.1186339E+00
        -11   -1    0    0    0    0  0.00000000000E+00  0.00000000000E+00  0.45593999997E+02  0.45594000000E+02  0.51100000000E-03 0. -1.
         11   -1    0    0    0    0 -0.00000000000E+00 -0.00000000000E+00 -0.45593999997E+02  0.45594000000E+02  0.51100000000E-03 0.  1.
    9900012    2    1    2    0    0 -0.89951727537E+00  0.63285833220E+00  0.42828453089E+00  0.90007716713E+02  0.89999977774E+02 0.  0.
         12    1    1    2    0    0  0.89951727537E+00 -0.63285833220E+00 -0.42828453089E+00  0.11802832866E+01  0.00000000000E+00 0. -1.
         11    1    3    3    0    0 -0.55482584143E+01  0.48320015212E+01 -0.66485013885E+01  0.99163491824E+01  0.51100000000E-03 0. -1.
        -11    1    3    3    0    0  0.36442041302E+01  0.25836334981E+02 -0.25000257710E+02  0.36135983657E+02  0.51100000000E-03 0.  1.
         12    1    3    3    0    0  0.10045370087E+01 -0.30035478170E+02  0.32077043630E+02  0.43955383874E+02  0.00000000000E+00 0. -1.
</event>
<event>
 7    1  0.1999542E-015  0.9000762E+02  0.7816164E-02  0.1186339E+00
        -11   -1    0    0    0    0  0.00000000000E+00  0.00000000000E+00  0.45593999997E+02  0.45594000000E+02  0.51100000000E-03 0.  1.
         11   -1    0    0    0    0 -0.00000000000E+00 -0.00000000000E+00 -0.45593999997E+02  0.45594000000E+02  0.51100000000E-03 0. -1.
    9900012    2    1    2    0    0 -0.53340243970E-01  0.94478279140E+00 -0.70557629161E+00  0.90007619719E+02  0.89999879499E+02 0.  0.
         12    1    1    2    0    0  0.53340243970E-01 -0.94478279140E+00  0.70557629161E+00  0.11803802810E+01  0.00000000000E+00 0. -1.
         11    1    3    3    0    0  0.90459157249E+01  0.10830197534E+01  0.32601648789E+01  0.96762698591E+01  0.51100000000E-03 0. -1.
        -11    1    3    3    0    0  0.10005472242E+02  0.22667506556E+02  0.27508205325E+02  0.37021975754E+02  0.51100000000E-03 0.  1.
         12    1    3    3    0    0 -0.19104728211E+02 -0.22805743518E+02 -0.31473946496E+02  0.43309374106E+02  0.00000000000E+00 0. -1.
</event>
<event>
 7    1  0.2389503E-015  0.9000761E+02  0.7816164E-02  0.1186339E+00
        -11   -1    0    0    0    0  0.00000000000E+00  0.00000000000E+00  0.45593999997E+02  0.45594000000E+02  0.51100000000E-03 0. -1.
         11   -1    0    0    0    0 -0.00000000000E+00 -0.00000000000E+00 -0.45593999997E+02  0.45594000000E+02  0.51100000000E-03 0.  1.
    9900012    2    1    2    0    0  0.10363459527E+01  0.18772421416E+00  0.53296879431E+00  0.90007614872E+02  0.89999874588E+02 0.  0.
         12    1    1    2    0    0 -0.10363459527E+01 -0.18772421416E+00 -0.53296879431E+00  0.11803851278E+01  0.00000000000E+00 0. -1.
         11    1    3    3    0    0  0.16609266080E+02  0.54903182865E+01 -0.34877784545E+02  0.39018856591E+02  0.51100000000E-03 0. -1.
        -11    1    3    3    0    0 -0.29204512641E+00 -0.82131732462E+01 -0.36140456193E+01  0.89779079483E+01  0.51100000000E-03 0.  1.
        -12    1    3    3    0    0 -0.15280875001E+02  0.29105791739E+01  0.39024798959E+02  0.42010850333E+02  0.00000000000E+00 0.  1.
</event>
<event>
 7    1  0.1999542E-015  0.9000774E+02  0.7816164E-02  0.1186339E+00
        -11   -1    0    0    0    0  0.00000000000E+00  0.00000000000E+00  0.45593999997E+02  0.45594000000E+02  0.51100000000E-03 0.  1.
         11   -1    0    0    0    0 -0.00000000000E+00 -0.00000000000E+00 -0.45593999997E+02  0.45594000000E+02  0.51100000000E-03 0. -1.
    9900012    2    1    2    0    0 -0.37327317180E+00  0.95453227140E+00  0.58528193394E+00  0.90007737461E+02  0.89999998796E+02 0.  0.
         12    1    1    2    0    0  0.37327317180E+00 -0.95453227140E+00 -0.58528193394E+00  0.11802625386E+01  0.00000000000E+00 0. -1.
         11    1    3    3    0    0 -0.34943663480E+02 -0.61109852172E+01 -0.69489285004E+01  0.36148186197E+02  0.51100000000E-03 0. -1.
        -11    1    3    3    0    0 -0.70304896185E+01 -0.62734455098E+01 -0.51733953956E+00  0.94367125262E+01  0.51100000000E-03 0.  1.
        -12    1    3    3    0    0  0.41600879927E+02  0.13338962998E+02  0.80515499739E+01  0.44422838738E+02  0.00000000000E+00 0.  1.
</event>
<event>
 7    1  0.1999542E-015  0.9000775E+02  0.7816164E-02  0.1186339E+00
        -11   -1    0    0    0    0  0.00000000000E+00  0.00000000000E+00  0.45593999997E+02  0.45594000000E+02  0.51100000000E-03 0. -1.
         11   -1    0    0    0    0 -0.00000000000E+00 -0.00000000000E+00 -0.45593999997E+02  0.45594000000E+02  0.51100000000E-03 0.  1.
    9900012    2    1    2    0    0 -0.51387066312E+00 -0.10298825515E+01 -0.26127140768E+00  0.90007752621E+02  0.90000014155E+02 0.  0.
         12    1    1    2    0    0  0.51387066312E+00  0.10298825515E+01  0.26127140768E+00  0.11802473795E+01  0.00000000000E+00 0. -1.
         11    1    3    3    0    0 -0.38671378947E+01 -0.12399779856E+01 -0.17176336466E+02  0.17649896191E+02  0.51100000000E-03 0. -1.
        -11    1    3    3    0    0  0.11319714478E+02  0.30655956383E+02 -0.62617310958E+01  0.33273606269E+02  0.51100000000E-03 0.  1.
         12    1    3    3    0    0 -0.79664472459E+01 -0.30445860949E+02  0.23176796154E+02  0.39084250160E+02  0.00000000000E+00 0. -1.
</event>
<event>
 7    1  0.1999542E-015  0.9000775E+02  0.7816164E-02  0.1186339E+00
        -11   -1    0    0    0    0  0.00000000000E+00  0.00000000000E+00  0.45593999997E+02  0.45594000000E+02  0.51100000000E-03 0. -1.
         11   -1    0    0    0    0 -0.00000000000E+00 -0.00000000000E+00 -0.45593999997E+02  0.45594000000E+02  0.51100000000E-03 0.  1.
    9900012    2    1    2    0    0 -0.78048399942E+00  0.32199943353E+00 -0.82471065904E+00  0.90007751475E+02  0.90000012995E+02 0.  0.
         12    1    1    2    0    0  0.78048399942E+00 -0.32199943353E+00  0.82471065904E+00  0.11802485245E+01  0.00000000000E+00 0. -1.
         11    1    3    3    0    0  0.13022951930E+02 -0.13970178027E+01 -0.59642095475E-01  0.13097804899E+02  0.51100000000E-03 0. -1.
        -11    1    3    3    0    0  0.10056503102E+02  0.11365822033E+02  0.31899015057E+02  0.35325094862E+02  0.51100000000E-03 0.  1.
         12    1    3    3    0    0 -0.23859939032E+02 -0.96468047963E+01 -0.32664083621E+02  0.41584851715E+02  0.00000000000E+00 0. -1.
</event>
<event>
 7    1  0.1999542E-015  0.9000755E+02  0.7816164E-02  0.1186339E+00
        -11   -1    0    0    0    0  0.00000000000E+00  0.00000000000E+00  0.45593999997E+02  0.45594000000E+02  0.51100000000E-03 0. -1.
         11   -1    0    0    0    0 -0.00000000000E+00 -0.00000000000E+00 -0.45593999997E+02  0.45594000000E+02  0.51100000000E-03 0.  1.
    9900012    2    1    2    0    0  0.62968892612E+00 -0.15462915342E+00 -0.98643095672E+00  0.90007549090E+02  0.89999807938E+02 0.  0.
         12    1    1    2    0    0 -0.62968892612E+00  0.15462915342E+00  0.98643095672E+00  0.11804509101E+01  0.00000000000E+00 0. -1.
         11    1    3    3    0    0  0.23205004800E+02  0.32539073212E+02  0.63179720138E+00  0.39970773088E+02  0.51100000000E-03 0. -1.
        -11    1    3    3    0    0 -0.15806237152E+00  0.11232748778E+01 -0.87663916744E+01  0.88394769876E+01  0.51100000000E-03 0.  1.
        -12    1    3    3    0    0 -0.22417253502E+02 -0.33816977243E+02  0.71481635163E+01  0.41197299015E+02  0.00000000000E+00 0.  1.
</event>
<event>
 7    1  0.1999542E-015  0.9000791E+02  0.7816164E-02  0.1186339E+00
        -11   -1    0    0    0    0  0.00000000000E+00  0.00000000000E+00  0.45593999997E+02  0.45594000000E+02  0.51100000000E-03 0.  1.
         11   -1    0    0    0    0 -0.00000000000E+00 -0.00000000000E+00 -0.45593999997E+02  0.45594000000E+02  0.51100000000E-03 0. -1.
    9900012    2    1    2    0    0  0.65344518415E+00  0.63309464671E-01  0.98061433193E+00  0.90007913916E+02  0.90000177580E+02 0.  0.
         12    1    1    2    0    0 -0.65344518415E+00 -0.63309464671E-01 -0.98061433193E+00  0.11800860837E+01  0.00000000000E+00 0. -1.
         11    1    3    3    0    0  0.74695530682E+01 -0.46680250752E+01  0.55247902577E+01  0.10397499161E+02  0.51100000000E-03 0. -1.
        -11    1    3    3    0    0 -0.24403781213E+02 -0.31085493244E+02 -0.73665534405E+00  0.39527143699E+02  0.51100000000E-03 0.  1.
         12    1    3    3    0    0  0.17587673329E+02  0.35816827783E+02 -0.38075205817E+01  0.40083271056E+02  0.00000000000E+00 0. -1.
</event>
<event>
 7    1  0.1999542E-015  0.9000764E+02  0.7816164E-02  0.1186339E+00
        -11   -1    0    0    0    0  0.00000000000E+00  0.00000000000E+00  0.45593999997E+02  0.45594000000E+02  0.51100000000E-03 0. -1.
         11   -1    0    0    0    0 -0.00000000000E+00 -0.00000000000E+00 -0.45593999997E+02  0.45594000000E+02  0.51100000000E-03 0.  1.
    9900012    2    1    2    0    0  0.77163876223E+00 -0.20171218521E+00  0.87013075499E+00  0.90007643395E+02  0.89999903487E+02 0.  0.
         12    1    1    2    0    0 -0.77163876223E+00  0.20171218521E+00 -0.87013075499E+00  0.11803566054E+01  0.00000000000E+00 0. -1.
         11    1    3    3    0    0  0.97423888202E+00 -0.78995952406E+01  0.48649379518E+01  0.93284708232E+01  0.51100000000E-03 0. -1.
        -11    1    3    3    0    0  0.21876218346E+02 -0.28910996888E+02  0.60686860645E+01  0.36759265784E+02  0.51100000000E-03 0.  1.
         12    1    3    3    0    0 -0.22078818466E+02  0.36608879943E+02 -0.10063493261E+02  0.43919906787E+02  0.00000000000E+00 0. -1.
</event>
<event>
 7    1  0.3009013E-015  0.9000784E+02  0.7816164E-02  0.1186339E+00
        -11   -1    0    0    0    0  0.00000000000E+00  0.00000000000E+00  0.45593999997E+02  0.45594000000E+02  0.51100000000E-03 0. -1.
         11   -1    0    0    0    0 -0.00000000000E+00 -0.00000000000E+00 -0.45593999997E+02  0.45594000000E+02  0.51100000000E-03 0.  1.
    9900012    2    1    2    0    0 -0.27327243729E+00  0.78470671530E-01 -0.11453971201E+01  0.90007843216E+02  0.90000105947E+02 0.  0.
         12    1    1    2    0    0  0.27327243729E+00 -0.78470671530E-01  0.11453971201E+01  0.11801567837E+01  0.00000000000E+00 0. -1.
         11    1    3    3    0    0  0.28809508434E+02  0.11445090493E+02  0.18275134688E+02  0.35985530714E+02  0.51100000000E-03 0. -1.
        -11    1    3    3    0    0  0.44077048379E+01  0.73288877891E+01  0.36109080411E+01  0.92832707224E+01  0.51100000000E-03 0.  1.
        -12    1    3    3    0    0 -0.33490485709E+02 -0.18695507611E+02 -0.23031439850E+02  0.44739041780E+02  0.00000000000E+00 0.  1.
</event>
<event>
 7    1  0.1999542E-015  0.9000765E+02  0.7816164E-02  0.1186339E+00
        -11   -1    0    0    0    0  0.00000000000E+00  0.00000000000E+00  0.45593999997E+02  0.45594000000E+02  0.51100000000E-03 0.  1.
         11   -1    0    0    0    0 -0.00000000000E+00 -0.00000000000E+00 -0.45593999997E+02  0.45594000000E+02  0.51100000000E-03 0. -1.
    9900012    2    1    2    0    0 -0.17952812674E+00  0.11666104621E+01 -0.44344366165E-02  0.90007648365E+02  0.89999908523E+02 0.  0.
         12    1    1    2    0    0  0.17952812674E+00 -0.11666104621E+01  0.44344366165E-02  0.11803516353E+01  0.00000000000E+00 0. -1.
         11    1    3    3    0    0  0.12718418539E+02  0.29376986047E+02 -0.12808551699E+02  0.34479334045E+02  0.51100000000E-03 0. -1.
        -11    1    3    3    0    0  0.22144583537E+01 -0.84295798393E+01 -0.15532431867E+02  0.17810617115E+02  0.51100000000E-03 0.  1.
        -12    1    3    3    0    0 -0.15112405019E+02 -0.19780795746E+02  0.28336549130E+02  0.37717697204E+02  0.00000000000E+00 0.  1.
</event>
<event>
 7    1  0.1999542E-015  0.9000775E+02  0.7816164E-02  0.1186339E+00
        -11   -1    0    0    0    0  0.00000000000E+00  0.00000000000E+00  0.45593999997E+02  0.45594000000E+02  0.51100000000E-03 0. -1.
         11   -1    0    0    0    0 -0.00000000000E+00 -0.00000000000E+00 -0.45593999997E+02  0.45594000000E+02  0.51100000000E-03 0.  1.
    9900012    2    1    2    0    0 -0.15774256185E+00 -0.87365350507E+00 -0.77771333329E+00  0.90007749522E+02  0.90000011015E+02 0.  0.
         12    1    1    2    0    0  0.15774256185E+00  0.87365350507E+00  0.77771333329E+00  0.11802504783E+01  0.00000000000E+00 0. -1.
         11    1    3    3    0    0 -0.21424472476E+02 -0.48642541157E+01 -0.66345766647E+01  0.22949653522E+02  0.51100000000E-03 0. -1.
        -11    1    3    3    0    0  0.32823187408E+01 -0.88181652886E+01 -0.26366996198E+02  0.27995573653E+02  0.51100000000E-03 0.  1.
         12    1    3    3    0    0  0.17984411174E+02  0.12808765899E+02  0.32223859530E+02  0.39062522347E+02  0.00000000000E+00 0. -1.
</event>
<event>
 7    1  0.1999542E-015  0.9000770E+02  0.7816164E-02  0.1186339E+00
        -11   -1    0    0    0    0  0.00000000000E+00  0.00000000000E+00  0.45593999997E+02  0.45594000000E+02  0.51100000000E-03 0.  1.
         11   -1    0    0    0    0 -0.00000000000E+00 -0.00000000000E+00 -0.45593999997E+02  0.45594000000E+02  0.51100000000E-03 0. -1.
    9900012    2    1    2    0    0 -0.10659701924E+00  0.14691562861E+00  0.11662567206E+01  0.90007702637E+02  0.89999963512E+02 0.  0.
         12    1    1    2    0    0  0.10659701924E+00 -0.14691562861E+00 -0.11662567206E+01  0.11802973628E+01  0.00000000000E+00 0. -1.
         11    1    3    3    0    0 -0.14002464336E+01 -0.13542815499E+02 -0.36993952119E+02  0.39419805116E+02  0.51100000000E-03 0. -1.
        -11    1    3    3    0    0  0.82257117993E+01 -0.56863442395E+01  0.41296461595E+01  0.10819002869E+02  0.51100000000E-03 0.  1.
        -12    1    3    3    0    0 -0.69320623849E+01  0.19376075367E+02  0.34030562680E+02  0.39768894652E+02  0.00000000000E+00 0.  1.
</event>
<event>
 7    1  0.1999542E-015  0.9000782E+02  0.7816164E-02  0.1186339E+00
        -11   -1    0    0    0    0  0.00000000000E+00  0.00000000000E+00  0.45593999997E+02  0.45594000000E+02  0.51100000000E-03 0. -1.
         11   -1    0    0    0    0 -0.00000000000E+00 -0.00000000000E+00 -0.45593999997E+02  0.45594000000E+02  0.51100000000E-03 0.  1.
    9900012    2    1    2    0    0 -0.75267396135E+00 -0.77092096270E-01 -0.90574110344E+00  0.90007818561E+02  0.90000080966E+02 0.  0.
         12    1    1    2    0    0  0.75267396135E+00  0.77092096270E-01  0.90574110344E+00  0.11801814394E+01  0.00000000000E+00 0. -1.
         11    1    3    3    0    0  0.26534033350E+02  0.28158235937E+01 -0.63012845425E+01  0.27416965104E+02  0.51100000000E-03 0. -1.
        -11    1    3    3    0    0  0.17252811809E+02 -0.28286135168E+01  0.44529145885E+01  0.18041314207E+02  0.51100000000E-03 0.  1.
        -12    1    3    3    0    0 -0.44539519120E+02 -0.64302173217E-01  0.94262885051E+00  0.44549539250E+02  0.00000000000E+00 0.  1.
</event>
<event>
 7    1  0.1999542E-015  0.9000732E+02  0.7816164E-02  0.1186340E+00
        -11   -1    0    0    0    0  0.00000000000E+00  0.00000000000E+00  0.45593999997E+02  0.45594000000E+02  0.51100000000E-03 0.  1.
         11   -1    0    0    0    0 -0.00000000000E+00 -0.00000000000E+00 -0.45593999997E+02  0.45594000000E+02  0.51100000000E-03 0. -1.
    9900012    2    1    2    0    0  0.81714593888E+00 -0.61844031265E+00  0.58635144543E+00  0.90007320567E+02  0.89999576398E+02 0.  0.
         12    1    1    2    0    0 -0.81714593888E+00  0.61844031265E+00 -0.58635144543E+00  0.11806794329E+01  0.00000000000E+00 0. -1.
         11    1    3    3    0    0  0.17412866655E+02  0.83688923280E+01 -0.39128523468E+02  0.43638144244E+02  0.51100000000E-03 0. -1.
        -11    1    3    3    0    0  0.24643086966E+01 -0.31042158658E+01  0.73662356525E+01  0.83648312262E+01  0.51100000000E-03 0.  1.
        -12    1    3    3    0    0 -0.19060029413E+02 -0.58831167748E+01  0.32348639261E+02  0.38004345097E+02  0.00000000000E+00 0.  1.
</event>
<event>
 7    1  0.1999542E-015  0.9000780E+02  0.7816164E-02  0.1186339E+00
        -11   -1    0    0    0    0  0.00000000000E+00  0.00000000000E+00  0.45593999997E+02  0.45594000000E+02  0.51100000000E-03 0.  1.
         11   -1    0    0    0    0 -0.00000000000E+00 -0.00000000000E+00 -0.45593999997E+02  0.45594000000E+02  0.51100000000E-03 0. -1.
    9900012    2    1    2    0    0 -0.66682201623E+00 -0.57798256785E+00  0.78368002895E+00  0.90007800933E+02  0.90000063105E+02 0.  0.
         12    1    1    2    0    0  0.66682201623E+00  0.57798256785E+00 -0.78368002895E+00  0.11801990670E+01  0.00000000000E+00 0. -1.
         11    1    3    3    0    0  0.10605791466E+02 -0.88451080696E+01 -0.34123544422E+02  0.36812158773E+02  0.51100000000E-03 0. -1.
        -11    1    3    3    0    0 -0.86439670813E+01  0.25381311970E+01 -0.66282933388E+01  0.11184567480E+02  0.51100000000E-03 0.  1.
        -12    1    3    3    0    0 -0.26286464009E+01  0.57289943048E+01  0.41535517790E+02  0.42011074679E+02  0.00000000000E+00 0.  1.
</event>
<event>
 7    1  0.1999542E-015  0.9000773E+02  0.7816164E-02  0.1186339E+00
        -11   -1    0    0    0    0  0.00000000000E+00  0.00000000000E+00  0.45593999997E+02  0.45594000000E+02  0.51100000000E-03 0.  1.
         11   -1    0    0    0    0 -0.00000000000E+00 -0.00000000000E+00 -0.45593999997E+02  0.45594000000E+02  0.51100000000E-03 0. -1.
    9900012    2    1    2    0    0 -0.10648644464E+01 -0.48960906800E+00  0.13919683128E+00  0.90007733468E+02  0.89999994750E+02 0.  0.
         12    1    1    2    0    0  0.10648644464E+01  0.48960906800E+00 -0.13919683128E+00  0.11802665320E+01  0.00000000000E+00 0. -1.
         11    1    3    3    0    0  0.15761077141E+02 -0.78263195073E+01 -0.81652139776E+01  0.19399318268E+02  0.51100000000E-03 0. -1.
        -11    1    3    3    0    0  0.23024008634E+02  0.15112743837E+02  0.11577016612E+02  0.29875195627E+02  0.51100000000E-03 0.  1.
         12    1    3    3    0    0 -0.39849950222E+02 -0.77760333976E+01 -0.32726058028E+01  0.40733219574E+02  0.00000000000E+00 0. -1.
</event>
<event>
 7    1  0.1999542E-015  0.9000782E+02  0.7816164E-02  0.1186339E+00
        -11   -1    0    0    0    0  0.00000000000E+00  0.00000000000E+00  0.45593999997E+02  0.45594000000E+02  0.51100000000E-03 0. -1.
         11   -1    0    0    0    0 -0.00000000000E+00 -0.00000000000E+00 -0.45593999997E+02  0.45594000000E+02  0.51100000000E-03 0.  1.
    9900012    2    1    2    0    0  0.87406419513E+00  0.79216099921E+00 -0.36336324923E-01  0.90007818830E+02  0.90000081238E+02 0.  0.
         12    1    1    2    0    0 -0.87406419513E+00 -0.79216099921E+00  0.36336324923E-01  0.11801811702E+01  0.00000000000E+00 0. -1.
         11    1    3    3    0    0 -0.12653665240E+02 -0.17466860448E+01  0.35818050305E+02  0.38027606868E+02  0.51100000000E-03 0. -1.
        -11    1    3    3    0    0 -0.17634355503E+01  0.76902272865E+01  0.40993738109E+01  0.88912410023E+01  0.51100000000E-03 0.  1.
        -12    1    3    3    0    0  0.15291164986E+02 -0.51513802426E+01 -0.39953760441E+02  0.43088970960E+02  0.00000000000E+00 0.  1.
</event>
<event>
 7    1  0.1999542E-015  0.9000769E+02  0.7816164E-02  0.1186339E+00
        -11   -1    0    0    0    0  0.00000000000E+00  0.00000000000E+00  0.45593999997E+02  0.45594000000E+02  0.51100000000E-03 0.  1.
         11   -1    0    0    0    0 -0.00000000000E+00 -0.00000000000E+00 -0.45593999997E+02  0.45594000000E+02  0.51100000000E-03 0. -1.
    9900012    2    1    2    0    0  0.99514093731E+00  0.61078469790E+00  0.17252198923E+00  0.90007691875E+02  0.89999952608E+02 0.  0.
         12    1    1    2    0    0 -0.99514093731E+00 -0.61078469790E+00 -0.17252198923E+00  0.11803081246E+01  0.00000000000E+00 0. -1.
         11    1    3    3    0    0 -0.39522647068E+01 -0.87787556991E+01  0.23616123616E+01  0.99128281103E+01  0.51100000000E-03 0. -1.
        -11    1    3    3    0    0 -0.21820130816E+02  0.44529444034E+01  0.30368076903E+02  0.37658557032E+02  0.51100000000E-03 0.  1.
         12    1    3    3    0    0  0.26767536460E+02  0.49365959936E+01 -0.32557167275E+02  0.42436306733E+02  0.00000000000E+00 0. -1.
</event>
<event>
 7    1  0.1999542E-015  0.9000767E+02  0.7816164E-02  0.1186339E+00
        -11   -1    0    0    0    0  0.00000000000E+00  0.00000000000E+00  0.45593999997E+02  0.45594000000E+02  0.51100000000E-03 0.  1.
         11   -1    0    0    0    0 -0.00000000000E+00 -0.00000000000E+00 -0.45593999997E+02  0.45594000000E+02  0.51100000000E-03 0. -1.
    9900012    2    1    2    0    0  0.75025177271E+00 -0.51330795258E+00  0.75287954882E+00  0.90007665136E+02  0.89999925516E+02 0.  0.
         12    1    1    2    0    0 -0.75025177271E+00  0.51330795258E+00 -0.75287954882E+00  0.11803348642E+01  0.00000000000E+00 0. -1.
         11    1    3    3    0    0 -0.20383240070E+02 -0.12209245774E+02 -0.31300409999E+02  0.39297046002E+02  0.51100000000E-03 0. -1.
        -11    1    3    3    0    0  0.36461055393E-01 -0.80813372864E+01  0.78360208308E+00  0.81193210449E+01  0.51100000000E-03 0.  1.
        -12    1    3    3    0    0  0.21097030787E+02  0.19777275108E+02  0.31269687465E+02  0.42591298089E+02  0.00000000000E+00 0.  1.
</event>
<event>
 7    1  0.1999542E-015  0.9000777E+02  0.7816164E-02  0.1186339E+00
        -11   -1    0    0    0    0  0.00000000000E+00  0.00000000000E+00  0.45593999997E+02  0.45594000000E+02  0.51100000000E-03 0.  1.
         11   -1    0    0    0    0 -0.00000000000E+00 -0.00000000000E+00 -0.45593999997E+02  0.45594000000E+02  0.51100000000E-03 0. -1.
    9900012    2    1    2    0    0  0.12227919791E+00 -0.83635244664E-01  0.11708936166E+01  0.90007771667E+02  0.90000033453E+02 0.  0.
         12    1    1    2    0    0 -0.12227919791E+00  0.83635244664E-01 -0.11708936166E+01  0.11802283329E+01  0.00000000000E+00 0. -1.
         11    1    3    3    0    0  0.12234343411E+02 -0.53951354552E+00  0.86428617098E+01  0.14988972358E+02  0.51100000000E-03 0. -1.
        -11    1    3    3    0    0 -0.16560791775E+01 -0.32726855418E+02  0.12300902169E+02  0.35001455087E+02  0.51100000000E-03 0.  1.
         12    1    3    3    0    0 -0.10455985035E+02  0.33182733719E+02 -0.19772870262E+02  0.40017344221E+02  0.00000000000E+00 0. -1.
</event>
<event>
 7    1  0.1999542E-015  0.9000785E+02  0.7816164E-02  0.1186339E+00
        -11   -1    0    0    0    0  0.00000000000E+00  0.00000000000E+00  0.45593999997E+02  0.45594000000E+02  0.51100000000E-03 0.  1.
         11   -1    0    0    0    0 -0.00000000000E+00 -0.00000000000E+00 -0.45593999997E+02  0.45594000000E+02  0.51100000000E-03 0. -1.
    9900012    2    1    2    0    0  0.75996802158E+00  0.41256298799E+00  0.80312176125E+00  0.90007845698E+02  0.90000108461E+02 0.  0.
         12    1    1    2    0    0 -0.75996802158E+00 -0.41256298799E+00 -0.80312176125E+00  0.11801543019E+01  0.00000000000E+00 0. -1.
         11    1    3    3    0    0  0.22623221940E+02  0.25139167324E+01 -0.14807570112E+02  0.27155001034E+02  0.51100000000E-03 0. -1.
        -11    1    3    3    0    0  0.14781067432E+02  0.11388172924E+02 -0.41109227157E+01  0.19106808284E+02  0.51100000000E-03 0.  1.
        -12    1    3    3    0    0 -0.36644321351E+02 -0.13489526668E+02  0.19721614588E+02  0.43746036380E+02  0.00000000000E+00 0.  1.
</event>
<event>
 7    1  0.1999542E-015  0.9000762E+02  0.7816164E-02  0.1186339E+00
        -11   -1    0    0    0    0  0.00000000000E+00  0.00000000000E+00  0.45593999997E+02  0.45594000000E+02  0.51100000000E-03 0. -1.
         11   -1    0    0    0    0 -0.00000000000E+00 -0.00000000000E+00 -0.45593999997E+02  0.45594000000E+02  0.51100000000E-03 0.  1.
    9900012    2    1    2    0    0  0.85339519455E+00 -0.22376302299E+00 -0.78418716451E+00  0.90007617538E+02  0.89999877289E+02 0.  0.
         12    1    1    2    0    0 -0.85339519455E+00  0.22376302299E+00  0.78418716451E+00  0.11803824624E+01  0.00000000000E+00 0. -1.
         11    1    3    3    0    0  0.88543830958E+01 -0.22299779670E+02 -0.12042338665E+02  0.26845822657E+02  0.51100000000E-03 0. -1.
        -11    1    3    3    0    0  0.71175788598E+00  0.15208609997E+02 -0.22758571186E+02  0.27381763640E+02  0.51100000000E-03 0.  1.
         12    1    3    3    0    0 -0.87127457872E+01  0.68674066500E+01  0.34016722687E+02  0.35780031241E+02  0.00000000000E+00 0. -1.
</event>
<event>
 7    1  0.1999542E-015  0.9000772E+02  0.7816164E-02  0.1186339E+00
        -11   -1    0    0    0    0  0.00000000000E+00  0.00000000000E+00  0.45593999997E+02  0.45594000000E+02  0.51100000000E-03 0. -1.
         11   -1    0    0    0    0 -0.00000000000E+00 -0.00000000000E+00 -0.45593999997E+02  0.45594000000E+02  0.51100000000E-03 0.  1.
    9900012    2    1    2    0    0 -0.49321157904E+00  0.86522443481E+00 -0.63339265658E+00  0.90007721541E+02  0.89999982665E+02 0.  0.
         12    1    1    2    0    0  0.49321157904E+00 -0.86522443481E+00  0.63339265658E+00  0.11802784594E+01  0.00000000000E+00 0. -1.
         11    1    3    3    0    0  0.14236755572E+02  0.32626109393E+02  0.62655849079E+01  0.36144235748E+02  0.51100000000E-03 0. -1.
        -11    1    3    3    0    0  0.81697665559E+00  0.61736251911E+01  0.80928896720E+01  0.10211560231E+02  0.51100000000E-03 0.  1.
        -12    1    3    3    0    0 -0.15546943806E+02 -0.37934510149E+02 -0.14991867236E+02  0.43651925561E+02  0.00000000000E+00 0.  1.
</event>
<event>
 7    1  0.1999542E-015  0.9000769E+02  0.7816164E-02  0.1186339E+00
        -11   -1    0    0    0    0  0.00000000000E+00  0.00000000000E+00  0.45593999997E+02  0.45594000000E+02  0.51100000000E-03 0.  1.
         11   -1    0    0    0    0 -0.00000000000E+00 -0.00000000000E+00 -0.45593999997E+02  0.45594000000E+02  0.51100000000E-03 0. -1.
    9900012    2    1    2    0    0  0.82899949525E+00  0.27304304247E+00  0.79456164468E+00  0.90007694585E+02  0.89999955353E+02 0.  0.
         12    1    1    2    0    0 -0.82899949525E+00 -0.27304304247E+00 -0.79456164468E+00  0.11803054153E+01  0.00000000000E+00 0. -1.
         11    1    3    3    0    0  0.96256672301E+01 -0.67836980915E+00 -0.31673952110E-01  0.96495937076E+01  0.51100000000E-03 0. -1.
        -11    1    3    3    0    0  0.20207601551E+02  0.27352675730E+02  0.16895114166E+02  0.37973160429E+02  0.51100000000E-03 0.  1.
         12    1    3    3    0    0 -0.29004269285E+02 -0.26401262878E+02 -0.16068878569E+02  0.42384940448E+02  0.00000000000E+00 0. -1.
</event>
<event>
 7    1  0.1999542E-015  0.9000773E+02  0.7816164E-02  0.1186339E+00
        -11   -1    0    0    0    0  0.00000000000E+00  0.00000000000E+00  0.45593999997E+02  0.45594000000E+02  0.51100000000E-03 0. -1.
         11   -1    0    0    0    0 -0.00000000000E+00 -0.00000000000E+00 -0.45593999997E+02  0.45594000000E+02  0.51100000000E-03 0.  1.
    9900012    2    1    2    0    0  0.11159531223E+01 -0.55379272066E-01 -0.38029308077E+00  0.90007728395E+02  0.89999989610E+02 0.  0.
         12    1    1    2    0    0 -0.11159531223E+01  0.55379272066E-01  0.38029308077E+00  0.11802716053E+01  0.00000000000E+00 0. -1.
         11    1    3    3    0    0  0.42594900465E+02  0.36798361157E+01 -0.12545248216E+02  0.44556144273E+02  0.51100000000E-03 0. -1.
        -11    1    3    3    0    0 -0.63994204275E+01 -0.55032244374E+01  0.55506835333E+00  0.84584964476E+01  0.51100000000E-03 0.  1.
        -12    1    3    3    0    0 -0.35079526915E+02  0.17680090496E+01  0.11609886782E+02  0.36993087674E+02  0.00000000000E+00 0.  1.
</event>
<event>
 7    1  0.1999542E-015  0.9000774E+02  0.7816164E-02  0.1186339E+00
        -11   -1    0    0    0    0  0.00000000000E+00  0.00000000000E+00  0.45593999997E+02  0.45594000000E+02  0.51100000000E-03 0.  1.
         11   -1    0    0    0    0 -0.00000000000E+00 -0.00000000000E+00 -0.45593999997E+02  0.45594000000E+02  0.51100000000E-03 0. -1.
    9900012    2    1    2    0    0  0.32355164174E+00  0.54019312246E+00  0.99825257550E+00  0.90007744740E+02  0.90000006170E+02 0.  0.
         12    1    1    2    0    0 -0.32355164174E+00 -0.54019312246E+00 -0.99825257550E+00  0.11802552601E+01  0.00000000000E+00 0. -1.
         11    1    3    3    0    0  0.31492364024E+02 -0.26978612648E+01  0.22671401886E+02  0.38897813705E+02  0.51100000000E-03 0. -1.
        -11    1    3    3    0    0 -0.12364521188E+01  0.84597116111E+01  0.56494469319E+01  0.10247525813E+02  0.51100000000E-03 0.  1.
        -12    1    3    3    0    0 -0.29932360264E+02 -0.52216572238E+01 -0.27322596243E+02  0.40862405223E+02  0.00000000000E+00 0.  1.
</event>
<event>
 7    1  0.1999542E-015  0.9000776E+02  0.7816164E-02  0.1186339E+00
        -11   -1    0    0    0    0  0.00000000000E+00  0.00000000000E+00  0.45593999997E+02  0.45594000000E+02  0.51100000000E-03 0. -1.
         11   -1    0    0    0    0 -0.00000000000E+00 -0.00000000000E+00 -0.45593999997E+02  0.45594000000E+02  0.51100000000E-03 0.  1.
    9900012    2    1    2    0    0 -0.20371481826E+00  0.11344909934E+01 -0.25378685935E+00  0.90007755402E+02  0.90000016973E+02 0.  0.
         12    1    1    2    0    0  0.20371481826E+00 -0.11344909934E+01  0.25378685935E+00  0.11802445980E+01  0.00000000000E+00 0. -1.
         11    1    3    3    0    0 -0.78946217510E+01 -0.38231950589E+00  0.65728039817E+01  0.10279736049E+02  0.51100000000E-03 0. -1.
        -11    1    3    3    0    0  0.12772472606E+02 -0.37734399705E+02 -0.25522944298E+01  0.39919108014E+02  0.51100000000E-03 0.  1.
         12    1    3    3    0    0 -0.50815656731E+01  0.39251210204E+02 -0.42742964113E+01  0.39808911339E+02  0.00000000000E+00 0. -1.
</event>
<event>
 7    1  0.1999542E-015  0.9000778E+02  0.7816164E-02  0.1186339E+00
        -11   -1    0    0    0    0  0.00000000000E+00  0.00000000000E+00  0.45593999997E+02  0.45594000000E+02  0.51100000000E-03 0. -1.
         11   -1    0    0    0    0 -0.00000000000E+00 -0.00000000000E+00 -0.45593999997E+02  0.45594000000E+02  0.51100000000E-03 0.  1.
    9900012    2    1    2    0    0  0.11739008394E+01  0.10885193240E+00 -0.55029912606E-01  0.90007779590E+02  0.90000041481E+02 0.  0.
         12    1    1    2    0    0 -0.11739008394E+01 -0.10885193240E+00  0.55029912606E-01  0.11802204096E+01  0.00000000000E+00 0. -1.
         11    1    3    3    0    0 -0.52203843246E+01 -0.24808996249E+01  0.43170853663E+00  0.57960027577E+01  0.51100000000E-03 0. -1.
        -11    1    3    3    0    0  0.10006986764E+02  0.12786398520E+02 -0.40039477092E+02  0.43206382599E+02  0.51100000000E-03 0.  1.
         12    1    3    3    0    0 -0.36127016002E+01 -0.10196646963E+02  0.39552738643E+02  0.41005394234E+02  0.00000000000E+00 0. -1.
</event>
<event>
 7    1  0.1999542E-015  0.9000768E+02  0.7816164E-02  0.1186339E+00
        -11   -1    0    0    0    0  0.00000000000E+00  0.00000000000E+00  0.45593999997E+02  0.45594000000E+02  0.51100000000E-03 0.  1.
         11   -1    0    0    0    0 -0.00000000000E+00 -0.00000000000E+00 -0.45593999997E+02  0.45594000000E+02  0.51100000000E-03 0. -1.
    9900012    2    1    2    0    0  0.30810157412E+00 -0.61965956619E+00  0.95616280162E+00  0.90007681458E+02  0.89999942053E+02 0.  0.
         12    1    1    2    0    0 -0.30810157412E+00  0.61965956619E+00 -0.95616280162E+00  0.11803185422E+01  0.00000000000E+00 0. -1.
         11    1    3    3    0    0  0.33426817443E+02  0.15861484517E+02  0.11479055601E+01  0.37016975874E+02  0.51100000000E-03 0. -1.
        -11    1    3    3    0    0 -0.11637145210E+02  0.65881001210E+01 -0.13291938338E+02  0.18854756347E+02  0.51100000000E-03 0.  1.
        -12    1    3    3    0    0 -0.21481570658E+02 -0.23069244204E+02  0.13100195579E+02  0.34135949237E+02  0.00000000000E+00 0.  1.
</event>
<event>
 7    1  0.1999542E-015  0.9000758E+02  0.7816164E-02  0.1186339E+00
        -11   -1    0    0    0    0  0.00000000000E+00  0.00000000000E+00  0.45593999997E+02  0.45594000000E+02  0.51100000000E-03 0.  1.
         11   -1    0    0    0    0 -0.00000000000E+00 -0.00000000000E+00 -0.45593999997E+02  0.45594000000E+02  0.51100000000E-03 0. -1.
    9900012    2    1    2    0    0 -0.54088327167E+00  0.90210087956E+00 -0.53576432169E+00  0.90007583074E+02  0.89999842371E+02 0.  0.
         12    1    1    2    0    0  0.54088327167E+00 -0.90210087956E+00  0.53576432169E+00  0.11804169259E+01  0.00000000000E+00 0. -1.
         11    1    3    3    0    0 -0.52814198055E+01  0.26042003627E+01  0.36707464107E+01  0.69389937429E+01  0.51100000000E-03 0. -1.
        -11    1    3    3    0    0 -0.12007768049E+02 -0.32502243585E+02  0.20425147274E+02  0.40221498891E+02  0.51100000000E-03 0.  1.
         12    1    3    3    0    0  0.16748304582E+02  0.30800144102E+02 -0.24631658007E+02  0.42847090441E+02  0.00000000000E+00 0. -1.
</event>
<event>
 7    1  0.1999542E-015  0.9000774E+02  0.7816164E-02  0.1186339E+00
        -11   -1    0    0    0    0  0.00000000000E+00  0.00000000000E+00  0.45593999997E+02  0.45594000000E+02  0.51100000000E-03 0.  1.
         11   -1    0    0    0    0 -0.00000000000E+00 -0.00000000000E+00 -0.45593999997E+02  0.45594000000E+02  0.51100000000E-03 0. -1.
    9900012    2    1    2    0    0 -0.49651433471E+00 -0.83062643099E+00  0.67567908942E+00  0.90007741984E+02  0.90000003378E+02 0.  0.
         12    1    1    2    0    0  0.49651433471E+00  0.83062643099E+00 -0.67567908942E+00  0.11802580160E+01  0.00000000000E+00 0. -1.
         11    1    3    3    0    0  0.64886239654E+01  0.65136898586E+01  0.14649708626E+02  0.17295790229E+02  0.51100000000E-03 0. -1.
        -11    1    3    3    0    0 -0.22786684559E+02 -0.16817812978E+01  0.22805983009E+02  0.32282723596E+02  0.51100000000E-03 0.  1.
         12    1    3    3    0    0  0.15801546259E+02 -0.56625349918E+01 -0.36780012546E+02  0.40429228159E+02  0.00000000000E+00 0. -1.
</event>
<event>
 7    1  0.1999542E-015  0.9000771E+02  0.7816164E-02  0.1186339E+00
        -11   -1    0    0    0    0  0.00000000000E+00  0.00000000000E+00  0.45593999997E+02  0.45594000000E+02  0.51100000000E-03 0.  1.
         11   -1    0    0    0    0 -0.00000000000E+00 -0.00000000000E+00 -0.45593999997E+02  0.45594000000E+02  0.51100000000E-03 0. -1.
    9900012    2    1    2    0    0  0.36933390656E+00  0.87172445902E+00  0.70482167274E+00  0.90007709927E+02  0.89999970898E+02 0.  0.
         12    1    1    2    0    0 -0.36933390656E+00 -0.87172445902E+00 -0.70482167274E+00  0.11802900734E+01  0.00000000000E+00 0. -1.
         11    1    3    3    0    0 -0.71048874872E+01 -0.12871170698E+02  0.76652728410E+01  0.16580195094E+02  0.51100000000E-03 0. -1.
        -11    1    3    3    0    0  0.21126017527E+02  0.17085324905E+01  0.27342847443E+02  0.34595650107E+02  0.51100000000E-03 0.  1.
         12    1    3    3    0    0 -0.13651796133E+02  0.12034362667E+02 -0.34303298611E+02  0.38831864726E+02  0.00000000000E+00 0. -1.
</event>
<event>
 7    1  0.1999542E-015  0.9000776E+02  0.7816164E-02  0.1186339E+00
        -11   -1    0    0    0    0  0.00000000000E+00  0.00000000000E+00  0.45593999997E+02  0.45594000000E+02  0.51100000000E-03 0.  1.
         11   -1    0    0    0    0 -0.00000000000E+00 -0.00000000000E+00 -0.45593999997E+02  0.45594000000E+02  0.51100000000E-03 0. -1.
    9900012    2    1    2    0    0 -0.72890960006E+00 -0.50438993933E+00  0.77926323178E+00  0.90007758669E+02  0.90000020283E+02 0.  0.
         12    1    1    2    0    0  0.72890960006E+00  0.50438993933E+00 -0.77926323178E+00  0.11802413314E+01  0.00000000000E+00 0. -1.
         11    1    3    3    0    0 -0.39553903750E+02  0.67696542499E+01  0.79443790201E+01  0.40907855955E+02  0.51100000000E-03 0. -1.
        -11    1    3    3    0    0  0.34618298324E+00  0.72296260980E+01  0.55831408519E+00  0.72594112057E+01  0.51100000000E-03 0.  1.
        -12    1    3    3    0    0  0.38478811167E+02 -0.14503670287E+02 -0.77234298735E+01  0.41840491508E+02  0.00000000000E+00 0.  1.
</event>
<event>
 7    1  0.2038893E-015  0.9000773E+02  0.7816164E-02  0.1186339E+00
        -11   -1    0    0    0    0  0.00000000000E+00  0.00000000000E+00  0.45593999997E+02  0.45594000000E+02  0.51100000000E-03 0. -1.
         11   -1    0    0    0    0 -0.00000000000E+00 -0.00000000000E+00 -0.45593999997E+02  0.45594000000E+02  0.51100000000E-03 0.  1.
    9900012    2    1    2    0    0  0.42254681370E-01  0.73062782977E+00 -0.92597747048E+00  0.90007730217E+02  0.89999991456E+02 0.  0.
         12    1    1    2    0    0 -0.42254681370E-01 -0.73062782977E+00  0.92597747048E+00  0.11802697825E+01  0.00000000000E+00 0. -1.
         11    1    3    3    0    0 -0.20187411716E+02 -0.31824000917E+02  0.13309173209E+02  0.39967896091E+02  0.51100000000E-03 0. -1.
        -11    1    3    3    0    0 -0.66656410139E+00  0.56268378894E+01  0.76605452362E+01  0.95283558872E+01  0.51100000000E-03 0.  1.
        -12    1    3    3    0    0  0.20896230499E+02  0.26927790858E+02 -0.21895695915E+02  0.40511478239E+02  0.00000000000E+00 0.  1.
</event>
<event>
 7    1  0.2018314E-015  0.9000777E+02  0.7816164E-02  0.1186339E+00
        -11   -1    0    0    0    0  0.00000000000E+00  0.00000000000E+00  0.45593999997E+02  0.45594000000E+02  0.51100000000E-03 0. -1.
         11   -1    0    0    0    0 -0.00000000000E+00 -0.00000000000E+00 -0.45593999997E+02  0.45594000000E+02  0.51100000000E-03 0.  1.
    9900012    2    1    2    0    0  0.11401138346E+01  0.29915764233E+00 -0.59924568921E-01  0.90007768749E+02  0.90000030497E+02 0.  0.
         12    1    1    2    0    0 -0.11401138346E+01 -0.29915764233E+00  0.59924568921E-01  0.11802312506E+01  0.00000000000E+00 0. -1.
         11    1    3    3    0    0  0.56137007287E+01  0.35559251784E+02  0.44016615128E+01  0.36267735629E+02  0.51100000000E-03 0. -1.
        -11    1    3    3    0    0  0.51065597153E+01  0.59543218324E+01  0.63216413127E+01  0.10074425530E+02  0.51100000000E-03 0.  1.
        -12    1    3    3    0    0 -0.95801466093E+01 -0.41214415975E+02 -0.10783227394E+02  0.43665607590E+02  0.00000000000E+00 0.  1.
</event>
<event>
 7    1  0.1999542E-015  0.9000772E+02  0.7816164E-02  0.1186339E+00
        -11   -1    0    0    0    0  0.00000000000E+00  0.00000000000E+00  0.45593999997E+02  0.45594000000E+02  0.51100000000E-03 0.  1.
         11   -1    0    0    0    0 -0.00000000000E+00 -0.00000000000E+00 -0.45593999997E+02  0.45594000000E+02  0.51100000000E-03 0. -1.
    9900012    2    1    2    0    0 -0.10329278247E+01 -0.56988672814E+00 -0.36584036100E-01  0.90007724962E+02  0.89999986131E+02 0.  0.
         12    1    1    2    0    0  0.10329278247E+01  0.56988672814E+00  0.36584036100E-01  0.11802750381E+01  0.00000000000E+00 0. -1.
         11    1    3    3    0    0  0.66989191384E+00  0.89001514301E+01  0.37986110641E+01  0.97000462335E+01  0.51100000000E-03 0. -1.
        -11    1    3    3    0    0 -0.11076264179E+02 -0.32359108614E+02  0.24964898255E+02  0.42344322920E+02  0.51100000000E-03 0.  1.
         12    1    3    3    0    0  0.93734444403E+01  0.22889070455E+02 -0.28800093355E+02  0.37963355808E+02  0.00000000000E+00 0. -1.
</event>
<event>
 7    1  0.1999542E-015  0.9000773E+02  0.7816164E-02  0.1186339E+00
        -11   -1    0    0    0    0  0.00000000000E+00  0.00000000000E+00  0.45593999997E+02  0.45594000000E+02  0.51100000000E-03 0.  1.
         11   -1    0    0    0    0 -0.00000000000E+00 -0.00000000000E+00 -0.45593999997E+02  0.45594000000E+02  0.51100000000E-03 0. -1.
    9900012    2    1    2    0    0 -0.37360702564E-01 -0.92365209314E+00  0.73382454948E+00  0.90007734148E+02  0.89999995439E+02 0.  0.
         12    1    1    2    0    0  0.37360702564E-01  0.92365209314E+00 -0.73382454948E+00  0.11802658517E+01  0.00000000000E+00 0. -1.
         11    1    3    3    0    0  0.10247316208E+02 -0.74742753877E+01 -0.29263854633E+02  0.31894285856E+02  0.51100000000E-03 0. -1.
        -11    1    3    3    0    0  0.49701152000E+01  0.13820601392E+02 -0.78581260766E+01  0.16657167035E+02  0.51100000000E-03 0.  1.
        -12    1    3    3    0    0 -0.15254792111E+02 -0.72699780976E+01  0.37855805259E+02  0.41456281257E+02  0.00000000000E+00 0.  1.
</event>
<event>
 7    1  0.1999542E-015  0.9000778E+02  0.7816164E-02  0.1186339E+00
        -11   -1    0    0    0    0  0.00000000000E+00  0.00000000000E+00  0.45593999997E+02  0.45594000000E+02  0.51100000000E-03 0. -1.
         11   -1    0    0    0    0 -0.00000000000E+00 -0.00000000000E+00 -0.45593999997E+02  0.45594000000E+02  0.51100000000E-03 0.  1.
    9900012    2    1    2    0    0  0.10277992101E+01  0.35834120964E+00 -0.45622823542E+00  0.90007778054E+02  0.90000039924E+02 0.  0.
         12    1    1    2    0    0 -0.10277992101E+01 -0.35834120964E+00  0.45622823542E+00  0.11802219459E+01  0.00000000000E+00 0. -1.
         11    1    3    3    0    0 -0.45398470584E+00  0.87691080350E+01 -0.28244626286E+01  0.92239333933E+01  0.51100000000E-03 0. -1.
        -11    1    3    3    0    0  0.27441363326E+02  0.28674514310E+01 -0.27973111557E+02  0.39290529003E+02  0.51100000000E-03 0.  1.
         12    1    3    3    0    0 -0.25959579410E+02 -0.11278218256E+02  0.30341345950E+02  0.41493315658E+02  0.00000000000E+00 0. -1.
</event>
<event>
 7    1  0.1999542E-015  0.9000776E+02  0.7816164E-02  0.1186339E+00
        -11   -1    0    0    0    0  0.00000000000E+00  0.00000000000E+00  0.45593999997E+02  0.45594000000E+02  0.51100000000E-03 0.  1.
         11   -1    0    0    0    0 -0.00000000000E+00 -0.00000000000E+00 -0.45593999997E+02  0.45594000000E+02  0.51100000000E-03 0. -1.
    9900012    2    1    2    0    0 -0.76578862223E+00 -0.89431140702E+00  0.82088598306E-01  0.90007761192E+02  0.90000022839E+02 0.  0.
         12    1    1    2    0    0  0.76578862223E+00  0.89431140702E+00 -0.82088598306E-01  0.11802388083E+01  0.00000000000E+00 0. -1.
         11    1    3    3    0    0  0.27129146083E+02  0.17099481948E+02  0.16457865498E+02  0.36045029991E+02  0.51100000000E-03 0. -1.
        -11    1    3    3    0    0  0.14876696377E+01  0.93042702308E+01  0.23335334950E+01  0.97071099876E+01  0.51100000000E-03 0.  1.
        -12    1    3    3    0    0 -0.29382604343E+02 -0.27298063586E+02 -0.18709310395E+02  0.44255621213E+02  0.00000000000E+00 0.  1.
</event>
<event>
 7    1  0.1999542E-015  0.9000771E+02  0.7816164E-02  0.1186339E+00
        -11   -1    0    0    0    0  0.00000000000E+00  0.00000000000E+00  0.45593999997E+02  0.45594000000E+02  0.51100000000E-03 0. -1.
         11   -1    0    0    0    0 -0.00000000000E+00 -0.00000000000E+00 -0.45593999997E+02  0.45594000000E+02  0.51100000000E-03 0.  1.
    9900012    2    1    2    0    0  0.48521663128E+00 -0.75192411841E+00 -0.76958740495E+00  0.90007707734E+02  0.89999968676E+02 0.  0.
         12    1    1    2    0    0 -0.48521663128E+00  0.75192411841E+00  0.76958740495E+00  0.11802922659E+01  0.00000000000E+00 0. -1.
         11    1    3    3    0    0  0.57075141981E+00  0.30502810074E+02 -0.61508007763E+01  0.31122010379E+02  0.51100000000E-03 0. -1.
        -11    1    3    3    0    0 -0.23210043839E+01  0.13177233312E+02 -0.27520803146E+01  0.13660178821E+02  0.51100000000E-03 0.  1.
        -12    1    3    3    0    0  0.22354695954E+01 -0.44431967503E+02  0.81332936859E+01  0.45225518535E+02  0.00000000000E+00 0.  1.
</event>
<event>
 7    1  0.1999542E-015  0.9000830E+02  0.7816164E-02  0.1186338E+00
        -11   -1    0    0    0    0  0.00000000000E+00  0.00000000000E+00  0.45593999997E+02  0.45594000000E+02  0.51100000000E-03 0. -1.
         11   -1    0    0    0    0 -0.00000000000E+00 -0.00000000000E+00 -0.45593999997E+02  0.45594000000E+02  0.51100000000E-03 0.  1.
    9900012    2    1    2    0    0 -0.72608000615E+00 -0.62818052318E+00 -0.68547738199E+00  0.90008304198E+02  0.90000573011E+02 0.  0.
         12    1    1    2    0    0  0.72608000615E+00  0.62818052318E+00  0.68547738199E+00  0.11796958024E+01  0.00000000000E+00 0. -1.
         11    1    3    3    0    0  0.67073153301E+01 -0.12284426843E+01  0.58327472859E+01  0.89731873673E+01  0.51100000000E-03 0. -1.
        -11    1    3    3    0    0 -0.26997990376E+02  0.30136035792E+02 -0.17298285515E+02  0.44003440998E+02  0.51100000000E-03 0.  1.
         12    1    3    3    0    0  0.19564595040E+02 -0.29535773631E+02  0.10780060848E+02  0.37031675832E+02  0.00000000000E+00 0. -1.
</event>
<event>
 7    1  0.1999542E-015  0.9000779E+02  0.7816164E-02  0.1186339E+00
        -11   -1    0    0    0    0  0.00000000000E+00  0.00000000000E+00  0.45593999997E+02  0.45594000000E+02  0.51100000000E-03 0. -1.
         11   -1    0    0    0    0 -0.00000000000E+00 -0.00000000000E+00 -0.45593999997E+02  0.45594000000E+02  0.51100000000E-03 0.  1.
    9900012    2    1    2    0    0 -0.49942850130E+00  0.46850283753E+00 -0.96123057505E+00  0.90007793257E+02  0.90000055328E+02 0.  0.
         12    1    1    2    0    0  0.49942850130E+00 -0.46850283753E+00  0.96123057505E+00  0.11802067425E+01  0.00000000000E+00 0. -1.
         11    1    3    3    0    0 -0.32193102988E+02  0.18350932470E+02  0.99834211146E+01  0.38377353998E+02  0.51100000000E-03 0. -1.
        -11    1    3    3    0    0  0.13681498562E+02  0.19835453421E+01 -0.19121486320E+02  0.23595531237E+02  0.51100000000E-03 0.  1.
        -12    1    3    3    0    0  0.18012175925E+02 -0.19865974974E+02  0.81768346302E+01  0.28034908022E+02  0.00000000000E+00 0.  1.
</event>
<event>
 7    1  0.1999542E-015  0.9000742E+02  0.7816164E-02  0.1186340E+00
        -11   -1    0    0    0    0  0.00000000000E+00  0.00000000000E+00  0.45593999997E+02  0.45594000000E+02  0.51100000000E-03 0. -1.
         11   -1    0    0    0    0 -0.00000000000E+00 -0.00000000000E+00 -0.45593999997E+02  0.45594000000E+02  0.51100000000E-03 0.  1.
    9900012    2    1    2    0    0  0.11658397248E+01 -0.15597486130E+00  0.10127634704E+00  0.90007420769E+02  0.89999677923E+02 0.  0.
         12    1    1    2    0    0 -0.11658397248E+01  0.15597486130E+00 -0.10127634704E+00  0.11805792306E+01  0.00000000000E+00 0. -1.
         11    1    3    3    0    0  0.19873838588E+02  0.26162526193E+02 -0.22387687744E+02  0.39757462190E+02  0.51100000000E-03 0. -1.
        -11    1    3    3    0    0  0.71424939127E-01 -0.46412705476E+01 -0.74579282871E+01  0.87844856659E+01  0.51100000000E-03 0.  1.
        -12    1    3    3    0    0 -0.18779423802E+02 -0.21677230507E+02  0.29946892379E+02  0.41465472913E+02  0.00000000000E+00 0.  1.
</event>
<event>
 7    1  0.1999542E-015  0.9000772E+02  0.7816164E-02  0.1186339E+00
        -11   -1    0    0    0    0  0.00000000000E+00  0.00000000000E+00  0.45593999997E+02  0.45594000000E+02  0.51100000000E-03 0. -1.
         11   -1    0    0    0    0 -0.00000000000E+00 -0.00000000000E+00 -0.45593999997E+02  0.45594000000E+02  0.51100000000E-03 0.  1.
    9900012    2    1    2    0    0 -0.47780702377E+00  0.86696507031E+00 -0.64274843762E+00  0.90007723109E+02  0.89999984254E+02 0.  0.
         12    1    1    2    0    0  0.47780702377E+00 -0.86696507031E+00  0.64274843762E+00  0.11802768909E+01  0.00000000000E+00 0. -1.
         11    1    3    3    0    0  0.17868759485E+02  0.32747366046E+02  0.57750608126E+00  0.37309731465E+02  0.51100000000E-03 0. -1.
        -11    1    3    3    0    0  0.81536146845E+01 -0.54132741417E+00  0.70959303786E+01  0.10822508766E+02  0.51100000000E-03 0.  1.
        -12    1    3    3    0    0 -0.26500181193E+02 -0.31339073562E+02 -0.83161848974E+01  0.41875482878E+02  0.00000000000E+00 0.  1.
</event>
<event>
 7    1  0.1999542E-015  0.9000776E+02  0.7816164E-02  0.1186339E+00
        -11   -1    0    0    0    0  0.00000000000E+00  0.00000000000E+00  0.45593999997E+02  0.45594000000E+02  0.51100000000E-03 0. -1.
         11   -1    0    0    0    0 -0.00000000000E+00 -0.00000000000E+00 -0.45593999997E+02  0.45594000000E+02  0.51100000000E-03 0.  1.
    9900012    2    1    2    0    0 -0.10883973394E+01 -0.82262432723E-01  0.44897550299E+00  0.90007764905E+02  0.90000026602E+02 0.  0.
         12    1    1    2    0    0  0.10883973394E+01  0.82262432723E-01 -0.44897550299E+00  0.11802350946E+01  0.00000000000E+00 0. -1.
         11    1    3    3    0    0  0.27961266241E+01 -0.19419543402E+02  0.26918313147E+02  0.33309646846E+02  0.51100000000E-03 0. -1.
        -11    1    3    3    0    0  0.60449791139E+01 -0.87197519968E+01  0.63725257014E+01  0.12376790030E+02  0.51100000000E-03 0.  1.
        -12    1    3    3    0    0 -0.99295030775E+01  0.28057032966E+02 -0.32841863346E+02  0.44321328029E+02  0.00000000000E+00 0.  1.
</event>
<event>
 7    1  0.1999542E-015  0.9000777E+02  0.7816164E-02  0.1186339E+00
        -11   -1    0    0    0    0  0.00000000000E+00  0.00000000000E+00  0.45593999997E+02  0.45594000000E+02  0.51100000000E-03 0. -1.
         11   -1    0    0    0    0 -0.00000000000E+00 -0.00000000000E+00 -0.45593999997E+02  0.45594000000E+02  0.51100000000E-03 0.  1.
    9900012    2    1    2    0    0 -0.97816028063E+00 -0.51015392338E+00  0.41939946911E+00  0.90007766771E+02  0.90000028492E+02 0.  0.
         12    1    1    2    0    0  0.97816028063E+00  0.51015392338E+00 -0.41939946911E+00  0.11802332290E+01  0.00000000000E+00 0. -1.
         11    1    3    3    0    0 -0.28076115798E+01  0.15704207264E+02  0.80674244478E+01  0.17877028446E+02  0.51100000000E-03 0. -1.
        -11    1    3    3    0    0 -0.23734692513E+02  0.11206048775E+02  0.13044995830E+02  0.29310118975E+02  0.51100000000E-03 0.  1.
         12    1    3    3    0    0  0.25564143812E+02 -0.27420409962E+02 -0.20693020809E+02  0.42820619350E+02  0.00000000000E+00 0. -1.
</event>
<event>
 7    1  0.1999542E-015  0.9000769E+02  0.7816164E-02  0.1186339E+00
        -11   -1    0    0    0    0  0.00000000000E+00  0.00000000000E+00  0.45593999997E+02  0.45594000000E+02  0.51100000000E-03 0.  1.
         11   -1    0    0    0    0 -0.00000000000E+00 -0.00000000000E+00 -0.45593999997E+02  0.45594000000E+02  0.51100000000E-03 0. -1.
    9900012    2    1    2    0    0 -0.10003772265E+01  0.50777271375E+00 -0.36681388874E+00  0.90007686417E+02  0.89999947078E+02 0.  0.
         12    1    1    2    0    0  0.10003772265E+01 -0.50777271375E+00  0.36681388874E+00  0.11803135826E+01  0.00000000000E+00 0. -1.
         11    1    3    3    0    0 -0.19742685115E+02  0.20886959080E+02 -0.22424451851E+02  0.36454008233E+02  0.51100000000E-03 0. -1.
        -11    1    3    3    0    0  0.69950711180E+01  0.10334323393E+01 -0.10619307275E+02  0.12758083305E+02  0.51100000000E-03 0.  1.
        -12    1    3    3    0    0  0.11747236771E+02 -0.21412618706E+02  0.32676945237E+02  0.40795594880E+02  0.00000000000E+00 0.  1.
</event>
<event>
 7    1  0.1999542E-015  0.9000775E+02  0.7816164E-02  0.1186339E+00
        -11   -1    0    0    0    0  0.00000000000E+00  0.00000000000E+00  0.45593999997E+02  0.45594000000E+02  0.51100000000E-03 0.  1.
         11   -1    0    0    0    0 -0.00000000000E+00 -0.00000000000E+00 -0.45593999997E+02  0.45594000000E+02  0.51100000000E-03 0. -1.
    9900012    2    1    2    0    0 -0.44196399985E+00  0.90261400225E-01  0.10906451660E+01  0.90007751647E+02  0.90000013168E+02 0.  0.
         12    1    1    2    0    0  0.44196399985E+00 -0.90261400225E-01 -0.10906451660E+01  0.11802483533E+01  0.00000000000E+00 0. -1.
         11    1    3    3    0    0  0.12153133664E+02 -0.10309021534E+02 -0.35816433665E+02  0.39201932396E+02  0.51100000000E-03 0. -1.
        -11    1    3    3    0    0  0.43766313601E+01 -0.70395961916E+01  0.24901582872E+01  0.86551548316E+01  0.51100000000E-03 0.  1.
        -12    1    3    3    0    0 -0.16971729024E+02  0.17438879126E+02  0.34416920544E+02  0.42150664419E+02  0.00000000000E+00 0.  1.
</event>
<event>
 7    1  0.1999542E-015  0.9000756E+02  0.7816164E-02  0.1186339E+00
        -11   -1    0    0    0    0  0.00000000000E+00  0.00000000000E+00  0.45593999997E+02  0.45594000000E+02  0.51100000000E-03 0. -1.
         11   -1    0    0    0    0 -0.00000000000E+00 -0.00000000000E+00 -0.45593999997E+02  0.45594000000E+02  0.51100000000E-03 0.  1.
    9900012    2    1    2    0    0  0.63700552173E+00  0.96863007926E+00 -0.22229937769E+00  0.90007560557E+02  0.89999819556E+02 0.  0.
         12    1    1    2    0    0 -0.63700552173E+00 -0.96863007926E+00  0.22229937769E+00  0.11804394430E+01  0.00000000000E+00 0. -1.
         11    1    3    3    0    0  0.37927289346E+01 -0.77761640052E+01  0.61242348039E+01  0.10599989226E+02  0.51100000000E-03 0. -1.
        -11    1    3    3    0    0  0.19395535000E+02  0.32761751570E+02  0.14138619209E+02  0.40613048363E+02  0.51100000000E-03 0.  1.
         12    1    3    3    0    0 -0.22551258413E+02 -0.24016957486E+02 -0.20485153390E+02  0.38794522968E+02  0.00000000000E+00 0. -1.
</event>
<event>
 7    1  0.1999542E-015  0.9000781E+02  0.7816164E-02  0.1186339E+00
        -11   -1    0    0    0    0  0.00000000000E+00  0.00000000000E+00  0.45593999997E+02  0.45594000000E+02  0.51100000000E-03 0.  1.
         11   -1    0    0    0    0 -0.00000000000E+00 -0.00000000000E+00 -0.45593999997E+02  0.45594000000E+02  0.51100000000E-03 0. -1.
    9900012    2    1    2    0    0  0.11424622636E+01 -0.10461010171E+00  0.27690441519E+00  0.90007813849E+02  0.90000076191E+02 0.  0.
         12    1    1    2    0    0 -0.11424622636E+01  0.10461010171E+00 -0.27690441519E+00  0.11801861515E+01  0.00000000000E+00 0. -1.
         11    1    3    3    0    0  0.40921638912E-01 -0.18488275259E+01  0.11271669249E+02  0.11422362528E+02  0.51100000000E-03 0. -1.
        -11    1    3    3    0    0 -0.25894844702E+02 -0.56627580316E+01  0.22615813235E+02  0.34843719939E+02  0.51100000000E-03 0.  1.
         12    1    3    3    0    0  0.26996385327E+02  0.74069754558E+01 -0.33610578069E+02  0.43741731381E+02  0.00000000000E+00 0. -1.
</event>
<event>
 7    1  0.1999542E-015  0.9000779E+02  0.7816164E-02  0.1186339E+00
        -11   -1    0    0    0    0  0.00000000000E+00  0.00000000000E+00  0.45593999997E+02  0.45594000000E+02  0.51100000000E-03 0.  1.
         11   -1    0    0    0    0 -0.00000000000E+00 -0.00000000000E+00 -0.45593999997E+02  0.45594000000E+02  0.51100000000E-03 0. -1.
    9900012    2    1    2    0    0  0.33619259404E-01  0.20482072493E+00  0.11618167361E+01  0.90007788192E+02  0.90000050196E+02 0.  0.
         12    1    1    2    0    0 -0.33619259404E-01 -0.20482072493E+00 -0.11618167361E+01  0.11802118082E+01  0.00000000000E+00 0. -1.
         11    1    3    3    0    0 -0.12474737359E+02  0.33226381707E+02  0.22702011756E+02  0.42130664029E+02  0.51100000000E-03 0. -1.
        -11    1    3    3    0    0  0.14482339560E+02 -0.82357884974E+01 -0.31612174982E+01  0.16957584369E+02  0.51100000000E-03 0.  1.
        -12    1    3    3    0    0 -0.19739829416E+01 -0.24785772484E+02 -0.18378977521E+02  0.30919539793E+02  0.00000000000E+00 0.  1.
</event>
<event>
 7    1  0.1999542E-015  0.9000769E+02  0.7816164E-02  0.1186339E+00
        -11   -1    0    0    0    0  0.00000000000E+00  0.00000000000E+00  0.45593999997E+02  0.45594000000E+02  0.51100000000E-03 0.  1.
         11   -1    0    0    0    0 -0.00000000000E+00 -0.00000000000E+00 -0.45593999997E+02  0.45594000000E+02  0.51100000000E-03 0. -1.
    9900012    2    1    2    0    0 -0.18323590543E+00  0.15831605004E+00  0.11552004703E+01  0.90007691780E+02  0.89999952511E+02 0.  0.
         12    1    1    2    0    0  0.18323590543E+00 -0.15831605004E+00 -0.11552004703E+01  0.11803082204E+01  0.00000000000E+00 0. -1.
         11    1    3    3    0    0 -0.65514995818E+01 -0.76114891424E+01 -0.15900817950E+01  0.10167854941E+02  0.51100000000E-03 0. -1.
        -11    1    3    3    0    0 -0.13375784886E+02 -0.11374365846E+02  0.33964792157E+02  0.38234734552E+02  0.51100000000E-03 0.  1.
         12    1    3    3    0    0  0.19744048562E+02  0.19144171039E+02 -0.31219509892E+02  0.41605102286E+02  0.00000000000E+00 0. -1.
</event>
<event>
 7    1  0.1999542E-015  0.9000779E+02  0.7816164E-02  0.1186339E+00
        -11   -1    0    0    0    0  0.00000000000E+00  0.00000000000E+00  0.45593999997E+02  0.45594000000E+02  0.51100000000E-03 0. -1.
         11   -1    0    0    0    0 -0.00000000000E+00 -0.00000000000E+00 -0.45593999997E+02  0.45594000000E+02  0.51100000000E-03 0.  1.
    9900012    2    1    2    0    0  0.36585861072E-01  0.23797117870E+00 -0.11553890105E+01  0.90007791301E+02  0.90000053346E+02 0.  0.
         12    1    1    2    0    0 -0.36585861072E-01 -0.23797117870E+00  0.11553890105E+01  0.11802086988E+01  0.00000000000E+00 0. -1.
         11    1    3    3    0    0 -0.30458907956E+02  0.17497848419E+02 -0.13576515750E+02  0.37659547970E+02  0.51100000000E-03 0. -1.
        -11    1    3    3    0    0 -0.28976172705E+01  0.29846702755E+01 -0.74499890205E+01  0.85326888591E+01  0.51100000000E-03 0.  1.
        -12    1    3    3    0    0  0.33393111087E+02 -0.20244547515E+02  0.19871115759E+02  0.43815554472E+02  0.00000000000E+00 0.  1.
</event>
<event>
 7    1  0.1999542E-015  0.9000767E+02  0.7816164E-02  0.1186339E+00
        -11   -1    0    0    0    0  0.00000000000E+00  0.00000000000E+00  0.45593999997E+02  0.45594000000E+02  0.51100000000E-03 0.  1.
         11   -1    0    0    0    0 -0.00000000000E+00 -0.00000000000E+00 -0.45593999997E+02  0.45594000000E+02  0.51100000000E-03 0. -1.
    9900012    2    1    2    0    0 -0.41827259848E+00  0.23825845929E+00  0.10777093688E+01  0.90007671002E+02  0.89999931459E+02 0.  0.
         12    1    1    2    0    0  0.41827259848E+00 -0.23825845929E+00 -0.10777093688E+01  0.11803289981E+01  0.00000000000E+00 0. -1.
         11    1    3    3    0    0  0.11256706261E+02  0.20237532166E+02 -0.27051020634E+02  0.35609392885E+02  0.51100000000E-03 0. -1.
        -11    1    3    3    0    0  0.54831006849E+01 -0.10719429494E+02 -0.72093720529E+01  0.14033731060E+02  0.51100000000E-03 0.  1.
        -12    1    3    3    0    0 -0.17158079544E+02 -0.92798442132E+01  0.35338102056E+02  0.40364547057E+02  0.00000000000E+00 0.  1.
</event>
<event>
 7    1  0.1999542E-015  0.9000772E+02  0.7816164E-02  0.1186339E+00
        -11   -1    0    0    0    0  0.00000000000E+00  0.00000000000E+00  0.45593999997E+02  0.45594000000E+02  0.51100000000E-03 0.  1.
         11   -1    0    0    0    0 -0.00000000000E+00 -0.00000000000E+00 -0.45593999997E+02  0.45594000000E+02  0.51100000000E-03 0. -1.
    9900012    2    1    2    0    0 -0.11664675635E+01  0.10055479917E+00  0.14937167150E+00  0.90007716246E+02  0.89999977300E+02 0.  0.
         12    1    1    2    0    0  0.11664675635E+01 -0.10055479917E+00 -0.14937167150E+00  0.11802837542E+01  0.00000000000E+00 0. -1.
         11    1    3    3    0    0  0.18491225599E+02 -0.71346975506E+01 -0.34831163909E+02  0.40075420308E+02  0.51100000000E-03 0. -1.
        -11    1    3    3    0    0 -0.33844257052E+01  0.68740253964E+01 -0.32942039505E+01  0.83401644128E+01  0.51100000000E-03 0.  1.
        -12    1    3    3    0    0 -0.16273267457E+02  0.36122695336E+00  0.38274739531E+02  0.41592131525E+02  0.00000000000E+00 0.  1.
</event>
<event>
 7    1  0.1999542E-015  0.9000779E+02  0.7816164E-02  0.1186339E+00
        -11   -1    0    0    0    0  0.00000000000E+00  0.00000000000E+00  0.45593999997E+02  0.45594000000E+02  0.51100000000E-03 0. -1.
         11   -1    0    0    0    0 -0.00000000000E+00 -0.00000000000E+00 -0.45593999997E+02  0.45594000000E+02  0.51100000000E-03 0.  1.
    9900012    2    1    2    0    0 -0.73891045878E+00  0.48455378512E+00 -0.78237028799E+00  0.90007794804E+02  0.90000056896E+02 0.  0.
         12    1    1    2    0    0  0.73891045878E+00 -0.48455378512E+00  0.78237028799E+00  0.11802051958E+01  0.00000000000E+00 0. -1.
         11    1    3    3    0    0  0.10269435024E+02  0.18140897085E+02  0.28880368550E+02  0.35617820408E+02  0.51100000000E-03 0. -1.
        -11    1    3    3    0    0 -0.31168804331E+01  0.90922289857E+01  0.42274801499E+01  0.10500245723E+02  0.51100000000E-03 0.  1.
        -12    1    3    3    0    0 -0.78914650494E+01 -0.26748572286E+02 -0.33890218988E+02  0.43889728673E+02  0.00000000000E+00 0.  1.
</event>
<event>
 7    1  0.1999542E-015  0.9000774E+02  0.7816164E-02  0.1186339E+00
        -11   -1    0    0    0    0  0.00000000000E+00  0.00000000000E+00  0.45593999997E+02  0.45594000000E+02  0.51100000000E-03 0. -1.
         11   -1    0    0    0    0 -0.00000000000E+00 -0.00000000000E+00 -0.45593999997E+02  0.45594000000E+02  0.51100000000E-03 0.  1.
    9900012    2    1    2    0    0  0.92179319419E+00 -0.54296035892E+00  0.49850004355E+00  0.90007741157E+02  0.90000002540E+02 0.  0.
         12    1    1    2    0    0 -0.92179319419E+00  0.54296035892E+00 -0.49850004355E+00  0.11802588435E+01  0.00000000000E+00 0. -1.
         11    1    3    3    0    0 -0.25251260231E+02  0.26883324488E+02  0.13033256497E+02  0.39117835497E+02  0.51100000000E-03 0. -1.
        -11    1    3    3    0    0  0.74719656570E+01  0.67686618232E+01 -0.47912071515E+00  0.10093295328E+02  0.51100000000E-03 0.  1.
        -12    1    3    3    0    0  0.18701087768E+02 -0.34194946670E+02 -0.12055635738E+02  0.40796610332E+02  0.00000000000E+00 0.  1.
</event>
<event>
 7    1  0.1999542E-015  0.9000767E+02  0.7816164E-02  0.1186339E+00
        -11   -1    0    0    0    0  0.00000000000E+00  0.00000000000E+00  0.45593999997E+02  0.45594000000E+02  0.51100000000E-03 0.  1.
         11   -1    0    0    0    0 -0.00000000000E+00 -0.00000000000E+00 -0.45593999997E+02  0.45594000000E+02  0.51100000000E-03 0. -1.
    9900012    2    1    2    0    0  0.27520664009E+00  0.31802541840E-01  0.11473550986E+01  0.90007672156E+02  0.89999932629E+02 0.  0.
         12    1    1    2    0    0 -0.27520664009E+00 -0.31802541840E-01 -0.11473550986E+01  0.11803278437E+01  0.00000000000E+00 0. -1.
         11    1    3    3    0    0 -0.32243602686E+01  0.88084566571E+01 -0.94179190032E+00  0.94272148626E+01  0.51100000000E-03 0. -1.
        -11    1    3    3    0    0  0.29393371952E+02  0.21476520624E+02 -0.12015160927E+02  0.38335040696E+02  0.51100000000E-03 0.  1.
         12    1    3    3    0    0 -0.25893805043E+02 -0.30253174739E+02  0.14104307926E+02  0.42245416597E+02  0.00000000000E+00 0. -1.
</event>
<event>
 7    1  0.1999542E-015  0.9000771E+02  0.7816164E-02  0.1186339E+00
        -11   -1    0    0    0    0  0.00000000000E+00  0.00000000000E+00  0.45593999997E+02  0.45594000000E+02  0.51100000000E-03 0. -1.
         11   -1    0    0    0    0 -0.00000000000E+00 -0.00000000000E+00 -0.45593999997E+02  0.45594000000E+02  0.51100000000E-03 0.  1.
    9900012    2    1    2    0    0 -0.81313667437E+00 -0.11357268651E-01 -0.85543195870E+00  0.90007710173E+02  0.89999971148E+02 0.  0.
         12    1    1    2    0    0  0.81313667437E+00  0.11357268651E-01  0.85543195870E+00  0.11802898266E+01  0.00000000000E+00 0. -1.
         11    1    3    3    0    0 -0.26196556182E+02 -0.10695339835E+02  0.27294718632E+02  0.39314774773E+02  0.51100000000E-03 0. -1.
        -11    1    3    3    0    0  0.54086741656E+01 -0.20471476997E+01  0.65127158913E+01  0.87097668439E+01  0.51100000000E-03 0.  1.
        -12    1    3    3    0    0  0.19974745342E+02  0.12731130266E+02 -0.34662866482E+02  0.41983168557E+02  0.00000000000E+00 0.  1.
</event>
<event>
 7    1  0.2861739E-015  0.9000784E+02  0.7816164E-02  0.1186339E+00
        -11   -1    0    0    0    0  0.00000000000E+00  0.00000000000E+00  0.45593999997E+02  0.45594000000E+02  0.51100000000E-03 0. -1.
         11   -1    0    0    0    0 -0.00000000000E+00 -0.00000000000E+00 -0.45593999997E+02  0.45594000000E+02  0.51100000000E-03 0.  1.
    9900012    2    1    2    0    0 -0.58377543347E+00  0.36981776177E-02 -0.10256584233E+01  0.90007837878E+02  0.90000100538E+02 0.  0.
         12    1    1    2    0    0  0.58377543347E+00 -0.36981776177E-02  0.10256584233E+01  0.11801621221E+01  0.00000000000E+00 0. -1.
         11    1    3    3    0    0 -0.25826256565E+02 -0.19121826004E+02  0.17049005285E+02  0.36377305279E+02  0.51100000000E-03 0. -1.
        -11    1    3    3    0    0 -0.92573786546E+01 -0.27166360732E+01 -0.29900133570E+01  0.10100462922E+02  0.51100000000E-03 0.  1.
        -12    1    3    3    0    0  0.34499859786E+02  0.21842160255E+02 -0.15084650352E+02  0.43530069677E+02  0.00000000000E+00 0.  1.
</event>
<event>
 7    1  0.1999542E-015  0.9000769E+02  0.7816164E-02  0.1186339E+00
        -11   -1    0    0    0    0  0.00000000000E+00  0.00000000000E+00  0.45593999997E+02  0.45594000000E+02  0.51100000000E-03 0.  1.
         11   -1    0    0    0    0 -0.00000000000E+00 -0.00000000000E+00 -0.45593999997E+02  0.45594000000E+02  0.51100000000E-03 0. -1.
    9900012    2    1    2    0    0  0.88948687145E+00 -0.54986936055E+00  0.54735362068E+00  0.90007686824E+02  0.89999947490E+02 0.  0.
         12    1    1    2    0    0 -0.88948687145E+00  0.54986936055E+00 -0.54735362068E+00  0.11803131763E+01  0.00000000000E+00 0. -1.
         11    1    3    3    0    0  0.13249619495E+02  0.72492716881E+00 -0.29522250517E+02  0.32367286139E+02  0.51100000000E-03 0. -1.
        -11    1    3    3    0    0 -0.46439972934E+01  0.22960869993E+01 -0.12866629824E+02  0.13870432209E+02  0.51100000000E-03 0.  1.
        -12    1    3    3    0    0 -0.77161353298E+01 -0.35708835287E+01  0.42936233962E+02  0.43769968476E+02  0.00000000000E+00 0.  1.
</event>
<event>
 7    1  0.1999542E-015  0.9000775E+02  0.7816164E-02  0.1186339E+00
        -11   -1    0    0    0    0  0.00000000000E+00  0.00000000000E+00  0.45593999997E+02  0.45594000000E+02  0.51100000000E-03 0. -1.
         11   -1    0    0    0    0 -0.00000000000E+00 -0.00000000000E+00 -0.45593999997E+02  0.45594000000E+02  0.51100000000E-03 0.  1.
    9900012    2    1    2    0    0 -0.88895037928E+00 -0.54093315336E+00  0.55690859501E+00  0.90007750604E+02  0.90000012112E+02 0.  0.
         12    1    1    2    0    0  0.88895037928E+00  0.54093315336E+00 -0.55690859501E+00  0.11802493959E+01  0.00000000000E+00 0. -1.
         11    1    3    3    0    0 -0.63053853016E+01 -0.58177492771E+01 -0.43297199461E+01  0.96099201623E+01  0.51100000000E-03 0. -1.
        -11    1    3    3    0    0 -0.32540622613E+02 -0.18045714279E+01 -0.16208946389E+02  0.36398881045E+02  0.51100000000E-03 0.  1.
         12    1    3    3    0    0  0.37957057535E+02  0.70813875517E+01  0.21095574930E+02  0.43998949396E+02  0.00000000000E+00 0. -1.
</event>
<event>
 7    1  0.1999542E-015  0.9000774E+02  0.7816164E-02  0.1186339E+00
        -11   -1    0    0    0    0  0.00000000000E+00  0.00000000000E+00  0.45593999997E+02  0.45594000000E+02  0.51100000000E-03 0.  1.
         11   -1    0    0    0    0 -0.00000000000E+00 -0.00000000000E+00 -0.45593999997E+02  0.45594000000E+02  0.51100000000E-03 0. -1.
    9900012    2    1    2    0    0  0.87765631187E-01 -0.11518373132E+01 -0.24201861258E+00  0.90007743667E+02  0.90000005084E+02 0.  0.
         12    1    1    2    0    0 -0.87765631187E-01  0.11518373132E+01  0.24201861258E+00  0.11802563327E+01  0.00000000000E+00 0. -1.
         11    1    3    3    0    0  0.20653489323E+02  0.19236894492E+02  0.21099362702E+02  0.35239293943E+02  0.51100000000E-03 0. -1.
        -11    1    3    3    0    0 -0.14387160951E+01  0.57013433169E+01  0.87794554173E+01  0.10566648348E+02  0.51100000000E-03 0.  1.
        -12    1    3    3    0    0 -0.19127007596E+02 -0.26090075122E+02 -0.30120836732E+02  0.44201801376E+02  0.00000000000E+00 0.  1.
</event>
<event>
 7    1  0.1999542E-015  0.9000765E+02  0.7816164E-02  0.1186339E+00
        -11   -1    0    0    0    0  0.00000000000E+00  0.00000000000E+00  0.45593999997E+02  0.45594000000E+02  0.51100000000E-03 0.  1.
         11   -1    0    0    0    0 -0.00000000000E+00 -0.00000000000E+00 -0.45593999997E+02  0.45594000000E+02  0.51100000000E-03 0. -1.
    9900012    2    1    2    0    0 -0.98014965061E-02  0.10769543888E+01  0.48301980011E+00  0.90007646260E+02  0.89999906390E+02 0.  0.
         12    1    1    2    0    0  0.98014965061E-02 -0.10769543888E+01 -0.48301980011E+00  0.11803537403E+01  0.00000000000E+00 0. -1.
         11    1    3    3    0    0  0.46027307530E+01 -0.18213864136E+01  0.10354847004E+02  0.11477170191E+02  0.51100000000E-03 0. -1.
        -11    1    3    3    0    0 -0.49375722887E+01  0.40109400455E+02 -0.84780791918E+01  0.41291905406E+02  0.51100000000E-03 0.  1.
         12    1    3    3    0    0  0.32504003914E+00 -0.37211059653E+02 -0.13937480121E+01  0.37238570663E+02  0.00000000000E+00 0. -1.
</event>
<event>
 7    1  0.1999542E-015  0.9000781E+02  0.7816164E-02  0.1186339E+00
        -11   -1    0    0    0    0  0.00000000000E+00  0.00000000000E+00  0.45593999997E+02  0.45594000000E+02  0.51100000000E-03 0.  1.
         11   -1    0    0    0    0 -0.00000000000E+00 -0.00000000000E+00 -0.45593999997E+02  0.45594000000E+02  0.51100000000E-03 0. -1.
    9900012    2    1    2    0    0  0.20748261633E+00 -0.11583647123E+01  0.89360509368E-01  0.90007812242E+02  0.90000074564E+02 0.  0.
         12    1    1    2    0    0 -0.20748261633E+00  0.11583647123E+01 -0.89360509368E-01  0.11801877577E+01  0.00000000000E+00 0. -1.
         11    1    3    3    0    0  0.30932312434E+02  0.17256414004E+02 -0.13666445577E+02  0.37965293516E+02  0.51100000000E-03 0. -1.
        -11    1    3    3    0    0  0.74666288583E+01 -0.71139648196E+01  0.18957006194E+01  0.10485834400E+02  0.51100000000E-03 0.  1.
         12    1    3    3    0    0 -0.38191458676E+02 -0.11300813897E+02  0.11860105467E+02  0.41556684326E+02  0.00000000000E+00 0. -1.
</event>
<event>
 7    1  0.1999542E-015  0.9000776E+02  0.7816164E-02  0.1186339E+00
        -11   -1    0    0    0    0  0.00000000000E+00  0.00000000000E+00  0.45593999997E+02  0.45594000000E+02  0.51100000000E-03 0.  1.
         11   -1    0    0    0    0 -0.00000000000E+00 -0.00000000000E+00 -0.45593999997E+02  0.45594000000E+02  0.51100000000E-03 0. -1.
    9900012    2    1    2    0    0 -0.74389659178E+00 -0.84164305001E+00 -0.36225409836E+00  0.90007757146E+02  0.90000018740E+02 0.  0.
         12    1    1    2    0    0  0.74389659178E+00  0.84164305001E+00  0.36225409836E+00  0.11802428541E+01  0.00000000000E+00 0. -1.
         11    1    3    3    0    0  0.66594393316E-01 -0.26318773765E+01 -0.96202250178E+01  0.99739632540E+01  0.51100000000E-03 0. -1.
        -11    1    3    3    0    0  0.27283043244E+02  0.10035628015E+01 -0.24098589672E+02  0.36415842862E+02  0.51100000000E-03 0.  1.
         12    1    3    3    0    0 -0.28093534229E+02  0.78667152498E+00  0.33356560591E+02  0.43617951030E+02  0.00000000000E+00 0. -1.
</event>
<event>
 7    1  0.1999542E-015  0.9000774E+02  0.7816164E-02  0.1186339E+00
        -11   -1    0    0    0    0  0.00000000000E+00  0.00000000000E+00  0.45593999997E+02  0.45594000000E+02  0.51100000000E-03 0.  1.
         11   -1    0    0    0    0 -0.00000000000E+00 -0.00000000000E+00 -0.45593999997E+02  0.45594000000E+02  0.51100000000E-03 0. -1.
    9900012    2    1    2    0    0  0.54312777171E+00  0.96759619221E+00  0.40221161741E+00  0.90007743946E+02  0.90000005366E+02 0.  0.
         12    1    1    2    0    0 -0.54312777171E+00 -0.96759619221E+00 -0.40221161741E+00  0.11802560539E+01  0.00000000000E+00 0. -1.
         11    1    3    3    0    0  0.90475712058E+01 -0.82339192908E+01 -0.92514606677E+01  0.15337714835E+02  0.51100000000E-03 0. -1.
        -11    1    3    3    0    0 -0.11554741278E+02 -0.29983653918E+02 -0.53970925591E+01  0.32583126870E+02  0.51100000000E-03 0.  1.
         12    1    3    3    0    0  0.30502978438E+01  0.39185169401E+02  0.15050764844E+02  0.42086902242E+02  0.00000000000E+00 0. -1.
</event>
<event>
 7    1  0.1999542E-015  0.9000769E+02  0.7816164E-02  0.1186339E+00
        -11   -1    0    0    0    0  0.00000000000E+00  0.00000000000E+00  0.45593999997E+02  0.45594000000E+02  0.51100000000E-03 0.  1.
         11   -1    0    0    0    0 -0.00000000000E+00 -0.00000000000E+00 -0.45593999997E+02  0.45594000000E+02  0.51100000000E-03 0. -1.
    9900012    2    1    2    0    0 -0.41648075678E+00  0.39694797959E+00  0.10305910193E+01  0.90007685733E+02  0.89999946385E+02 0.  0.
         12    1    1    2    0    0  0.41648075678E+00 -0.39694797959E+00 -0.10305910193E+01  0.11803142667E+01  0.00000000000E+00 0. -1.
         11    1    3    3    0    0  0.17057979606E+02  0.32965509631E+02 -0.14282159655E+02  0.39770335404E+02  0.51100000000E-03 0. -1.
        -11    1    3    3    0    0 -0.68630431068E+01  0.50207323189E+01  0.49023566985E+01  0.98154070300E+01  0.51100000000E-03 0.  1.
        -12    1    3    3    0    0 -0.10611417256E+02 -0.37589293970E+02  0.10410393975E+02  0.40421943299E+02  0.00000000000E+00 0.  1.
</event>
<event>
 7    1  0.1999542E-015  0.9000780E+02  0.7816164E-02  0.1186339E+00
        -11   -1    0    0    0    0  0.00000000000E+00  0.00000000000E+00  0.45593999997E+02  0.45594000000E+02  0.51100000000E-03 0.  1.
         11   -1    0    0    0    0 -0.00000000000E+00 -0.00000000000E+00 -0.45593999997E+02  0.45594000000E+02  0.51100000000E-03 0. -1.
    9900012    2    1    2    0    0 -0.10193285731E+01  0.56349626734E+00 -0.19055472026E+00  0.90007800913E+02  0.90000063085E+02 0.  0.
         12    1    1    2    0    0  0.10193285731E+01 -0.56349626734E+00  0.19055472026E+00  0.11801990869E+01  0.00000000000E+00 0. -1.
         11    1    3    3    0    0 -0.81924659386E+01 -0.43176846630E+01 -0.36136564889E+01  0.99406947687E+01  0.51100000000E-03 0. -1.
        -11    1    3    3    0    0  0.17006112780E+02 -0.29828432499E+02  0.20673726117E+02  0.40079249108E+02  0.51100000000E-03 0.  1.
         12    1    3    3    0    0 -0.98329754148E+01  0.34709613429E+02 -0.17250624349E+02  0.39987857036E+02  0.00000000000E+00 0. -1.
</event>
<event>
 7    1  0.1999542E-015  0.9000767E+02  0.7816164E-02  0.1186339E+00
        -11   -1    0    0    0    0  0.00000000000E+00  0.00000000000E+00  0.45593999997E+02  0.45594000000E+02  0.51100000000E-03 0.  1.
         11   -1    0    0    0    0 -0.00000000000E+00 -0.00000000000E+00 -0.45593999997E+02  0.45594000000E+02  0.51100000000E-03 0. -1.
    9900012    2    1    2    0    0  0.65410552530E+00  0.12860686735E+00  0.97405695111E+00  0.90007669238E+02  0.89999929672E+02 0.  0.
         12    1    1    2    0    0 -0.65410552530E+00 -0.12860686735E+00 -0.97405695111E+00  0.11803307624E+01  0.00000000000E+00 0. -1.
         11    1    3    3    0    0  0.19441186710E+02  0.26313186640E+02 -0.13436170196E+02  0.35367699977E+02  0.51100000000E-03 0. -1.
        -11    1    3    3    0    0  0.58335769736E+01 -0.26832723496E+00 -0.98410476000E+01  0.11443287899E+02  0.51100000000E-03 0.  1.
        -12    1    3    3    0    0 -0.24620658159E+02 -0.25916252538E+02  0.24251274748E+02  0.43196681362E+02  0.00000000000E+00 0.  1.
</event>
<event>
 7    1  0.1999542E-015  0.9000775E+02  0.7816164E-02  0.1186339E+00
        -11   -1    0    0    0    0  0.00000000000E+00  0.00000000000E+00  0.45593999997E+02  0.45594000000E+02  0.51100000000E-03 0.  1.
         11   -1    0    0    0    0 -0.00000000000E+00 -0.00000000000E+00 -0.45593999997E+02  0.45594000000E+02  0.51100000000E-03 0. -1.
    9900012    2    1    2    0    0 -0.61588605893E+00 -0.97538048635E+00  0.24962732882E+00  0.90007747258E+02  0.90000008722E+02 0.  0.
         12    1    1    2    0    0  0.61588605893E+00  0.97538048635E+00 -0.24962732882E+00  0.11802527416E+01  0.00000000000E+00 0. -1.
         11    1    3    3    0    0 -0.16239316502E+02 -0.14793378803E+02 -0.29344555713E+02  0.36656000970E+02  0.51100000000E-03 0. -1.
        -11    1    3    3    0    0 -0.29106199044E+01 -0.89344987222E+01 -0.26396655875E+01  0.97603693742E+01  0.51100000000E-03 0.  1.
        -12    1    3    3    0    0  0.18534050348E+02  0.22752497039E+02  0.32233848629E+02  0.43591376914E+02  0.00000000000E+00 0.  1.
</event>
<event>
 7    1  0.1999542E-015  0.9000777E+02  0.7816164E-02  0.1186339E+00
        -11   -1    0    0    0    0  0.00000000000E+00  0.00000000000E+00  0.45593999997E+02  0.45594000000E+02  0.51100000000E-03 0.  1.
         11   -1    0    0    0    0 -0.00000000000E+00 -0.00000000000E+00 -0.45593999997E+02  0.45594000000E+02  0.51100000000E-03 0. -1.
    9900012    2    1    2    0    0 -0.69005302561E+00  0.49347830086E-02  0.95747379837E+00  0.90007765445E+02  0.90000027149E+02 0.  0.
         12    1    1    2    0    0  0.69005302561E+00 -0.49347830086E-02 -0.95747379837E+00  0.11802345550E+01  0.00000000000E+00 0. -1.
         11    1    3    3    0    0  0.14410721756E+02  0.52830908582E+01 -0.65869819565E+01  0.16702343611E+02  0.51100000000E-03 0. -1.
        -11    1    3    3    0    0  0.39885914182E+01 -0.77660065905E+01  0.37055777255E+02  0.38070334226E+02  0.51100000000E-03 0.  1.
         12    1    3    3    0    0 -0.19089366200E+02  0.24878505153E+01 -0.29511321500E+02  0.35235087608E+02  0.00000000000E+00 0. -1.
</event>
<event>
 7    1  0.1999542E-015  0.9000798E+02  0.7816164E-02  0.1186339E+00
        -11   -1    0    0    0    0  0.00000000000E+00  0.00000000000E+00  0.45593999997E+02  0.45594000000E+02  0.51100000000E-03 0. -1.
         11   -1    0    0    0    0 -0.00000000000E+00 -0.00000000000E+00 -0.45593999997E+02  0.45594000000E+02  0.51100000000E-03 0.  1.
    9900012    2    1    2    0    0 -0.18695701597E+00  0.92147460960E+00  0.71300664919E+00  0.90007980143E+02  0.90000244680E+02 0.  0.
         12    1    1    2    0    0  0.18695701597E+00 -0.92147460960E+00 -0.71300664919E+00  0.11800198574E+01  0.00000000000E+00 0. -1.
         11    1    3    3    0    0 -0.71644010758E+01  0.93382527537E+01 -0.47386909896E+01  0.12688057370E+02  0.51100000000E-03 0. -1.
        -11    1    3    3    0    0  0.24448265345E+02 -0.32528966778E+02 -0.12477805057E+02  0.42562271759E+02  0.51100000000E-03 0.  1.
         12    1    3    3    0    0 -0.17470821285E+02  0.24112188634E+02  0.17929502696E+02  0.34757651014E+02  0.00000000000E+00 0. -1.
</event>
<event>
 7    1  0.3266081E-015  0.9000771E+02  0.7816164E-02  0.1186339E+00
        -11   -1    0    0    0    0  0.00000000000E+00  0.00000000000E+00  0.45593999997E+02  0.45594000000E+02  0.51100000000E-03 0. -1.
         11   -1    0    0    0    0 -0.00000000000E+00 -0.00000000000E+00 -0.45593999997E+02  0.45594000000E+02  0.51100000000E-03 0.  1.
    9900012    2    1    2    0    0 -0.52722665639E+00 -0.67299044861E+00 -0.81375238149E+00  0.90007713158E+02  0.89999974172E+02 0.  0.
         12    1    1    2    0    0  0.52722665639E+00  0.67299044861E+00  0.81375238149E+00  0.11802868420E+01  0.00000000000E+00 0. -1.
         11    1    3    3    0    0  0.90065229513E+01 -0.15037782447E+02  0.33389288116E+02  0.37710700308E+02  0.51100000000E-03 0. -1.
        -11    1    3    3    0    0  0.68627684358E+01  0.44638551832E+01  0.43334027908E+01  0.92629354801E+01  0.51100000000E-03 0.  1.
        -12    1    3    3    0    0 -0.16396518043E+02  0.99009368156E+01 -0.38536443288E+02  0.43034077370E+02  0.00000000000E+00 0.  1.
</event>
<event>
 7    1  0.1999542E-015  0.9000772E+02  0.7816164E-02  0.1186339E+00
        -11   -1    0    0    0    0  0.00000000000E+00  0.00000000000E+00  0.45593999997E+02  0.45594000000E+02  0.51100000000E-03 0.  1.
         11   -1    0    0    0    0 -0.00000000000E+00 -0.00000000000E+00 -0.45593999997E+02  0.45594000000E+02  0.51100000000E-03 0. -1.
    9900012    2    1    2    0    0 -0.51427037672E-01 -0.54060419379E-01  0.11779223735E+01  0.90007716819E+02  0.89999977881E+02 0.  0.
         12    1    1    2    0    0  0.51427037672E-01  0.54060419379E-01 -0.11779223735E+01  0.11802831809E+01  0.00000000000E+00 0. -1.
         11    1    3    3    0    0 -0.19572701780E+02 -0.27373229628E+02 -0.19020506497E+02  0.38654417896E+02  0.51100000000E-03 0. -1.
        -11    1    3    3    0    0  0.24882016309E+01 -0.24523921796E+01 -0.68381813775E+01  0.76789387009E+01  0.51100000000E-03 0.  1.
        -12    1    3    3    0    0  0.17033073111E+02  0.29771561388E+02  0.27036610248E+02  0.43674360222E+02  0.00000000000E+00 0.  1.
</event>
<event>
 7    1  0.1999542E-015  0.9000867E+02  0.7816164E-02  0.1186337E+00
        -11   -1    0    0    0    0  0.00000000000E+00  0.00000000000E+00  0.45593999997E+02  0.45594000000E+02  0.51100000000E-03 0.  1.
         11   -1    0    0    0    0 -0.00000000000E+00 -0.00000000000E+00 -0.45593999997E+02  0.45594000000E+02  0.51100000000E-03 0. -1.
    9900012    2    1    2    0    0  0.35013642401E+00  0.78010448919E+00  0.81219689649E+00  0.90008668694E+02  0.90000942316E+02 0.  0.
         12    1    1    2    0    0 -0.35013642401E+00 -0.78010448919E+00 -0.81219689649E+00  0.11793313055E+01  0.00000000000E+00 0. -1.
         11    1    3    3    0    0 -0.28087708803E+01 -0.35455881609E+01 -0.42561909906E+02  0.42801595348E+02  0.51100000000E-03 0. -1.
        -11    1    3    3    0    0 -0.19664477942E+01 -0.58041666641E+01  0.81386525123E+01  0.10187881653E+02  0.51100000000E-03 0.  1.
        -12    1    3    3    0    0  0.51253550985E+01  0.10129859314E+02  0.35235454290E+02  0.37019191694E+02  0.00000000000E+00 0.  1.
</event>
<event>
 7    1  0.1999542E-015  0.9000771E+02  0.7816164E-02  0.1186339E+00
        -11   -1    0    0    0    0  0.00000000000E+00  0.00000000000E+00  0.45593999997E+02  0.45594000000E+02  0.51100000000E-03 0. -1.
         11   -1    0    0    0    0 -0.00000000000E+00 -0.00000000000E+00 -0.45593999997E+02  0.45594000000E+02  0.51100000000E-03 0.  1.
    9900012    2    1    2    0    0 -0.79101542732E+00  0.86490105719E+00  0.13898040809E+00  0.90007714103E+02  0.89999975129E+02 0.  0.
         12    1    1    2    0    0  0.79101542732E+00 -0.86490105719E+00 -0.13898040809E+00  0.11802858971E+01  0.00000000000E+00 0. -1.
         11    1    3    3    0    0 -0.48953831524E+01 -0.68586534147E-01  0.97744399115E+01  0.10932024340E+02  0.51100000000E-03 0. -1.
        -11    1    3    3    0    0  0.39873017675E+02 -0.76390078241E+01  0.15596820909E+01  0.40628125572E+02  0.51100000000E-03 0.  1.
         12    1    3    3    0    0 -0.35768649950E+02  0.85724954154E+01 -0.11195141594E+02  0.38447564191E+02  0.00000000000E+00 0. -1.
</event>
<event>
 7    1  0.1999542E-015  0.9000775E+02  0.7816164E-02  0.1186339E+00
        -11   -1    0    0    0    0  0.00000000000E+00  0.00000000000E+00  0.45593999997E+02  0.45594000000E+02  0.51100000000E-03 0.  1.
         11   -1    0    0    0    0 -0.00000000000E+00 -0.00000000000E+00 -0.45593999997E+02  0.45594000000E+02  0.51100000000E-03 0. -1.
    9900012    2    1    2    0    0  0.28336770554E+00  0.92131850645E+00  0.68107508475E+00  0.90007750739E+02  0.90000012249E+02 0.  0.
         12    1    1    2    0    0 -0.28336770554E+00 -0.92131850645E+00 -0.68107508475E+00  0.11802492609E+01  0.00000000000E+00 0. -1.
         11    1    3    3    0    0 -0.68563609324E+01  0.22892421586E+02  0.10886660671E+02  0.26260084390E+02  0.51100000000E-03 0. -1.
        -11    1    3    3    0    0  0.14010947244E+02  0.12260248527E+02  0.12203380016E+02  0.22260791107E+02  0.51100000000E-03 0.  1.
         12    1    3    3    0    0 -0.68712186062E+01 -0.34231351607E+02 -0.22408965603E+02  0.41486875242E+02  0.00000000000E+00 0. -1.
</event>
<event>
 7    1  0.1999542E-015  0.9000777E+02  0.7816164E-02  0.1186339E+00
        -11   -1    0    0    0    0  0.00000000000E+00  0.00000000000E+00  0.45593999997E+02  0.45594000000E+02  0.51100000000E-03 0. -1.
         11   -1    0    0    0    0 -0.00000000000E+00 -0.00000000000E+00 -0.45593999997E+02  0.45594000000E+02  0.51100000000E-03 0.  1.
    9900012    2    1    2    0    0  0.65614969571E+00  0.70558175793E+00 -0.68159429593E+00  0.90007767470E+02  0.90000029201E+02 0.  0.
         12    1    1    2    0    0 -0.65614969571E+00 -0.70558175793E+00  0.68159429593E+00  0.11802325299E+01  0.00000000000E+00 0. -1.
         11    1    3    3    0    0  0.81854951975E+01 -0.16435324947E+01 -0.26527001342E+01  0.87601569023E+01  0.51100000000E-03 0. -1.
        -11    1    3    3    0    0  0.21182345598E+02  0.32890293726E+02 -0.17831689358E+01  0.39161752746E+02  0.51100000000E-03 0.  1.
         12    1    3    3    0    0 -0.28711691100E+02 -0.30541179474E+02  0.37542747741E+01  0.42085857821E+02  0.00000000000E+00 0. -1.
</event>
<event>
 7    1  0.1999542E-015  0.9000772E+02  0.7816164E-02  0.1186339E+00
        -11   -1    0    0    0    0  0.00000000000E+00  0.00000000000E+00  0.45593999997E+02  0.45594000000E+02  0.51100000000E-03 0. -1.
         11   -1    0    0    0    0 -0.00000000000E+00 -0.00000000000E+00 -0.45593999997E+02  0.45594000000E+02  0.51100000000E-03 0.  1.
    9900012    2    1    2    0    0 -0.48338854365E+00 -0.33347271276E+00 -0.10238081846E+01  0.90007723874E+02  0.89999985029E+02 0.  0.
         12    1    1    2    0    0  0.48338854365E+00  0.33347271276E+00  0.10238081846E+01  0.11802761258E+01  0.00000000000E+00 0. -1.
         11    1    3    3    0    0 -0.28842160570E+02 -0.23352825428E+02  0.16563483023E+02  0.40639557723E+02  0.51100000000E-03 0. -1.
        -11    1    3    3    0    0  0.42584836179E+00 -0.41822560630E+01 -0.82757127523E+01  0.92822429630E+01  0.51100000000E-03 0.  1.
        -12    1    3    3    0    0  0.27932923664E+02  0.27201608778E+02 -0.93115784550E+01  0.40085923189E+02  0.00000000000E+00 0.  1.
</event>
<event>
 7    1  0.1999542E-015  0.9000774E+02  0.7816164E-02  0.1186339E+00
        -11   -1    0    0    0    0  0.00000000000E+00  0.00000000000E+00  0.45593999997E+02  0.45594000000E+02  0.51100000000E-03 0. -1.
         11   -1    0    0    0    0 -0.00000000000E+00 -0.00000000000E+00 -0.45593999997E+02  0.45594000000E+02  0.51100000000E-03 0.  1.
    9900012    2    1    2    0    0 -0.59067809618E+00 -0.91847556179E-01 -0.10176777300E+01  0.90007743863E+02  0.90000005282E+02 0.  0.
         12    1    1    2    0    0  0.59067809618E+00  0.91847556179E-01  0.10176777300E+01  0.11802561371E+01  0.00000000000E+00 0. -1.
         11    1    3    3    0    0 -0.13994486687E+02  0.17535656425E+02  0.43471747601E+01  0.22852632945E+02  0.51100000000E-03 0. -1.
        -11    1    3    3    0    0  0.22392193925E+02 -0.38355071674E+01  0.24276784323E+02  0.33248815337E+02  0.51100000000E-03 0.  1.
         12    1    3    3    0    0 -0.89883853337E+01 -0.13791996814E+02 -0.29641636813E+02  0.33906295580E+02  0.00000000000E+00 0. -1.
</event>
<event>
 7    1  0.1999542E-015  0.9000806E+02  0.7816164E-02  0.1186338E+00
        -11   -1    0    0    0    0  0.00000000000E+00  0.00000000000E+00  0.45593999997E+02  0.45594000000E+02  0.51100000000E-03 0.  1.
         11   -1    0    0    0    0 -0.00000000000E+00 -0.00000000000E+00 -0.45593999997E+02  0.45594000000E+02  0.51100000000E-03 0. -1.
    9900012    2    1    2    0    0 -0.60789546596E+00 -0.10009566980E+01  0.14422928083E+00  0.90008062165E+02  0.90000327785E+02 0.  0.
         12    1    1    2    0    0  0.60789546596E+00  0.10009566980E+01 -0.14422928083E+00  0.11799378349E+01  0.00000000000E+00 0. -1.
         11    1    3    3    0    0 -0.30739605337E+02  0.23107795416E+02 -0.70168230519E+01  0.39091295083E+02  0.51100000000E-03 0. -1.
        -11    1    3    3    0    0  0.44833020779E+01  0.47186115832E+01  0.10320884311E+02  0.12201882888E+02  0.51100000000E-03 0.  1.
        -12    1    3    3    0    0  0.25648407793E+02 -0.28827363698E+02 -0.31598319778E+01  0.38714884194E+02  0.00000000000E+00 0.  1.
</event>
<event>
 7    1  0.1999542E-015  0.9000770E+02  0.7816164E-02  0.1186339E+00
        -11   -1    0    0    0    0  0.00000000000E+00  0.00000000000E+00  0.45593999997E+02  0.45594000000E+02  0.51100000000E-03 0.  1.
         11   -1    0    0    0    0 -0.00000000000E+00 -0.00000000000E+00 -0.45593999997E+02  0.45594000000E+02  0.51100000000E-03 0. -1.
    9900012    2    1    2    0    0  0.14150099458E+00 -0.11661604094E+01  0.11470830557E+00  0.90007698925E+02  0.89999959751E+02 0.  0.
         12    1    1    2    0    0 -0.14150099458E+00  0.11661604094E+01 -0.11470830557E+00  0.11803010748E+01  0.00000000000E+00 0. -1.
         11    1    3    3    0    0  0.22920620458E+02  0.31250432955E+02 -0.93191386054E+01  0.39859638065E+02  0.51100000000E-03 0. -1.
        -11    1    3    3    0    0 -0.53181631614E+01  0.38835940200E+01  0.72693238288E+01  0.98085794646E+01  0.51100000000E-03 0.  1.
        -12    1    3    3    0    0 -0.17460956302E+02 -0.36300187384E+02  0.21645230821E+01  0.40339481396E+02  0.00000000000E+00 0.  1.
</event>
<event>
 7    1  0.1999542E-015  0.9000765E+02  0.7816164E-02  0.1186339E+00
        -11   -1    0    0    0    0  0.00000000000E+00  0.00000000000E+00  0.45593999997E+02  0.45594000000E+02  0.51100000000E-03 0.  1.
         11   -1    0    0    0    0 -0.00000000000E+00 -0.00000000000E+00 -0.45593999997E+02  0.45594000000E+02  0.51100000000E-03 0. -1.
    9900012    2    1    2    0    0 -0.76101508163E+00 -0.44449053589E+00  0.78518788558E+00  0.90007645898E+02  0.89999906024E+02 0.  0.
         12    1    1    2    0    0  0.76101508163E+00  0.44449053589E+00 -0.78518788558E+00  0.11803541022E+01  0.00000000000E+00 0. -1.
         11    1    3    3    0    0 -0.23515136551E+01  0.57511208018E+01  0.70456040695E+01  0.93939099374E+01  0.51100000000E-03 0. -1.
        -11    1    3    3    0    0  0.15237060620E+02  0.31079646440E+02  0.12378758001E+02  0.36760659530E+02  0.51100000000E-03 0.  1.
         12    1    3    3    0    0 -0.13646562046E+02 -0.37275257778E+02 -0.18639174185E+02  0.43853076430E+02  0.00000000000E+00 0. -1.
</event>
<event>
 7    1  0.1999542E-015  0.9000767E+02  0.7816164E-02  0.1186339E+00
        -11   -1    0    0    0    0  0.00000000000E+00  0.00000000000E+00  0.45593999997E+02  0.45594000000E+02  0.51100000000E-03 0. -1.
         11   -1    0    0    0    0 -0.00000000000E+00 -0.00000000000E+00 -0.45593999997E+02  0.45594000000E+02  0.51100000000E-03 0.  1.
    9900012    2    1    2    0    0 -0.56200615518E+00  0.98244884995E+00 -0.33483297960E+00  0.90007673865E+02  0.89999934360E+02 0.  0.
         12    1    1    2    0    0  0.56200615518E+00 -0.98244884995E+00  0.33483297960E+00  0.11803261352E+01  0.00000000000E+00 0. -1.
         11    1    3    3    0    0  0.11830887135E+02  0.25179826495E+02  0.24272026791E+02  0.36920520548E+02  0.51100000000E-03 0. -1.
        -11    1    3    3    0    0 -0.37408831244E+01  0.94114667776E+01  0.67503809368E+00  0.10150152223E+02  0.51100000000E-03 0.  1.
        -12    1    3    3    0    0 -0.86520101660E+01 -0.33608844422E+02 -0.25281897865E+02  0.42937001094E+02  0.00000000000E+00 0.  1.
</event>
<event>
 7    1  0.1999542E-015  0.9000775E+02  0.7816164E-02  0.1186339E+00
        -11   -1    0    0    0    0  0.00000000000E+00  0.00000000000E+00  0.45593999997E+02  0.45594000000E+02  0.51100000000E-03 0.  1.
         11   -1    0    0    0    0 -0.00000000000E+00 -0.00000000000E+00 -0.45593999997E+02  0.45594000000E+02  0.51100000000E-03 0. -1.
    9900012    2    1    2    0    0 -0.78806978740E+00 -0.40993704011E+00  0.77710857252E+00  0.90007745748E+02  0.90000007192E+02 0.  0.
         12    1    1    2    0    0  0.78806978740E+00  0.40993704011E+00 -0.77710857252E+00  0.11802542523E+01  0.00000000000E+00 0. -1.
         11    1    3    3    0    0 -0.75989847716E+01  0.30175975254E+01 -0.35456788111E+02  0.36387281951E+02  0.51100000000E-03 0. -1.
        -11    1    3    3    0    0 -0.73721633585E+01  0.61816936132E+01 -0.35892605234E+01  0.10268637684E+02  0.51100000000E-03 0.  1.
        -12    1    3    3    0    0  0.14183078343E+02 -0.96092281787E+01  0.39823157206E+02  0.43351826113E+02  0.00000000000E+00 0.  1.
</event>
<event>
 7    1  0.1999542E-015  0.9000759E+02  0.7816164E-02  0.1186339E+00
        -11   -1    0    0    0    0  0.00000000000E+00  0.00000000000E+00  0.45593999997E+02  0.45594000000E+02  0.51100000000E-03 0.  1.
         11   -1    0    0    0    0 -0.00000000000E+00 -0.00000000000E+00 -0.45593999997E+02  0.45594000000E+02  0.51100000000E-03 0. -1.
    9900012    2    1    2    0    0 -0.25206967120E+00  0.79713982001E-01  0.11504246941E+01  0.90007588879E+02  0.89999848252E+02 0.  0.
         12    1    1    2    0    0  0.25206967120E+00 -0.79713982001E-01 -0.11504246941E+01  0.11804111211E+01  0.00000000000E+00 0. -1.
         11    1    3    3    0    0  0.98890290535E+01 -0.27383100456E+01 -0.39756945174E+01  0.11004425686E+02  0.51100000000E-03 0. -1.
        -11    1    3    3    0    0 -0.22808584902E+02  0.18629579219E+02  0.33201764153E+02  0.44380738054E+02  0.51100000000E-03 0.  1.
         12    1    3    3    0    0  0.12667486177E+02 -0.15811555191E+02 -0.28075644941E+02  0.34622425139E+02  0.00000000000E+00 0. -1.
</event>
<event>
 7    1  0.1999542E-015  0.9000822E+02  0.7816164E-02  0.1186338E+00
        -11   -1    0    0    0    0  0.00000000000E+00  0.00000000000E+00  0.45593999997E+02  0.45594000000E+02  0.51100000000E-03 0.  1.
         11   -1    0    0    0    0 -0.00000000000E+00 -0.00000000000E+00 -0.45593999997E+02  0.45594000000E+02  0.51100000000E-03 0. -1.
    9900012    2    1    2    0    0  0.35065612516E+00 -0.85674249951E+00 -0.73138134705E+00  0.90008217773E+02  0.90000485446E+02 0.  0.
         12    1    1    2    0    0 -0.35065612516E+00  0.85674249951E+00  0.73138134705E+00  0.11797822271E+01  0.00000000000E+00 0. -1.
         11    1    3    3    0    0 -0.13671091592E+02  0.29152087977E+02 -0.14678724333E+02  0.35386550087E+02  0.51100000000E-03 0. -1.
        -11    1    3    3    0    0 -0.77963220702E+01  0.33479426402E+01 -0.56621573357E+01  0.10200558009E+02  0.51100000000E-03 0.  1.
        -12    1    3    3    0    0  0.21818069788E+02 -0.33356773117E+02  0.19609500322E+02  0.44421109677E+02  0.00000000000E+00 0.  1.
</event>
<event>
 7    1  0.1999542E-015  0.9000771E+02  0.7816164E-02  0.1186339E+00
        -11   -1    0    0    0    0  0.00000000000E+00  0.00000000000E+00  0.45593999997E+02  0.45594000000E+02  0.51100000000E-03 0. -1.
         11   -1    0    0    0    0 -0.00000000000E+00 -0.00000000000E+00 -0.45593999997E+02  0.45594000000E+02  0.51100000000E-03 0.  1.
    9900012    2    1    2    0    0 -0.56157593929E+00  0.61789801228E+00 -0.83422124669E+00  0.90007707419E+02  0.89999968357E+02 0.  0.
         12    1    1    2    0    0  0.56157593929E+00 -0.61789801228E+00  0.83422124669E+00  0.11802925814E+01  0.00000000000E+00 0. -1.
         11    1    3    3    0    0 -0.10460943228E+02 -0.16228622627E+02  0.19769506753E+02  0.27633908936E+02  0.51100000000E-03 0. -1.
        -11    1    3    3    0    0 -0.11432420044E+02  0.81370627494E+00  0.14370814242E+02  0.18381584486E+02  0.51100000000E-03 0.  1.
        -12    1    3    3    0    0  0.21331787333E+02  0.16032814364E+02 -0.34974542242E+02  0.43992213996E+02  0.00000000000E+00 0.  1.
</event>
<event>
 7    1  0.1999542E-015  0.9000774E+02  0.7816164E-02  0.1186339E+00
        -11   -1    0    0    0    0  0.00000000000E+00  0.00000000000E+00  0.45593999997E+02  0.45594000000E+02  0.51100000000E-03 0.  1.
         11   -1    0    0    0    0 -0.00000000000E+00 -0.00000000000E+00 -0.45593999997E+02  0.45594000000E+02  0.51100000000E-03 0. -1.
    9900012    2    1    2    0    0  0.50644891664E+00  0.52756695339E-01  0.10647749106E+01  0.90007737578E+02  0.89999998914E+02 0.  0.
         12    1    1    2    0    0 -0.50644891664E+00 -0.52756695339E-01 -0.10647749106E+01  0.11802624218E+01  0.00000000000E+00 0. -1.
         11    1    3    3    0    0 -0.27564564654E+01 -0.17640113613E+01  0.89693973984E+01  0.95477682356E+01  0.51100000000E-03 0. -1.
        -11    1    3    3    0    0 -0.27966146591E+02  0.19521879491E+01  0.23195644549E+02  0.36386183081E+02  0.51100000000E-03 0.  1.
         12    1    3    3    0    0  0.31229051973E+02 -0.13541989242E+00 -0.31100267037E+02  0.44073786261E+02  0.00000000000E+00 0. -1.
</event>
<event>
 7    1  0.1999542E-015  0.9000777E+02  0.7816164E-02  0.1186339E+00
        -11   -1    0    0    0    0  0.00000000000E+00  0.00000000000E+00  0.45593999997E+02  0.45594000000E+02  0.51100000000E-03 0.  1.
         11   -1    0    0    0    0 -0.00000000000E+00 -0.00000000000E+00 -0.45593999997E+02  0.45594000000E+02  0.51100000000E-03 0. -1.
    9900012    2    1    2    0    0  0.96787042072E+00  0.45492244004E+00  0.49920704343E+00  0.90007773221E+02  0.90000035027E+02 0.  0.
         12    1    1    2    0    0 -0.96787042072E+00 -0.45492244004E+00 -0.49920704343E+00  0.11802267790E+01  0.00000000000E+00 0. -1.
         11    1    3    3    0    0 -0.74276222626E+01  0.52860530762E+00 -0.35106651367E+02  0.35887685443E+02  0.51100000000E-03 0. -1.
        -11    1    3    3    0    0  0.12281839864E+01  0.11023290452E+02 -0.44433265213E+01  0.11948410736E+02  0.51100000000E-03 0.  1.
        -12    1    3    3    0    0  0.71673086969E+01 -0.11096973319E+02  0.40049184931E+02  0.42171677041E+02  0.00000000000E+00 0.  1.
</event>
<event>
 7    1  0.1999542E-015  0.9000780E+02  0.7816164E-02  0.1186339E+00
        -11   -1    0    0    0    0  0.00000000000E+00  0.00000000000E+00  0.45593999997E+02  0.45594000000E+02  0.51100000000E-03 0. -1.
         11   -1    0    0    0    0 -0.00000000000E+00 -0.00000000000E+00 -0.45593999997E+02  0.45594000000E+02  0.51100000000E-03 0.  1.
    9900012    2    1    2    0    0  0.38841583504E+00 -0.69627788346E+00 -0.87017829799E+00  0.90007796618E+02  0.90000058734E+02 0.  0.
         12    1    1    2    0    0 -0.38841583504E+00  0.69627788346E+00  0.87017829799E+00  0.11802033817E+01  0.00000000000E+00 0. -1.
         11    1    3    3    0    0  0.47300148833E+01 -0.64875967429E+01  0.68327326665E+01  0.10542684110E+02  0.51100000000E-03 0. -1.
        -11    1    3    3    0    0  0.36398469787E+02 -0.41164198002E+01 -0.81893757003E+01  0.37534775734E+02  0.51100000000E-03 0.  1.
         12    1    3    3    0    0 -0.40740068835E+02  0.99077386597E+01  0.48646473578E+00  0.41930336774E+02  0.00000000000E+00 0. -1.
</event>
<event>
 7    1  0.1999542E-015  0.9000778E+02  0.7816164E-02  0.1186339E+00
        -11   -1    0    0    0    0  0.00000000000E+00  0.00000000000E+00  0.45593999997E+02  0.45594000000E+02  0.51100000000E-03 0.  1.
         11   -1    0    0    0    0 -0.00000000000E+00 -0.00000000000E+00 -0.45593999997E+02  0.45594000000E+02  0.51100000000E-03 0. -1.
    9900012    2    1    2    0    0  0.35093517208E+00  0.33326274509E+00  0.10764259640E+01  0.90007782898E+02  0.90000044832E+02 0.  0.
         12    1    1    2    0    0 -0.35093517208E+00 -0.33326274509E+00 -0.10764259640E+01  0.11802171021E+01  0.00000000000E+00 0. -1.
         11    1    3    3    0    0  0.38896930818E+01  0.31915548090E+01 -0.11172763513E+02  0.12253423160E+02  0.51100000000E-03 0. -1.
        -11    1    3    3    0    0  0.31214197941E+02  0.14380254960E+02  0.17569062586E+02  0.38597795872E+02  0.51100000000E-03 0.  1.
         12    1    3    3    0    0 -0.34752955850E+02 -0.17238547024E+02 -0.53198731093E+01  0.39156563865E+02  0.00000000000E+00 0. -1.
</event>
<event>
 7    1  0.1999542E-015  0.9000762E+02  0.7816164E-02  0.1186339E+00
        -11   -1    0    0    0    0  0.00000000000E+00  0.00000000000E+00  0.45593999997E+02  0.45594000000E+02  0.51100000000E-03 0. -1.
         11   -1    0    0    0    0 -0.00000000000E+00 -0.00000000000E+00 -0.45593999997E+02  0.45594000000E+02  0.51100000000E-03 0.  1.
    9900012    2    1    2    0    0  0.59621503385E+00 -0.94531370635E+00  0.37976040363E+00  0.90007615175E+02  0.89999874896E+02 0.  0.
         12    1    1    2    0    0 -0.59621503385E+00  0.94531370635E+00 -0.37976040363E+00  0.11803848246E+01  0.00000000000E+00 0. -1.
         11    1    3    3    0    0  0.30106602041E+02 -0.12098859197E+02 -0.62181050235E+01  0.33037171651E+02  0.51100000000E-03 0. -1.
        -11    1    3    3    0    0 -0.12700369625E+02 -0.18248648378E+02  0.62706258309E+01  0.23100504428E+02  0.51100000000E-03 0.  1.
        -12    1    3    3    0    0 -0.16810017382E+02  0.29402193869E+02  0.32723959620E+00  0.33869939097E+02  0.00000000000E+00 0.  1.
</event>
<event>
 7    1  0.1999542E-015  0.9000782E+02  0.7816164E-02  0.1186339E+00
        -11   -1    0    0    0    0  0.00000000000E+00  0.00000000000E+00  0.45593999997E+02  0.45594000000E+02  0.51100000000E-03 0. -1.
         11   -1    0    0    0    0 -0.00000000000E+00 -0.00000000000E+00 -0.45593999997E+02  0.45594000000E+02  0.51100000000E-03 0.  1.
    9900012    2    1    2    0    0  0.11188875038E+01  0.18510951034E+00 -0.32658156981E+00  0.90007817684E+02  0.90000080077E+02 0.  0.
         12    1    1    2    0    0 -0.11188875038E+01 -0.18510951034E+00  0.32658156981E+00  0.11801823159E+01  0.00000000000E+00 0. -1.
         11    1    3    3    0    0  0.69847345109E+01  0.17747798314E+02  0.30051342064E+02  0.35592892848E+02  0.51100000000E-03 0. -1.
        -11    1    3    3    0    0 -0.65587285161E+00  0.12143143608E+02 -0.82330685451E+00  0.12188680828E+02  0.51100000000E-03 0.  1.
        -12    1    3    3    0    0 -0.52099741554E+01 -0.29705832412E+02 -0.29554616780E+02  0.42226244008E+02  0.00000000000E+00 0.  1.
</event>
<event>
 7    1  0.1999542E-015  0.9000778E+02  0.7816164E-02  0.1186339E+00
        -11   -1    0    0    0    0  0.00000000000E+00  0.00000000000E+00  0.45593999997E+02  0.45594000000E+02  0.51100000000E-03 0.  1.
         11   -1    0    0    0    0 -0.00000000000E+00 -0.00000000000E+00 -0.45593999997E+02  0.45594000000E+02  0.51100000000E-03 0. -1.
    9900012    2    1    2    0    0  0.11337006904E-01 -0.96083042910E+00  0.68527715063E+00  0.90007776117E+02  0.90000037962E+02 0.  0.
         12    1    1    2    0    0 -0.11337006904E-01  0.96083042910E+00 -0.68527715063E+00  0.11802238832E+01  0.00000000000E+00 0. -1.
         11    1    3    3    0    0  0.21239788434E+02 -0.91755880864E+01 -0.30776857541E+02  0.38503700988E+02  0.51100000000E-03 0. -1.
        -11    1    3    3    0    0  0.54371350848E+01  0.58114248066E+01 -0.24221118850E+01  0.83187572664E+01  0.51100000000E-03 0.  1.
        -12    1    3    3    0    0 -0.26665586512E+02  0.24033328507E+01  0.33884246576E+02  0.43185317862E+02  0.00000000000E+00 0.  1.
</event>
<event>
 7    1  0.1999542E-015  0.9000774E+02  0.7816164E-02  0.1186339E+00
        -11   -1    0    0    0    0  0.00000000000E+00  0.00000000000E+00  0.45593999997E+02  0.45594000000E+02  0.51100000000E-03 0.  1.
         11   -1    0    0    0    0 -0.00000000000E+00 -0.00000000000E+00 -0.45593999997E+02  0.45594000000E+02  0.51100000000E-03 0. -1.
    9900012    2    1    2    0    0 -0.43421993615E+00  0.10972197788E+01  0.23837191949E-01  0.90007743076E+02  0.90000004484E+02 0.  0.
         12    1    1    2    0    0  0.43421993615E+00 -0.10972197788E+01 -0.23837191949E-01  0.11802569244E+01  0.00000000000E+00 0. -1.
         11    1    3    3    0    0 -0.22341848032E+01 -0.11163902923E+01 -0.77939387487E+01  0.81843381223E+01  0.51100000000E-03 0. -1.
        -11    1    3    3    0    0 -0.13447329908E+02  0.38965958299E+02 -0.26104864951E+00  0.41221896299E+02  0.51100000000E-03 0.  1.
         12    1    3    3    0    0  0.15247294775E+02 -0.36752348228E+02  0.80788245902E+01  0.40601508654E+02  0.00000000000E+00 0. -1.
</event>
<event>
 7    1  0.1999542E-015  0.9000777E+02  0.7816164E-02  0.1186339E+00
        -11   -1    0    0    0    0  0.00000000000E+00  0.00000000000E+00  0.45593999997E+02  0.45594000000E+02  0.51100000000E-03 0.  1.
         11   -1    0    0    0    0 -0.00000000000E+00 -0.00000000000E+00 -0.45593999997E+02  0.45594000000E+02  0.51100000000E-03 0. -1.
    9900012    2    1    2    0    0 -0.20131888121E+00  0.10551728624E+01  0.48889371780E+00  0.90007772849E+02  0.90000034650E+02 0.  0.
         12    1    1    2    0    0  0.20131888121E+00 -0.10551728624E+01 -0.48889371780E+00  0.11802271514E+01  0.00000000000E+00 0. -1.
         11    1    3    3    0    0 -0.10490093803E+01 -0.33694001930E+01  0.42368859255E+01  0.55140258385E+01  0.51100000000E-03 0. -1.
        -11    1    3    3    0    0  0.99196348063E+01 -0.38787599913E+02 -0.48304321423E+01  0.40326295846E+02  0.51100000000E-03 0.  1.
         12    1    3    3    0    0 -0.90719443073E+01  0.43212172968E+02  0.10824399346E+01  0.44167451164E+02  0.00000000000E+00 0. -1.
</event>
<event>
 7    1  0.1999542E-015  0.9000776E+02  0.7816164E-02  0.1186339E+00
        -11   -1    0    0    0    0  0.00000000000E+00  0.00000000000E+00  0.45593999997E+02  0.45594000000E+02  0.51100000000E-03 0.  1.
         11   -1    0    0    0    0 -0.00000000000E+00 -0.00000000000E+00 -0.45593999997E+02  0.45594000000E+02  0.51100000000E-03 0. -1.
    9900012    2    1    2    0    0 -0.11154906462E+01 -0.37920727389E+00  0.69604925542E-01  0.90007761726E+02  0.90000023381E+02 0.  0.
         12    1    1    2    0    0  0.11154906462E+01  0.37920727389E+00 -0.69604925542E-01  0.11802382742E+01  0.00000000000E+00 0. -1.
         11    1    3    3    0    0 -0.31083312879E+01  0.48077901740E+00 -0.84205644546E+01  0.89888140405E+01  0.51100000000E-03 0. -1.
        -11    1    3    3    0    0 -0.16062381152E+02  0.29523162309E+02 -0.16785283068E+02  0.37568110532E+02  0.51100000000E-03 0.  1.
         12    1    3    3    0    0  0.18055221794E+02 -0.30383148600E+02  0.25275452448E+02  0.43450837154E+02  0.00000000000E+00 0. -1.
</event>
<event>
 7    1  0.1999542E-015  0.9000773E+02  0.7816164E-02  0.1186339E+00
        -11   -1    0    0    0    0  0.00000000000E+00  0.00000000000E+00  0.45593999997E+02  0.45594000000E+02  0.51100000000E-03 0. -1.
         11   -1    0    0    0    0 -0.00000000000E+00 -0.00000000000E+00 -0.45593999997E+02  0.45594000000E+02  0.51100000000E-03 0.  1.
    9900012    2    1    2    0    0 -0.99301884782E+00 -0.63275738222E+00 -0.81068027089E-01  0.90007728691E+02  0.89999989910E+02 0.  0.
         12    1    1    2    0    0  0.99301884782E+00  0.63275738222E+00  0.81068027089E-01  0.11802713086E+01  0.00000000000E+00 0. -1.
         11    1    3    3    0    0 -0.16782458036E+01 -0.94209306757E+01 -0.37625588105E+01  0.10282377781E+02  0.51100000000E-03 0. -1.
        -11    1    3    3    0    0  0.10355395229E+02 -0.32668499219E+02  0.12076266486E+02  0.36335950023E+02  0.51100000000E-03 0.  1.
         12    1    3    3    0    0 -0.96701682728E+01  0.41456672513E+02 -0.83947757024E+01  0.43389400887E+02  0.00000000000E+00 0. -1.
</event>
<event>
 7    1  0.1999542E-015  0.9000748E+02  0.7816164E-02  0.1186340E+00
        -11   -1    0    0    0    0  0.00000000000E+00  0.00000000000E+00  0.45593999997E+02  0.45594000000E+02  0.51100000000E-03 0.  1.
         11   -1    0    0    0    0 -0.00000000000E+00 -0.00000000000E+00 -0.45593999997E+02  0.45594000000E+02  0.51100000000E-03 0. -1.
    9900012    2    1    2    0    0 -0.90997547344E+00 -0.44477498269E+00 -0.60641544493E+00  0.90007483232E+02  0.89999741210E+02 0.  0.
         12    1    1    2    0    0  0.90997547344E+00  0.44477498269E+00  0.60641544493E+00  0.11805167679E+01  0.00000000000E+00 0. -1.
         11    1    3    3    0    0 -0.11585807626E+02 -0.20467776281E+02 -0.27727100849E+02  0.36358670575E+02  0.51100000000E-03 0. -1.
        -11    1    3    3    0    0  0.15686576538E+02  0.27879323196E+01 -0.51317412535E+01  0.16738459268E+02  0.51100000000E-03 0.  1.
        -12    1    3    3    0    0 -0.50107443855E+01  0.17235068979E+02  0.32252426658E+02  0.36910353389E+02  0.00000000000E+00 0.  1.
</event>
<event>
 7    1  0.1999542E-015  0.9000774E+02  0.7816164E-02  0.1186339E+00
        -11   -1    0    0    0    0  0.00000000000E+00  0.00000000000E+00  0.45593999997E+02  0.45594000000E+02  0.51100000000E-03 0.  1.
         11   -1    0    0    0    0 -0.00000000000E+00 -0.00000000000E+00 -0.45593999997E+02  0.45594000000E+02  0.51100000000E-03 0. -1.
    9900012    2    1    2    0    0  0.33745631362E+00 -0.89944877773E-01  0.11274047612E+01  0.90007742257E+02  0.90000003655E+02 0.  0.
         12    1    1    2    0    0 -0.33745631362E+00  0.89944877773E-01 -0.11274047612E+01  0.11802577431E+01  0.00000000000E+00 0. -1.
         11    1    3    3    0    0  0.11254016314E+02  0.24402681754E+02  0.27126868005E+02  0.38183906662E+02  0.51100000000E-03 0.  1.
        -11    1    3    3    0    0  0.43235006864E+01 -0.42239652953E+01 -0.25764240242E+02  0.26463760438E+02  0.51100000000E-03 0. -1.
        -12    1    3    3    0    0 -0.15240060687E+02 -0.20268661336E+02 -0.23522300147E+00  0.25360075157E+02  0.00000000000E+00 0.  1.
</event>
<event>
 7    1  0.1999542E-015  0.9000772E+02  0.7816164E-02  0.1186339E+00
        -11   -1    0    0    0    0  0.00000000000E+00  0.00000000000E+00  0.45593999997E+02  0.45594000000E+02  0.51100000000E-03 0.  1.
         11   -1    0    0    0    0 -0.00000000000E+00 -0.00000000000E+00 -0.45593999997E+02  0.45594000000E+02  0.51100000000E-03 0. -1.
    9900012    2    1    2    0    0 -0.44074681305E+00 -0.96564708594E+00 -0.51606933638E+00  0.90007720538E+02  0.89999981649E+02 0.  0.
         12    1    1    2    0    0  0.44074681305E+00  0.96564708594E+00  0.51606933638E+00  0.11802794617E+01  0.00000000000E+00 0. -1.
         11    1    3    3    0    0  0.27487292966E+01 -0.92262577952E+01  0.13384528634E+01  0.97196091474E+01  0.51100000000E-03 0. -1.
        -11    1    3    3    0    0  0.20037866644E+02  0.23352270137E+02  0.26529316357E+02  0.40628182913E+02  0.51100000000E-03 0.  1.
         12    1    3    3    0    0 -0.23227342754E+02 -0.15091659428E+02 -0.28383838556E+02  0.39659928478E+02  0.00000000000E+00 0. -1.
</event>
<event>
 7    1  0.1999542E-015  0.9000772E+02  0.7816164E-02  0.1186339E+00
        -11   -1    0    0    0    0  0.00000000000E+00  0.00000000000E+00  0.45593999997E+02  0.45594000000E+02  0.51100000000E-03 0. -1.
         11   -1    0    0    0    0 -0.00000000000E+00 -0.00000000000E+00 -0.45593999997E+02  0.45594000000E+02  0.51100000000E-03 0.  1.
    9900012    2    1    2    0    0 -0.94461096453E+00 -0.42243505828E+00 -0.56773822705E+00  0.90007717005E+02  0.89999978070E+02 0.  0.
         12    1    1    2    0    0  0.94461096453E+00  0.42243505828E+00  0.56773822705E+00  0.11802829945E+01  0.00000000000E+00 0. -1.
         11    1    3    3    0    0 -0.48365605909E+01  0.75353480142E+01 -0.11573090424E+01  0.90284634642E+01  0.51100000000E-03 0. -1.
        -11    1    3    3    0    0 -0.17480239049E+02 -0.38525566056E+02  0.77231705564E+01  0.43004945772E+02  0.51100000000E-03 0.  1.
         12    1    3    3    0    0  0.21372188675E+02  0.30567782983E+02 -0.71335997410E+01  0.37974307769E+02  0.00000000000E+00 0. -1.
</event>
<event>
 7    1  0.1999542E-015  0.9000779E+02  0.7816164E-02  0.1186339E+00
        -11   -1    0    0    0    0  0.00000000000E+00  0.00000000000E+00  0.45593999997E+02  0.45594000000E+02  0.51100000000E-03 0. -1.
         11   -1    0    0    0    0 -0.00000000000E+00 -0.00000000000E+00 -0.45593999997E+02  0.45594000000E+02  0.51100000000E-03 0.  1.
    9900012    2    1    2    0    0 -0.65293394148E+00 -0.34235329159E+00 -0.92160612777E+00  0.90007793932E+02  0.90000056012E+02 0.  0.
         12    1    1    2    0    0  0.65293394148E+00  0.34235329159E+00  0.92160612777E+00  0.11802060680E+01  0.00000000000E+00 0. -1.
         11    1    3    3    0    0  0.24376222049E+02 -0.19691417196E+02  0.11831473812E+02  0.33495311395E+02  0.51100000000E-03 0. -1.
        -11    1    3    3    0    0  0.32166670510E+01 -0.79953927034E+01  0.82585065893E+01  0.11936338750E+02  0.51100000000E-03 0.  1.
        -12    1    3    3    0    0 -0.28245823042E+02  0.27344456608E+02 -0.21011586530E+02  0.44576143788E+02  0.00000000000E+00 0.  1.
</event>
<event>
 7    1  0.1999542E-015  0.9000781E+02  0.7816164E-02  0.1186339E+00
        -11   -1    0    0    0    0  0.00000000000E+00  0.00000000000E+00  0.45593999997E+02  0.45594000000E+02  0.51100000000E-03 0. -1.
         11   -1    0    0    0    0 -0.00000000000E+00 -0.00000000000E+00 -0.45593999997E+02  0.45594000000E+02  0.51100000000E-03 0.  1.
    9900012    2    1    2    0    0  0.45026639713E+00  0.10565173482E+01 -0.27180559069E+00  0.90007810602E+02  0.90000072902E+02 0.  0.
         12    1    1    2    0    0 -0.45026639713E+00 -0.10565173482E+01  0.27180559069E+00  0.11801893978E+01  0.00000000000E+00 0. -1.
         11    1    3    3    0    0  0.90444785019E+01 -0.38997756809E+01  0.10998621857E+01  0.99106275695E+01  0.51100000000E-03 0. -1.
        -11    1    3    3    0    0  0.24154031978E+01  0.12859073898E+01 -0.39831064210E+02  0.39924947174E+02  0.51100000000E-03 0.  1.
         12    1    3    3    0    0 -0.11009615303E+02  0.36703856393E+01  0.38459396434E+02  0.40172235859E+02  0.00000000000E+00 0. -1.
</event>
<event>
 7    1  0.1999542E-015  0.9000775E+02  0.7816164E-02  0.1186339E+00
        -11   -1    0    0    0    0  0.00000000000E+00  0.00000000000E+00  0.45593999997E+02  0.45594000000E+02  0.51100000000E-03 0. -1.
         11   -1    0    0    0    0 -0.00000000000E+00 -0.00000000000E+00 -0.45593999997E+02  0.45594000000E+02  0.51100000000E-03 0.  1.
    9900012    2    1    2    0    0  0.61588003104E-01  0.15675470084E+00 -0.11681668891E+01  0.90007754687E+02  0.90000016249E+02 0.  0.
         12    1    1    2    0    0 -0.61588003104E-01 -0.15675470084E+00  0.11681668891E+01  0.11802453131E+01  0.00000000000E+00 0. -1.
         11    1    3    3    0    0 -0.26979804313E+01  0.39471043513E+01  0.62035063198E+01  0.78321275583E+01  0.51100000000E-03 0. -1.
        -11    1    3    3    0    0 -0.38274134975E+02 -0.15390796343E+00 -0.13378949402E+02  0.40545399038E+02  0.51100000000E-03 0.  1.
         12    1    3    3    0    0  0.41033703410E+02 -0.36364416870E+01  0.60072761929E+01  0.41630228091E+02  0.00000000000E+00 0. -1.
</event>
<event>
 7    1  0.1999542E-015  0.9000774E+02  0.7816164E-02  0.1186339E+00
        -11   -1    0    0    0    0  0.00000000000E+00  0.00000000000E+00  0.45593999997E+02  0.45594000000E+02  0.51100000000E-03 0. -1.
         11   -1    0    0    0    0 -0.00000000000E+00 -0.00000000000E+00 -0.45593999997E+02  0.45594000000E+02  0.51100000000E-03 0.  1.
    9900012    2    1    2    0    0  0.26324142628E+00  0.65983116543E+00 -0.94252315367E+00  0.90007736000E+02  0.89999997315E+02 0.  0.
         12    1    1    2    0    0 -0.26324142628E+00 -0.65983116543E+00  0.94252315367E+00  0.11802640004E+01  0.00000000000E+00 0. -1.
         11    1    3    3    0    0 -0.98846351301E+01  0.36304932546E+00  0.57413146805E+01  0.11436805104E+02  0.51100000000E-03 0. -1.
        -11    1    3    3    0    0 -0.25981046578E+02  0.55858739075E+01 -0.26072174944E+02  0.37228686186E+02  0.51100000000E-03 0.  1.
         12    1    3    3    0    0  0.36128923134E+02 -0.52890920675E+01  0.19388337110E+02  0.41342244709E+02  0.00000000000E+00 0. -1.
</event>
<event>
 7    1  0.1999542E-015  0.9000673E+02  0.7816164E-02  0.1186341E+00
        -11   -1    0    0    0    0  0.00000000000E+00  0.00000000000E+00  0.45593999997E+02  0.45594000000E+02  0.51100000000E-03 0. -1.
         11   -1    0    0    0    0 -0.00000000000E+00 -0.00000000000E+00 -0.45593999997E+02  0.45594000000E+02  0.51100000000E-03 0.  1.
    9900012    2    1    2    0    0 -0.37487745627E+00 -0.10777946685E+01 -0.30530985316E+00  0.90006734339E+02  0.89998982427E+02 0.  0.
         12    1    1    2    0    0  0.37487745627E+00  0.10777946685E+01  0.30530985316E+00  0.11812656607E+01  0.00000000000E+00 0. -1.
         11    1    3    3    0    0  0.13338679612E+02  0.76199449992E+01  0.25355354786E+02  0.29645875804E+02  0.51100000000E-03 0. -1.
        -11    1    3    3    0    0  0.60083738808E+01  0.19398332478E+02 -0.94455644605E+01  0.22396753065E+02  0.51100000000E-03 0.  1.
         12    1    3    3    0    0 -0.19721930949E+02 -0.28096072146E+02 -0.16215100179E+02  0.37964105471E+02  0.00000000000E+00 0. -1.
</event>
<event>
 7    1  0.1999542E-015  0.9000773E+02  0.7816164E-02  0.1186339E+00
        -11   -1    0    0    0    0  0.00000000000E+00  0.00000000000E+00  0.45593999997E+02  0.45594000000E+02  0.51100000000E-03 0. -1.
         11   -1    0    0    0    0 -0.00000000000E+00 -0.00000000000E+00 -0.45593999997E+02  0.45594000000E+02  0.51100000000E-03 0.  1.
    9900012    2    1    2    0    0  0.59330296567E+00 -0.90546325356E+00  0.47027342969E+00  0.90007733415E+02  0.89999994696E+02 0.  0.
         12    1    1    2    0    0 -0.59330296567E+00  0.90546325356E+00 -0.47027342969E+00  0.11802665848E+01  0.00000000000E+00 0. -1.
         11    1    3    3    0    0  0.25666749450E+02  0.24201329743E+02  0.82573128684E+01  0.36230782557E+02  0.51100000000E-03 0. -1.
        -11    1    3    3    0    0  0.26388565320E+01 -0.46347296005E+01  0.12642527593E+02  0.13721435292E+02  0.51100000000E-03 0.  1.
        -12    1    3    3    0    0 -0.27712303016E+02 -0.20472063396E+02 -0.20429567032E+02  0.40055515566E+02  0.00000000000E+00 0.  1.
</event>
<event>
 7    1  0.1999542E-015  0.9000768E+02  0.7816164E-02  0.1186339E+00
        -11   -1    0    0    0    0  0.00000000000E+00  0.00000000000E+00  0.45593999997E+02  0.45594000000E+02  0.51100000000E-03 0. -1.
         11   -1    0    0    0    0 -0.00000000000E+00 -0.00000000000E+00 -0.45593999997E+02  0.45594000000E+02  0.51100000000E-03 0.  1.
    9900012    2    1    2    0    0  0.10577550335E+00 -0.73877723946E+00 -0.91441993247E+00  0.90007684754E+02  0.89999945393E+02 0.  0.
         12    1    1    2    0    0 -0.10577550335E+00  0.73877723946E+00  0.91441993247E+00  0.11803152458E+01  0.00000000000E+00 0. -1.
         11    1    3    3    0    0 -0.34454101177E+02  0.79201217041E+01  0.43566649341E+01  0.35620133988E+02  0.51100000000E-03 0. -1.
        -11    1    3    3    0    0 -0.87594340409E+01 -0.37799790176E+01  0.30324602663E+01  0.10010581483E+02  0.51100000000E-03 0.  1.
        -12    1    3    3    0    0  0.43319310721E+02 -0.48789199259E+01 -0.83035451328E+01  0.44376969283E+02  0.00000000000E+00 0.  1.
</event>
<event>
 7    1  0.3632539E-015  0.9000777E+02  0.7816164E-02  0.1186339E+00
        -11   -1    0    0    0    0  0.00000000000E+00  0.00000000000E+00  0.45593999997E+02  0.45594000000E+02  0.51100000000E-03 0. -1.
         11   -1    0    0    0    0 -0.00000000000E+00 -0.00000000000E+00 -0.45593999997E+02  0.45594000000E+02  0.51100000000E-03 0.  1.
    9900012    2    1    2    0    0  0.90442299731E+00  0.33459052700E+00 -0.68044881373E+00  0.90007770206E+02  0.90000031973E+02 0.  0.
         12    1    1    2    0    0 -0.90442299731E+00 -0.33459052700E+00  0.68044881373E+00  0.11802297941E+01  0.00000000000E+00 0. -1.
         11    1    3    3    0    0  0.87342470766E+01 -0.62930869978E+01  0.34465352456E+02  0.36107485874E+02  0.51100000000E-03 0. -1.
        -11    1    3    3    0    0 -0.35028311141E+01 -0.25837992145E+01  0.82496031687E+01  0.93274753764E+01  0.51100000000E-03 0.  1.
        -12    1    3    3    0    0 -0.43269929652E+01  0.92114767393E+01 -0.43395404438E+02  0.44572808956E+02  0.00000000000E+00 0.  1.
</event>
<event>
 7    1  0.1999542E-015  0.9000772E+02  0.7816164E-02  0.1186339E+00
        -11   -1    0    0    0    0  0.00000000000E+00  0.00000000000E+00  0.45593999997E+02  0.45594000000E+02  0.51100000000E-03 0. -1.
         11   -1    0    0    0    0 -0.00000000000E+00 -0.00000000000E+00 -0.45593999997E+02  0.45594000000E+02  0.51100000000E-03 0.  1.
    9900012    2    1    2    0    0 -0.19859236159E+00  0.11611492171E+01  0.73174961606E-01  0.90007719946E+02  0.89999981049E+02 0.  0.
         12    1    1    2    0    0  0.19859236159E+00 -0.11611492171E+01 -0.73174961606E-01  0.11802800539E+01  0.00000000000E+00 0. -1.
         11    1    3    3    0    0 -0.20055057166E+01  0.79533521212E+01 -0.67393061797E+01  0.10615842462E+02  0.51100000000E-03 0. -1.
        -11    1    3    3    0    0  0.33108153545E+02 -0.33950234162E+01 -0.19312759806E+02  0.38479328304E+02  0.51100000000E-03 0.  1.
         12    1    3    3    0    0 -0.31301240190E+02 -0.33971794878E+01  0.26125240947E+02  0.40912549180E+02  0.00000000000E+00 0. -1.
</event>
<event>
 7    1  0.1999542E-015  0.9000769E+02  0.7816164E-02  0.1186339E+00
        -11   -1    0    0    0    0  0.00000000000E+00  0.00000000000E+00  0.45593999997E+02  0.45594000000E+02  0.51100000000E-03 0. -1.
         11   -1    0    0    0    0 -0.00000000000E+00 -0.00000000000E+00 -0.45593999997E+02  0.45594000000E+02  0.51100000000E-03 0.  1.
    9900012    2    1    2    0    0 -0.92548163802E+00  0.61874182761E+00 -0.39214565502E+00  0.90007688208E+02  0.89999948892E+02 0.  0.
         12    1    1    2    0    0  0.92548163802E+00 -0.61874182761E+00  0.39214565502E+00  0.11803117920E+01  0.00000000000E+00 0. -1.
         11    1    3    3    0    0  0.17885447309E+02  0.30729761620E+02 -0.22391026394E+02  0.42018633223E+02  0.51100000000E-03 0. -1.
        -11    1    3    3    0    0  0.26716799642E+01 -0.82538476722E+01 -0.21884132184E+01  0.89472357688E+01  0.51100000000E-03 0.  1.
        -12    1    3    3    0    0 -0.21482608911E+02 -0.21857172121E+02  0.24187293957E+02  0.39041819216E+02  0.00000000000E+00 0.  1.
</event>
<event>
 7    1  0.1999542E-015  0.9000682E+02  0.7816164E-02  0.1186341E+00
        -11   -1    0    0    0    0  0.00000000000E+00  0.00000000000E+00  0.45593999997E+02  0.45594000000E+02  0.51100000000E-03 0.  1.
         11   -1    0    0    0    0 -0.00000000000E+00 -0.00000000000E+00 -0.45593999997E+02  0.45594000000E+02  0.51100000000E-03 0. -1.
    9900012    2    1    2    0    0 -0.94705665845E+00  0.67103964455E+00 -0.21904625347E+00  0.90006817635E+02  0.89999066823E+02 0.  0.
         12    1    1    2    0    0  0.94705665845E+00 -0.67103964455E+00  0.21904625347E+00  0.11811823653E+01  0.00000000000E+00 0. -1.
         11    1    3    3    0    0 -0.23115247377E+01 -0.38463771719E+01 -0.36076429344E+02  0.36354456651E+02  0.51100000000E-03 0. -1.
        -11    1    3    3    0    0  0.22306607767E+01  0.56046244338E+01 -0.78627576616E+01  0.99101271864E+01  0.51100000000E-03 0.  1.
        -12    1    3    3    0    0 -0.86619269739E+00 -0.10872076174E+01  0.43720140752E+02  0.43742233797E+02  0.00000000000E+00 0.  1.
</event>
<event>
 7    1  0.1999542E-015  0.9000769E+02  0.7816164E-02  0.1186339E+00
        -11   -1    0    0    0    0  0.00000000000E+00  0.00000000000E+00  0.45593999997E+02  0.45594000000E+02  0.51100000000E-03 0. -1.
         11   -1    0    0    0    0 -0.00000000000E+00 -0.00000000000E+00 -0.45593999997E+02  0.45594000000E+02  0.51100000000E-03 0.  1.
    9900012    2    1    2    0    0 -0.11470313816E+01  0.26676033938E+00 -0.79235385521E-01  0.90007694821E+02  0.89999955593E+02 0.  0.
         12    1    1    2    0    0  0.11470313816E+01 -0.26676033938E+00  0.79235385521E-01  0.11803051789E+01  0.00000000000E+00 0. -1.
         11    1    3    3    0    0 -0.27357028053E+02  0.11359311666E+02 -0.24642730149E+02  0.38531871157E+02  0.51100000000E-03 0. -1.
        -11    1    3    3    0    0 -0.45563322110E+01 -0.70789260472E+01 -0.39841647100E+01  0.93136956090E+01  0.51100000000E-03 0.  1.
        -12    1    3    3    0    0  0.30766328882E+02 -0.40136252797E+01  0.28547659473E+02  0.42162128055E+02  0.00000000000E+00 0.  1.
</event>
<event>
 7    1  0.1999542E-015  0.9000776E+02  0.7816164E-02  0.1186339E+00
        -11   -1    0    0    0    0  0.00000000000E+00  0.00000000000E+00  0.45593999997E+02  0.45594000000E+02  0.51100000000E-03 0.  1.
         11   -1    0    0    0    0 -0.00000000000E+00 -0.00000000000E+00 -0.45593999997E+02  0.45594000000E+02  0.51100000000E-03 0. -1.
    9900012    2    1    2    0    0 -0.90236953873E+00  0.41513296421E+00  0.63745504270E+00  0.90007764814E+02  0.90000026510E+02 0.  0.
         12    1    1    2    0    0  0.90236953873E+00 -0.41513296421E+00 -0.63745504270E+00  0.11802351858E+01  0.00000000000E+00 0. -1.
         11    1    3    3    0    0  0.12802156649E+00 -0.39932402681E+01 -0.79476775649E+01  0.88953884849E+01  0.51100000000E-03 0. -1.
        -11    1    3    3    0    0  0.17194458059E+02  0.49619862354E+01 -0.31974973113E+02  0.36642456266E+02  0.51100000000E-03 0.  1.
         12    1    3    3    0    0 -0.18224849164E+02 -0.55361300301E+00  0.40560105721E+02  0.44469920064E+02  0.00000000000E+00 0. -1.
</event>
<event>
 7    1  0.1999542E-015  0.9000777E+02  0.7816164E-02  0.1186339E+00
        -11   -1    0    0    0    0  0.00000000000E+00  0.00000000000E+00  0.45593999997E+02  0.45594000000E+02  0.51100000000E-03 0.  1.
         11   -1    0    0    0    0 -0.00000000000E+00 -0.00000000000E+00 -0.45593999997E+02  0.45594000000E+02  0.51100000000E-03 0. -1.
    9900012    2    1    2    0    0  0.68393243786E+00  0.70091542089E+00 -0.65870302448E+00  0.90007773038E+02  0.90000034842E+02 0.  0.
         12    1    1    2    0    0 -0.68393243786E+00 -0.70091542089E+00  0.65870302448E+00  0.11802269618E+01  0.00000000000E+00 0. -1.
         11    1    3    3    0    0 -0.38304314046E+01 -0.72444310767E+01  0.77436676040E+01  0.11274678470E+02  0.51100000000E-03 0. -1.
        -11    1    3    3    0    0 -0.29070681870E+02  0.15699394951E+02  0.15793598668E+02  0.36619848516E+02  0.51100000000E-03 0.  1.
         12    1    3    3    0    0  0.33585045712E+02 -0.77540484533E+01 -0.24195969296E+02  0.42113246053E+02  0.00000000000E+00 0. -1.
</event>
<event>
 7    1  0.1999542E-015  0.9000787E+02  0.7816164E-02  0.1186339E+00
        -11   -1    0    0    0    0  0.00000000000E+00  0.00000000000E+00  0.45593999997E+02  0.45594000000E+02  0.51100000000E-03 0.  1.
         11   -1    0    0    0    0 -0.00000000000E+00 -0.00000000000E+00 -0.45593999997E+02  0.45594000000E+02  0.51100000000E-03 0. -1.
    9900012    2    1    2    0    0 -0.23219152059E+00  0.79372528077E+00  0.84189585913E+00  0.90007872311E+02  0.90000135426E+02 0.  0.
         12    1    1    2    0    0  0.23219152059E+00 -0.79372528077E+00 -0.84189585913E+00  0.11801276885E+01  0.00000000000E+00 0. -1.
         11    1    3    3    0    0 -0.49976876808E+01  0.10659378280E+02  0.37513671882E+01  0.12356050482E+02  0.51100000000E-03 0. -1.
        -11    1    3    3    0    0 -0.28907139846E+02  0.17631142414E+02 -0.44526883986E+01  0.34151227666E+02  0.51100000000E-03 0.  1.
         12    1    3    3    0    0  0.33672636006E+02 -0.27496795413E+02  0.15432170695E+01  0.43500594163E+02  0.00000000000E+00 0. -1.
</event>
<event>
 7    1  0.1999542E-015  0.9000775E+02  0.7816164E-02  0.1186339E+00
        -11   -1    0    0    0    0  0.00000000000E+00  0.00000000000E+00  0.45593999997E+02  0.45594000000E+02  0.51100000000E-03 0. -1.
         11   -1    0    0    0    0 -0.00000000000E+00 -0.00000000000E+00 -0.45593999997E+02  0.45594000000E+02  0.51100000000E-03 0.  1.
    9900012    2    1    2    0    0 -0.16511504184E+00 -0.11581573896E+01  0.15623204290E+00  0.90007745804E+02  0.90000007249E+02 0.  0.
         12    1    1    2    0    0  0.16511504184E+00  0.11581573896E+01 -0.15623204290E+00  0.11802541961E+01  0.00000000000E+00 0. -1.
         11    1    3    3    0    0 -0.74933952779E+01 -0.58773777868E+01  0.32944643810E+01  0.10077104657E+02  0.51100000000E-03 0. -1.
        -11    1    3    3    0    0 -0.78858020459E+01 -0.35746507690E+02 -0.31629470333E+00  0.36607358939E+02  0.51100000000E-03 0.  1.
         12    1    3    3    0    0  0.15214082282E+02  0.40465728087E+02 -0.28219376348E+01  0.43323282208E+02  0.00000000000E+00 0. -1.
</event>
<event>
 7    1  0.1999542E-015  0.9000773E+02  0.7816164E-02  0.1186339E+00
        -11   -1    0    0    0    0  0.00000000000E+00  0.00000000000E+00  0.45593999997E+02  0.45594000000E+02  0.51100000000E-03 0.  1.
         11   -1    0    0    0    0 -0.00000000000E+00 -0.00000000000E+00 -0.45593999997E+02  0.45594000000E+02  0.51100000000E-03 0. -1.
    9900012    2    1    2    0    0  0.12600111136E+00 -0.82769552567E+00  0.83190893902E+00  0.90007733655E+02  0.89999994939E+02 0.  0.
         12    1    1    2    0    0 -0.12600111136E+00  0.82769552567E+00 -0.83190893902E+00  0.11802663454E+01  0.00000000000E+00 0. -1.
         11    1    3    3    0    0 -0.47234975021E+01  0.65287033397E+00 -0.14907751314E+01  0.49960063129E+01  0.51100000000E-03 0. -1.
        -11    1    3    3    0    0  0.59588770083E+01  0.33787403829E+02 -0.23240673999E+02  0.41439423269E+02  0.51100000000E-03 0.  1.
         12    1    3    3    0    0 -0.11093783949E+01 -0.35267969689E+02  0.25563358070E+02  0.43572304072E+02  0.00000000000E+00 0. -1.
</event>
<event>
 7    1  0.1999542E-015  0.9000775E+02  0.7816164E-02  0.1186339E+00
        -11   -1    0    0    0    0  0.00000000000E+00  0.00000000000E+00  0.45593999997E+02  0.45594000000E+02  0.51100000000E-03 0.  1.
         11   -1    0    0    0    0 -0.00000000000E+00 -0.00000000000E+00 -0.45593999997E+02  0.45594000000E+02  0.51100000000E-03 0. -1.
    9900012    2    1    2    0    0 -0.91446318329E+00 -0.67107108699E+00  0.32619118668E+00  0.90007754260E+02  0.90000015816E+02 0.  0.
         12    1    1    2    0    0  0.91446318329E+00  0.67107108699E+00 -0.32619118668E+00  0.11802457404E+01  0.00000000000E+00 0. -1.
         11    1    3    3    0    0  0.45903843422E+01 -0.13526742133E+02 -0.35307447973E+02  0.38087534230E+02  0.51100000000E-03 0. -1.
        -11    1    3    3    0    0  0.71042989308E+01 -0.19633411455E+01 -0.35428687904E+01  0.81778781649E+01  0.51100000000E-03 0.  1.
        -12    1    3    3    0    0 -0.12609146456E+02  0.14819012191E+02  0.39176507950E+02  0.43742341865E+02  0.00000000000E+00 0.  1.
</event>
<event>
 7    1  0.1999542E-015  0.9000763E+02  0.7816164E-02  0.1186339E+00
        -11   -1    0    0    0    0  0.00000000000E+00  0.00000000000E+00  0.45593999997E+02  0.45594000000E+02  0.51100000000E-03 0. -1.
         11   -1    0    0    0    0 -0.00000000000E+00 -0.00000000000E+00 -0.45593999997E+02  0.45594000000E+02  0.51100000000E-03 0.  1.
    9900012    2    1    2    0    0 -0.20098321824E-01 -0.88208815122E+00 -0.78409079245E+00  0.90007626407E+02  0.89999886275E+02 0.  0.
         12    1    1    2    0    0  0.20098321824E-01  0.88208815122E+00  0.78409079245E+00  0.11803735933E+01  0.00000000000E+00 0. -1.
         11    1    3    3    0    0  0.24220072907E+01 -0.10198680002E+02  0.36454624618E+02  0.37931765704E+02  0.51100000000E-03 0. -1.
        -11    1    3    3    0    0  0.19757368507E+01 -0.20022944574E-01  0.66762638959E+01  0.69625022004E+01  0.51100000000E-03 0.  1.
        -12    1    3    3    0    0 -0.44178424633E+01  0.93366147952E+01 -0.43914979307E+02  0.45113358502E+02  0.00000000000E+00 0.  1.
</event>
<event>
 7    1  0.1999542E-015  0.9000775E+02  0.7816164E-02  0.1186339E+00
        -11   -1    0    0    0    0  0.00000000000E+00  0.00000000000E+00  0.45593999997E+02  0.45594000000E+02  0.51100000000E-03 0.  1.
         11   -1    0    0    0    0 -0.00000000000E+00 -0.00000000000E+00 -0.45593999997E+02  0.45594000000E+02  0.51100000000E-03 0. -1.
    9900012    2    1    2    0    0 -0.10161565846E+01  0.51049567092E+00  0.31593617397E+00  0.90007747612E+02  0.90000009080E+02 0.  0.
         12    1    1    2    0    0  0.10161565846E+01 -0.51049567092E+00 -0.31593617397E+00  0.11802523884E+01  0.00000000000E+00 0. -1.
         11    1    3    3    0    0 -0.29959484262E+02  0.25572769127E+02  0.10602977287E+02  0.40791670053E+02  0.51100000000E-03 0. -1.
        -11    1    3    3    0    0 -0.19472618315E+01  0.43980631273E+01 -0.36023599993E+01  0.60093082578E+01  0.51100000000E-03 0.  1.
        -12    1    3    3    0    0  0.30890589509E+02 -0.29460336584E+02 -0.66846811133E+01  0.43206769301E+02  0.00000000000E+00 0.  1.
</event>
<event>
 7    1  0.1999542E-015  0.9000778E+02  0.7816164E-02  0.1186339E+00
        -11   -1    0    0    0    0  0.00000000000E+00  0.00000000000E+00  0.45593999997E+02  0.45594000000E+02  0.51100000000E-03 0.  1.
         11   -1    0    0    0    0 -0.00000000000E+00 -0.00000000000E+00 -0.45593999997E+02  0.45594000000E+02  0.51100000000E-03 0. -1.
    9900012    2    1    2    0    0 -0.21140529831E+00 -0.17068263008E+00  0.11485200869E+01  0.90007778347E+02  0.90000040221E+02 0.  0.
         12    1    1    2    0    0  0.21140529831E+00  0.17068263008E+00 -0.11485200869E+01  0.11802216531E+01  0.00000000000E+00 0. -1.
         11    1    3    3    0    0  0.13231962604E+02 -0.31126633809E+02  0.75096407395E+01  0.34646022440E+02  0.51100000000E-03 0. -1.
        -11    1    3    3    0    0 -0.64917104210E+01 -0.80737949662E+01  0.81124816453E+01  0.13158298828E+02  0.51100000000E-03 0.  1.
        -12    1    3    3    0    0 -0.69516574816E+01  0.39029746145E+02 -0.14473602298E+02  0.42203457078E+02  0.00000000000E+00 0.  1.
</event>
<event>
 7    1  0.1999542E-015  0.9000772E+02  0.7816164E-02  0.1186339E+00
        -11   -1    0    0    0    0  0.00000000000E+00  0.00000000000E+00  0.45593999997E+02  0.45594000000E+02  0.51100000000E-03 0.  1.
         11   -1    0    0    0    0 -0.00000000000E+00 -0.00000000000E+00 -0.45593999997E+02  0.45594000000E+02  0.51100000000E-03 0. -1.
    9900012    2    1    2    0    0  0.30431649861E+00  0.68257122238E+00  0.91353943973E+00  0.90007717698E+02  0.89999978771E+02 0.  0.
         12    1    1    2    0    0 -0.30431649861E+00 -0.68257122238E+00 -0.91353943973E+00  0.11802823022E+01  0.00000000000E+00 0. -1.
         11    1    3    3    0    0  0.70246904876E+01 -0.36641055745E+02  0.20205740790E+01  0.37363029353E+02  0.51100000000E-03 0. -1.
        -11    1    3    3    0    0  0.97202372582E+00 -0.44411570374E+01 -0.84041643429E+01  0.95550345116E+01  0.51100000000E-03 0.  1.
        -12    1    3    3    0    0 -0.76923977148E+01  0.41764784005E+02  0.72971297037E+01  0.43089653833E+02  0.00000000000E+00 0.  1.
</event>
<event>
 7    1  0.1999542E-015  0.9000772E+02  0.7816164E-02  0.1186339E+00
        -11   -1    0    0    0    0  0.00000000000E+00  0.00000000000E+00  0.45593999997E+02  0.45594000000E+02  0.51100000000E-03 0.  1.
         11   -1    0    0    0    0 -0.00000000000E+00 -0.00000000000E+00 -0.45593999997E+02  0.45594000000E+02  0.51100000000E-03 0. -1.
    9900012    2    1    2    0    0 -0.55745707639E+00 -0.92489383158E+00 -0.47630814010E+00  0.90007721882E+02  0.89999983011E+02 0.  0.
         12    1    1    2    0    0  0.55745707639E+00  0.92489383158E+00  0.47630814010E+00  0.11802781181E+01  0.00000000000E+00 0. -1.
         11    1    3    3    0    0  0.22042878576E+02 -0.15268281567E+02 -0.27610385652E+02  0.38488210066E+02  0.51100000000E-03 0. -1.
        -11    1    3    3    0    0  0.33261181549E+01 -0.84713883364E+01  0.39331781739E+01  0.99145031714E+01  0.51100000000E-03 0.  1.
        -12    1    3    3    0    0 -0.25926453808E+02  0.22814776072E+02  0.23200899338E+02  0.41605008645E+02  0.00000000000E+00 0.  1.
</event>
<event>
 7    1  0.1999542E-015  0.9000776E+02  0.7816164E-02  0.1186339E+00
        -11   -1    0    0    0    0  0.00000000000E+00  0.00000000000E+00  0.45593999997E+02  0.45594000000E+02  0.51100000000E-03 0. -1.
         11   -1    0    0    0    0 -0.00000000000E+00 -0.00000000000E+00 -0.45593999997E+02  0.45594000000E+02  0.51100000000E-03 0.  1.
    9900012    2    1    2    0    0  0.71097620314E+00  0.18254284097E+00 -0.92421220241E+00  0.90007755430E+02  0.90000017002E+02 0.  0.
         12    1    1    2    0    0 -0.71097620314E+00 -0.18254284097E+00  0.92421220241E+00  0.11802445701E+01  0.00000000000E+00 0. -1.
         11    1    3    3    0    0 -0.79867921566E+01  0.72226056524E-01 -0.96680589474E+01  0.12540551408E+02  0.51100000000E-03 0. -1.
        -11    1    3    3    0    0 -0.15690453193E+02  0.21835600189E+02 -0.20354546341E+02  0.33723750000E+02  0.51100000000E-03 0.  1.
         12    1    3    3    0    0  0.24388221553E+02 -0.21725283405E+02  0.29098393086E+02  0.43743454022E+02  0.00000000000E+00 0. -1.
</event>
<event>
 7    1  0.1999542E-015  0.9000771E+02  0.7816164E-02  0.1186339E+00
        -11   -1    0    0    0    0  0.00000000000E+00  0.00000000000E+00  0.45593999997E+02  0.45594000000E+02  0.51100000000E-03 0. -1.
         11   -1    0    0    0    0 -0.00000000000E+00 -0.00000000000E+00 -0.45593999997E+02  0.45594000000E+02  0.51100000000E-03 0.  1.
    9900012    2    1    2    0    0 -0.69953172070E+00  0.36838088534E+00 -0.87637803286E+00  0.90007708696E+02  0.89999969651E+02 0.  0.
         12    1    1    2    0    0  0.69953172070E+00 -0.36838088534E+00  0.87637803286E+00  0.11802913036E+01  0.00000000000E+00 0. -1.
         11    1    3    3    0    0  0.63751575780E+01 -0.36874075906E+02  0.25249697973E+01  0.37506207230E+02  0.51100000000E-03 0. -1.
        -11    1    3    3    0    0  0.10022765509E+00 -0.44143650231E+01  0.76300333183E+01  0.88155585665E+01  0.51100000000E-03 0.  1.
        -12    1    3    3    0    0 -0.71749169538E+01  0.41656821815E+02 -0.11031381148E+02  0.43685942900E+02  0.00000000000E+00 0.  1.
</event>
<event>
 7    1  0.1999542E-015  0.9000776E+02  0.7816164E-02  0.1186339E+00
        -11   -1    0    0    0    0  0.00000000000E+00  0.00000000000E+00  0.45593999997E+02  0.45594000000E+02  0.51100000000E-03 0. -1.
         11   -1    0    0    0    0 -0.00000000000E+00 -0.00000000000E+00 -0.45593999997E+02  0.45594000000E+02  0.51100000000E-03 0.  1.
    9900012    2    1    2    0    0 -0.58600759558E+00  0.10233884262E+01  0.47378502404E-01  0.90007757018E+02  0.90000018611E+02 0.  0.
         12    1    1    2    0    0  0.58600759558E+00 -0.10233884262E+01 -0.47378502404E-01  0.11802429815E+01  0.00000000000E+00 0. -1.
         11    1    3    3    0    0 -0.79961060817E+01 -0.69111396811E+00  0.75321927820E+01  0.11006783334E+02  0.51100000000E-03 0. -1.
        -11    1    3    3    0    0  0.22941970817E+02  0.31239086599E+02 -0.19695705313E+02  0.43475687051E+02  0.51100000000E-03 0.  1.
         12    1    3    3    0    0 -0.15531872331E+02 -0.29524584205E+02  0.12210891034E+02  0.35525286634E+02  0.00000000000E+00 0. -1.
</event>
<event>
 7    1  0.1999542E-015  0.9000765E+02  0.7816164E-02  0.1186339E+00
        -11   -1    0    0    0    0  0.00000000000E+00  0.00000000000E+00  0.45593999997E+02  0.45594000000E+02  0.51100000000E-03 0. -1.
         11   -1    0    0    0    0 -0.00000000000E+00 -0.00000000000E+00 -0.45593999997E+02  0.45594000000E+02  0.51100000000E-03 0.  1.
    9900012    2    1    2    0    0 -0.93009846093E+00  0.65281082393E+00 -0.31934976677E+00  0.90007648615E+02  0.89999908777E+02 0.  0.
         12    1    1    2    0    0  0.93009846093E+00 -0.65281082393E+00  0.31934976677E+00  0.11803513851E+01  0.00000000000E+00 0. -1.
         11    1    3    3    0    0 -0.82947612272E+01 -0.20269681481E+02  0.29343192425E+02  0.36615379188E+02  0.51100000000E-03 0. -1.
        -11    1    3    3    0    0 -0.78880886009E+01  0.18360487128E+01  0.60589355946E+01  0.10114530016E+02  0.51100000000E-03 0.  1.
        -12    1    3    3    0    0  0.15252751367E+02  0.19086443592E+02 -0.35721477786E+02  0.43277739410E+02  0.00000000000E+00 0.  1.
</event>
<event>
 7    1  0.1999542E-015  0.9000750E+02  0.7816164E-02  0.1186340E+00
        -11   -1    0    0    0    0  0.00000000000E+00  0.00000000000E+00  0.45593999997E+02  0.45594000000E+02  0.51100000000E-03 0.  1.
         11   -1    0    0    0    0 -0.00000000000E+00 -0.00000000000E+00 -0.45593999997E+02  0.45594000000E+02  0.51100000000E-03 0. -1.
    9900012    2    1    2    0    0  0.10133150177E+01  0.13726764186E-01  0.60546711579E+00  0.90007497489E+02  0.89999755656E+02 0.  0.
         12    1    1    2    0    0 -0.10133150177E+01 -0.13726764186E-01 -0.60546711579E+00  0.11805025106E+01  0.00000000000E+00 0. -1.
         11    1    3    3    0    0  0.10719595737E+02  0.40257308855E+02  0.12343399324E+02  0.43450203177E+02  0.51100000000E-03 0. -1.
        -11    1    3    3    0    0  0.37465020467E+01 -0.75858279739E+01  0.19419741274E+01  0.86805718365E+01  0.51100000000E-03 0.  1.
        -12    1    3    3    0    0 -0.13452782766E+02 -0.32657754117E+02 -0.13679906336E+02  0.37876722475E+02  0.00000000000E+00 0.  1.
</event>
<event>
 7    1  0.1999542E-015  0.9000769E+02  0.7816164E-02  0.1186339E+00
        -11   -1    0    0    0    0  0.00000000000E+00  0.00000000000E+00  0.45593999997E+02  0.45594000000E+02  0.51100000000E-03 0. -1.
         11   -1    0    0    0    0 -0.00000000000E+00 -0.00000000000E+00 -0.45593999997E+02  0.45594000000E+02  0.51100000000E-03 0.  1.
    9900012    2    1    2    0    0  0.80202664149E+00 -0.66248413999E+00  0.55767856878E+00  0.90007687603E+02  0.89999948279E+02 0.  0.
         12    1    1    2    0    0 -0.80202664149E+00  0.66248413999E+00 -0.55767856878E+00  0.11803123974E+01  0.00000000000E+00 0. -1.
         11    1    3    3    0    0  0.22234424404E+02  0.32077211123E+02  0.19839201567E+02  0.43782542424E+02  0.51100000000E-03 0. -1.
        -11    1    3    3    0    0 -0.32154444426E+01 -0.90402572584E+01  0.16465929886E+01  0.97353275750E+01  0.51100000000E-03 0.  1.
        -12    1    3    3    0    0 -0.18216953320E+02 -0.23699438005E+02 -0.20928115987E+02  0.36489817604E+02  0.00000000000E+00 0.  1.
</event>
<event>
 7    1  0.1999542E-015  0.9000878E+02  0.7816164E-02  0.1186337E+00
        -11   -1    0    0    0    0  0.00000000000E+00  0.00000000000E+00  0.45593999997E+02  0.45594000000E+02  0.51100000000E-03 0. -1.
         11   -1    0    0    0    0 -0.00000000000E+00 -0.00000000000E+00 -0.45593999997E+02  0.45594000000E+02  0.51100000000E-03 0.  1.
    9900012    2    1    2    0    0  0.17736415799E+00  0.43420314357E+00 -0.10819275817E+01  0.90008780891E+02  0.90001055993E+02 0.  0.
         12    1    1    2    0    0 -0.17736415799E+00 -0.43420314357E+00  0.10819275817E+01  0.11792191088E+01  0.00000000000E+00 0. -1.
         11    1    3    3    0    0 -0.95979616834E+01 -0.14747415167E+01 -0.55784634812E+01  0.11198883252E+02  0.51100000000E-03 0. -1.
        -11    1    3    3    0    0 -0.20577468198E+02 -0.21604178433E+02 -0.17471256050E+02  0.34574810359E+02  0.51100000000E-03 0.  1.
         12    1    3    3    0    0  0.30352794039E+02  0.23513123093E+02  0.21967791949E+02  0.44235087280E+02  0.00000000000E+00 0. -1.
</event>
<event>
 7    1  0.1999542E-015  0.9000777E+02  0.7816164E-02  0.1186339E+00
        -11   -1    0    0    0    0  0.00000000000E+00  0.00000000000E+00  0.45593999997E+02  0.45594000000E+02  0.51100000000E-03 0.  1.
         11   -1    0    0    0    0 -0.00000000000E+00 -0.00000000000E+00 -0.45593999997E+02  0.45594000000E+02  0.51100000000E-03 0. -1.
    9900012    2    1    2    0    0 -0.96272073333E+00  0.33944338188E+00 -0.59235396111E+00  0.90007772804E+02  0.90000034605E+02 0.  0.
         12    1    1    2    0    0  0.96272073333E+00 -0.33944338188E+00  0.59235396111E+00  0.11802271964E+01  0.00000000000E+00 0. -1.
         11    1    3    3    0    0  0.31959879503E+02  0.76660597746E+01 -0.14050674800E+02  0.35743864269E+02  0.51100000000E-03 0. -1.
        -11    1    3    3    0    0  0.68854067792E+01  0.66094104334E+01 -0.11844986060E+01  0.96174929166E+01  0.51100000000E-03 0.  1.
        -12    1    3    3    0    0 -0.39808007015E+02 -0.13936026826E+02  0.14642819445E+02  0.44646415618E+02  0.00000000000E+00 0.  1.
</event>
<event>
 7    1  0.1999542E-015  0.9000786E+02  0.7816164E-02  0.1186339E+00
        -11   -1    0    0    0    0  0.00000000000E+00  0.00000000000E+00  0.45593999997E+02  0.45594000000E+02  0.51100000000E-03 0. -1.
         11   -1    0    0    0    0 -0.00000000000E+00 -0.00000000000E+00 -0.45593999997E+02  0.45594000000E+02  0.51100000000E-03 0.  1.
    9900012    2    1    2    0    0 -0.78169352740E+00  0.87115612758E+00  0.15093059364E+00  0.90007856867E+02  0.90000119778E+02 0.  0.
         12    1    1    2    0    0  0.78169352740E+00 -0.87115612758E+00 -0.15093059364E+00  0.11801431326E+01  0.00000000000E+00 0. -1.
         11    1    3    3    0    0  0.10766657249E+01 -0.21748636360E+01  0.78003567168E+01  0.81691374140E+01  0.51100000000E-03 0. -1.
        -11    1    3    3    0    0 -0.22582848716E+02 -0.24201047289E+02 -0.26820557812E+02  0.42603028855E+02  0.51100000000E-03 0.  1.
         12    1    3    3    0    0  0.20724489464E+02  0.27247067052E+02  0.19171131689E+02  0.39235690598E+02  0.00000000000E+00 0. -1.
</event>
<event>
 7    1  0.2347053E-015  0.9000770E+02  0.7816164E-02  0.1186339E+00
        -11   -1    0    0    0    0  0.00000000000E+00  0.00000000000E+00  0.45593999997E+02  0.45594000000E+02  0.51100000000E-03 0. -1.
         11   -1    0    0    0    0 -0.00000000000E+00 -0.00000000000E+00 -0.45593999997E+02  0.45594000000E+02  0.51100000000E-03 0.  1.
    9900012    2    1    2    0    0  0.33731351127E+00 -0.82125689394E+00 -0.77772542471E+00  0.90007703373E+02  0.89999964258E+02 0.  0.
         12    1    1    2    0    0 -0.33731351127E+00  0.82125689394E+00  0.77772542471E+00  0.11802966267E+01  0.00000000000E+00 0. -1.
         11    1    3    3    0    0 -0.15646465349E+02 -0.21888193438E+02  0.33275086675E+02  0.42791778222E+02  0.51100000000E-03 0. -1.
        -11    1    3    3    0    0  0.79971405267E+00 -0.27002108357E+01 -0.92115113279E+01  0.96323736601E+01  0.51100000000E-03 0.  1.
        -12    1    3    3    0    0  0.15184064807E+02  0.23767147379E+02 -0.24841300772E+02  0.37583551491E+02  0.00000000000E+00 0.  1.
</event>
<event>
 7    1  0.1999542E-015  0.9000776E+02  0.7816164E-02  0.1186339E+00
        -11   -1    0    0    0    0  0.00000000000E+00  0.00000000000E+00  0.45593999997E+02  0.45594000000E+02  0.51100000000E-03 0.  1.
         11   -1    0    0    0    0 -0.00000000000E+00 -0.00000000000E+00 -0.45593999997E+02  0.45594000000E+02  0.51100000000E-03 0. -1.
    9900012    2    1    2    0    0  0.75581607147E+00 -0.81283986812E+00 -0.40124243045E+00  0.90007761857E+02  0.90000023514E+02 0.  0.
         12    1    1    2    0    0 -0.75581607147E+00  0.81283986812E+00  0.40124243045E+00  0.11802381425E+01  0.00000000000E+00 0. -1.
         11    1    3    3    0    0 -0.17818395259E+01 -0.85349394282E+01  0.58736275948E+01  0.10512832374E+02  0.51100000000E-03 0. -1.
        -11    1    3    3    0    0  0.99887744274E+01 -0.25732944373E+01  0.34905714498E+02  0.36397889550E+02  0.51100000000E-03 0.  1.
         12    1    3    3    0    0 -0.74511188300E+01  0.10295393997E+02 -0.41180584523E+02  0.43097039934E+02  0.00000000000E+00 0. -1.
</event>
<event>
 7    1  0.1999542E-015  0.9000863E+02  0.7816164E-02  0.1186337E+00
        -11   -1    0    0    0    0  0.00000000000E+00  0.00000000000E+00  0.45593999997E+02  0.45594000000E+02  0.51100000000E-03 0. -1.
         11   -1    0    0    0    0 -0.00000000000E+00 -0.00000000000E+00 -0.45593999997E+02  0.45594000000E+02  0.51100000000E-03 0.  1.
    9900012    2    1    2    0    0 -0.10638951248E+01  0.49666429277E+00  0.11122875627E+00  0.90008627246E+02  0.90000900321E+02 0.  0.
         12    1    1    2    0    0  0.10638951248E+01 -0.49666429277E+00 -0.11122875627E+00  0.11793727538E+01  0.00000000000E+00 0. -1.
         11    1    3    3    0    0 -0.28937540452E+02 -0.18203683880E+02  0.27042068421E+02  0.43589320010E+02  0.51100000000E-03 0. -1.
        -11    1    3    3    0    0  0.34187128677E+01  0.98759491410E+01 -0.25055745512E+01  0.10747086731E+02  0.51100000000E-03 0.  1.
        -12    1    3    3    0    0  0.24454932459E+02  0.88243990319E+01 -0.24425265114E+02  0.35672220505E+02  0.00000000000E+00 0.  1.
</event>
<event>
 7    1  0.1999542E-015  0.9000759E+02  0.7816164E-02  0.1186339E+00
        -11   -1    0    0    0    0  0.00000000000E+00  0.00000000000E+00  0.45593999997E+02  0.45594000000E+02  0.51100000000E-03 0. -1.
         11   -1    0    0    0    0 -0.00000000000E+00 -0.00000000000E+00 -0.45593999997E+02  0.45594000000E+02  0.51100000000E-03 0.  1.
    9900012    2    1    2    0    0 -0.72292168438E+00 -0.93258386529E+00  0.32115864880E-01  0.90007593351E+02  0.89999852783E+02 0.  0.
         12    1    1    2    0    0  0.72292168438E+00  0.93258386529E+00 -0.32115864880E-01  0.11804066487E+01  0.00000000000E+00 0. -1.
         11    1    3    3    0    0 -0.60552140519E+01 -0.29139331879E+02  0.21666050432E+02  0.36812824140E+02  0.51100000000E-03 0. -1.
        -11    1    3    3    0    0 -0.57747587731E+01 -0.31818594240E+01  0.67549187273E+01  0.94393323681E+01  0.51100000000E-03 0.  1.
        -12    1    3    3    0    0  0.11107051141E+02  0.31388607438E+02 -0.28388853295E+02  0.43755436843E+02  0.00000000000E+00 0.  1.
</event>
<event>
 7    1  0.1999542E-015  0.9000796E+02  0.7816164E-02  0.1186339E+00
        -11   -1    0    0    0    0  0.00000000000E+00  0.00000000000E+00  0.45593999997E+02  0.45594000000E+02  0.51100000000E-03 0.  1.
         11   -1    0    0    0    0 -0.00000000000E+00 -0.00000000000E+00 -0.45593999997E+02  0.45594000000E+02  0.51100000000E-03 0. -1.
    9900012    2    1    2    0    0  0.10534391794E+01  0.46056881311E+00 -0.26576032434E+00  0.90007963439E+02  0.90000227756E+02 0.  0.
         12    1    1    2    0    0 -0.10534391794E+01 -0.46056881311E+00  0.26576032434E+00  0.11800365615E+01  0.00000000000E+00 0. -1.
         11    1    3    3    0    0 -0.67733254070E+01 -0.33661428209E+02 -0.21506734118E+02  0.40515543916E+02  0.51100000000E-03 0. -1.
        -11    1    3    3    0    0  0.15309045506E+01 -0.40049603003E+01  0.71949336617E+01  0.83755863322E+01  0.51100000000E-03 0.  1.
        -12    1    3    3    0    0  0.62958600358E+01  0.38126957322E+02  0.14046040132E+02  0.41116833191E+02  0.00000000000E+00 0.  1.
</event>
<event>
 7    1  0.2009381E-015  0.9000772E+02  0.7816164E-02  0.1186339E+00
        -11   -1    0    0    0    0  0.00000000000E+00  0.00000000000E+00  0.45593999997E+02  0.45594000000E+02  0.51100000000E-03 0.  1.
         11   -1    0    0    0    0 -0.00000000000E+00 -0.00000000000E+00 -0.45593999997E+02  0.45594000000E+02  0.51100000000E-03 0. -1.
    9900012    2    1    2    0    0 -0.89346454267E+00  0.21798362577E+00  0.73977140374E+00  0.90007721440E+02  0.89999982563E+02 0.  0.
         12    1    1    2    0    0  0.89346454267E+00 -0.21798362577E+00 -0.73977140374E+00  0.11802785603E+01  0.00000000000E+00 0. -1.
         11    1    3    3    0    0 -0.23628516835E+02 -0.31106216603E+02 -0.11011329520E+02  0.40585131480E+02  0.51100000000E-03 0. -1.
        -11    1    3    3    0    0  0.56874701923E+01 -0.45089057496E+01  0.58135831943E+01  0.92992095398E+01  0.51100000000E-03 0.  1.
        -12    1    3    3    0    0  0.17047582100E+02  0.35833105979E+02  0.59375177292E+01  0.40123380420E+02  0.00000000000E+00 0.  1.
</event>
<event>
 7    1  0.2080846E-015  0.9000773E+02  0.7816164E-02  0.1186339E+00
        -11   -1    0    0    0    0  0.00000000000E+00  0.00000000000E+00  0.45593999997E+02  0.45594000000E+02  0.51100000000E-03 0. -1.
         11   -1    0    0    0    0 -0.00000000000E+00 -0.00000000000E+00 -0.45593999997E+02  0.45594000000E+02  0.51100000000E-03 0.  1.
    9900012    2    1    2    0    0  0.58876047841E+00  0.10606985696E+00 -0.10174170882E+01  0.90007734247E+02  0.89999995539E+02 0.  0.
         12    1    1    2    0    0 -0.58876047841E+00 -0.10606985696E+00  0.10174170882E+01  0.11802657526E+01  0.00000000000E+00 0. -1.
         11    1    3    3    0    0 -0.11294129167E+02 -0.32471222412E+02  0.13237474978E+02  0.36839766321E+02  0.51100000000E-03 0. -1.
        -11    1    3    3    0    0 -0.10946588009E+01 -0.71817375014E+00  0.99313747865E+01  0.10017297881E+02  0.51100000000E-03 0.  1.
        -12    1    3    3    0    0  0.12977548446E+02  0.33295466019E+02 -0.24186266853E+02  0.43150670045E+02  0.00000000000E+00 0.  1.
</event>
<event>
 7    1  0.1999542E-015  0.9000768E+02  0.7816164E-02  0.1186339E+00
        -11   -1    0    0    0    0  0.00000000000E+00  0.00000000000E+00  0.45593999997E+02  0.45594000000E+02  0.51100000000E-03 0. -1.
         11   -1    0    0    0    0 -0.00000000000E+00 -0.00000000000E+00 -0.45593999997E+02  0.45594000000E+02  0.51100000000E-03 0.  1.
    9900012    2    1    2    0    0  0.97427512911E+00  0.59179636110E+00 -0.30612644499E+00  0.90007682941E+02  0.89999943555E+02 0.  0.
         12    1    1    2    0    0 -0.97427512911E+00 -0.59179636110E+00  0.30612644499E+00  0.11803170593E+01  0.00000000000E+00 0. -1.
         11    1    3    3    0    0  0.78265828297E+01 -0.56062824919E+01  0.53166785766E+01  0.10997857679E+02  0.51100000000E-03 0. -1.
        -11    1    3    3    0    0 -0.99423571715E+01  0.41340131702E+02 -0.93531996620E+01  0.43535494707E+02  0.51100000000E-03 0.  1.
         12    1    3    3    0    0  0.30900494710E+01 -0.35142052849E+02  0.37303946404E+01  0.35474330555E+02  0.00000000000E+00 0. -1.
</event>
<event>
 7    1  0.1999542E-015  0.9000774E+02  0.7816164E-02  0.1186339E+00
        -11   -1    0    0    0    0  0.00000000000E+00  0.00000000000E+00  0.45593999997E+02  0.45594000000E+02  0.51100000000E-03 0.  1.
         11   -1    0    0    0    0 -0.00000000000E+00 -0.00000000000E+00 -0.45593999997E+02  0.45594000000E+02  0.51100000000E-03 0. -1.
    9900012    2    1    2    0    0 -0.16445678609E+00 -0.72079502176E+00  0.92001024823E+00  0.90007741403E+02  0.90000002790E+02 0.  0.
         12    1    1    2    0    0  0.16445678609E+00  0.72079502176E+00 -0.92001024823E+00  0.11802585965E+01  0.00000000000E+00 0. -1.
         11    1    3    3    0    0 -0.20053996929E+02  0.32985400740E+02 -0.91883451577E+01  0.39681546616E+02  0.51100000000E-03 0. -1.
        -11    1    3    3    0    0 -0.48403025870E+01 -0.21125775565E+01  0.87032260996E+01  0.10180258242E+02  0.51100000000E-03 0.  1.
        -12    1    3    3    0    0  0.24729842730E+02 -0.31593618205E+02  0.14051293064E+01  0.40145936546E+02  0.00000000000E+00 0.  1.
</event>
<event>
 7    1  0.1999542E-015  0.9000795E+02  0.7816164E-02  0.1186339E+00
        -11   -1    0    0    0    0  0.00000000000E+00  0.00000000000E+00  0.45593999997E+02  0.45594000000E+02  0.51100000000E-03 0. -1.
         11   -1    0    0    0    0 -0.00000000000E+00 -0.00000000000E+00 -0.45593999997E+02  0.45594000000E+02  0.51100000000E-03 0.  1.
    9900012    2    1    2    0    0 -0.42536429497E+00 -0.10352163374E+01  0.37404842840E+00  0.90007949206E+02  0.90000213336E+02 0.  0.
         12    1    1    2    0    0  0.42536429497E+00  0.10352163374E+01 -0.37404842840E+00  0.11800507935E+01  0.00000000000E+00 0. -1.
         11    1    3    3    0    0 -0.25131694944E+02 -0.11593587971E+01  0.28333665757E+02  0.37891197118E+02  0.51100000000E-03 0. -1.
        -11    1    3    3    0    0 -0.19562298543E+00 -0.32492843961E+00  0.82005268351E+01  0.82092927513E+01  0.51100000000E-03 0.  1.
        -12    1    3    3    0    0  0.24901953635E+02  0.44907089931E+00 -0.36160144163E+02  0.43907459337E+02  0.00000000000E+00 0.  1.
</event>
<event>
 7    1  0.1999542E-015  0.9000761E+02  0.7816164E-02  0.1186339E+00
        -11   -1    0    0    0    0  0.00000000000E+00  0.00000000000E+00  0.45593999997E+02  0.45594000000E+02  0.51100000000E-03 0.  1.
         11   -1    0    0    0    0 -0.00000000000E+00 -0.00000000000E+00 -0.45593999997E+02  0.45594000000E+02  0.51100000000E-03 0. -1.
    9900012    2    1    2    0    0 -0.10440029523E+01  0.29340150983E+00  0.46614295566E+00  0.90007611985E+02  0.89999871663E+02 0.  0.
         12    1    1    2    0    0  0.10440029523E+01 -0.29340150983E+00 -0.46614295566E+00  0.11803880148E+01  0.00000000000E+00 0. -1.
         11    1    3    3    0    0 -0.13292546666E+01 -0.83122353767E+01 -0.78354795317E+01  0.11500213680E+02  0.51100000000E-03 0. -1.
        -11    1    3    3    0    0 -0.11826158242E+02 -0.20649762906E+02  0.31339324315E+02  0.39350018750E+02  0.51100000000E-03 0.  1.
         12    1    3    3    0    0  0.12111409956E+02  0.29255399793E+02 -0.23037701827E+02  0.39157379556E+02  0.00000000000E+00 0. -1.
</event>
<event>
 7    1  0.1999542E-015  0.9000772E+02  0.7816164E-02  0.1186339E+00
        -11   -1    0    0    0    0  0.00000000000E+00  0.00000000000E+00  0.45593999997E+02  0.45594000000E+02  0.51100000000E-03 0.  1.
         11   -1    0    0    0    0 -0.00000000000E+00 -0.00000000000E+00 -0.45593999997E+02  0.45594000000E+02  0.51100000000E-03 0. -1.
    9900012    2    1    2    0    0  0.33364363342E+00 -0.39218453470E+00  0.10620455722E+01  0.90007717161E+02  0.89999978227E+02 0.  0.
         12    1    1    2    0    0 -0.33364363342E+00  0.39218453470E+00 -0.10620455722E+01  0.11802828393E+01  0.00000000000E+00 0. -1.
         11    1    3    3    0    0 -0.93117449594E+01 -0.30142166330E+02  0.20602189639E+02  0.37679026041E+02  0.51100000000E-03 0. -1.
        -11    1    3    3    0    0 -0.36244314545E+01  0.40590546146E+01  0.97527576994E+01  0.11168200873E+02  0.51100000000E-03 0.  1.
        -12    1    3    3    0    0  0.13269820047E+02  0.25690927181E+02 -0.29292901766E+02  0.41160490247E+02  0.00000000000E+00 0.  1.
</event>
<event>
 7    1  0.1999542E-015  0.9000773E+02  0.7816164E-02  0.1186339E+00
        -11   -1    0    0    0    0  0.00000000000E+00  0.00000000000E+00  0.45593999997E+02  0.45594000000E+02  0.51100000000E-03 0. -1.
         11   -1    0    0    0    0 -0.00000000000E+00 -0.00000000000E+00 -0.45593999997E+02  0.45594000000E+02  0.51100000000E-03 0.  1.
    9900012    2    1    2    0    0  0.79348460527E+00 -0.55209721369E+00 -0.67721096852E+00  0.90007727215E+02  0.89999988414E+02 0.  0.
         12    1    1    2    0    0 -0.79348460527E+00  0.55209721369E+00  0.67721096852E+00  0.11802727854E+01  0.00000000000E+00 0. -1.
         11    1    3    3    0    0 -0.13022983629E+01 -0.42017774290E+01 -0.79915664067E+01  0.91222830740E+01  0.51100000000E-03 0. -1.
        -11    1    3    3    0    0 -0.13123941607E+00 -0.13930459442E+02 -0.33559180753E+02  0.36335843696E+02  0.51100000000E-03 0.  1.
         12    1    3    3    0    0  0.22270223843E+01  0.17580139657E+02  0.40873536191E+02  0.44549600445E+02  0.00000000000E+00 0. -1.
</event>
<event>
 7    1  0.1999542E-015  0.9000777E+02  0.7816164E-02  0.1186339E+00
        -11   -1    0    0    0    0  0.00000000000E+00  0.00000000000E+00  0.45593999997E+02  0.45594000000E+02  0.51100000000E-03 0.  1.
         11   -1    0    0    0    0 -0.00000000000E+00 -0.00000000000E+00 -0.45593999997E+02  0.45594000000E+02  0.51100000000E-03 0. -1.
    9900012    2    1    2    0    0 -0.10661950196E+01  0.47454028447E+00 -0.17604331979E+00  0.90007766315E+02  0.90000028030E+02 0.  0.
         12    1    1    2    0    0  0.10661950196E+01 -0.47454028447E+00  0.17604331979E+00  0.11802336853E+01  0.00000000000E+00 0. -1.
         11    1    3    3    0    0  0.29437652022E+02  0.88365400007E+01 -0.27588708578E+02  0.41301290985E+02  0.51100000000E-03 0. -1.
        -11    1    3    3    0    0 -0.98767019125E+01  0.55200893243E+01 -0.50028391189E+00  0.11325674862E+02  0.51100000000E-03 0.  1.
        -12    1    3    3    0    0 -0.20627145129E+02 -0.13882089041E+02  0.27912949170E+02  0.37380800468E+02  0.00000000000E+00 0.  1.
</event>
<event>
 7    1  0.1999542E-015  0.9000772E+02  0.7816164E-02  0.1186339E+00
        -11   -1    0    0    0    0  0.00000000000E+00  0.00000000000E+00  0.45593999997E+02  0.45594000000E+02  0.51100000000E-03 0. -1.
         11   -1    0    0    0    0 -0.00000000000E+00 -0.00000000000E+00 -0.45593999997E+02  0.45594000000E+02  0.51100000000E-03 0.  1.
    9900012    2    1    2    0    0  0.10564634827E+01 -0.45964421504E+00 -0.25625537828E+00  0.90007722612E+02  0.89999983750E+02 0.  0.
         12    1    1    2    0    0 -0.10564634827E+01  0.45964421504E+00  0.25625537828E+00  0.11802773884E+01  0.00000000000E+00 0. -1.
         11    1    3    3    0    0 -0.34223910971E+01  0.55993198553E+01  0.26555373628E+00  0.65677745630E+01  0.51100000000E-03 0. -1.
        -11    1    3    3    0    0 -0.13938481745E+02  0.20350746964E+02 -0.30651384944E+02  0.39343888657E+02  0.51100000000E-03 0.  1.
         12    1    3    3    0    0  0.18417336325E+02 -0.26409711034E+02  0.30129575830E+02  0.44096059392E+02  0.00000000000E+00 0. -1.
</event>
<event>
 7    1  0.1999542E-015  0.9000809E+02  0.7816164E-02  0.1186338E+00
        -11   -1    0    0    0    0  0.00000000000E+00  0.00000000000E+00  0.45593999997E+02  0.45594000000E+02  0.51100000000E-03 0. -1.
         11   -1    0    0    0    0 -0.00000000000E+00 -0.00000000000E+00 -0.45593999997E+02  0.45594000000E+02  0.51100000000E-03 0.  1.
    9900012    2    1    2    0    0  0.60303258529E+00  0.96208331858E+00  0.32085148579E+00  0.90008085475E+02  0.90000351402E+02 0.  0.
         12    1    1    2    0    0 -0.60303258529E+00 -0.96208331858E+00 -0.32085148579E+00  0.11799145252E+01  0.00000000000E+00 0. -1.
         11    1    3    3    0    0 -0.75657955530E+01 -0.25671149633E+02  0.22573928381E+02  0.35011875537E+02  0.51100000000E-03 0. -1.
        -11    1    3    3    0    0 -0.60089431032E+01 -0.82542690004E+01  0.17215894219E+01  0.10353947283E+02  0.51100000000E-03 0.  1.
        -12    1    3    3    0    0  0.14177771242E+02  0.34887501952E+02 -0.23974666317E+02  0.44642262654E+02  0.00000000000E+00 0.  1.
</event>
<event>
 7    1  0.1999542E-015  0.9000780E+02  0.7816164E-02  0.1186339E+00
        -11   -1    0    0    0    0  0.00000000000E+00  0.00000000000E+00  0.45593999997E+02  0.45594000000E+02  0.51100000000E-03 0. -1.
         11   -1    0    0    0    0 -0.00000000000E+00 -0.00000000000E+00 -0.45593999997E+02  0.45594000000E+02  0.51100000000E-03 0.  1.
    9900012    2    1    2    0    0  0.10551991502E+01 -0.52510553237E+00 -0.60782498182E-01  0.90007798501E+02  0.90000060641E+02 0.  0.
         12    1    1    2    0    0 -0.10551991502E+01  0.52510553237E+00  0.60782498182E-01  0.11802014993E+01  0.00000000000E+00 0. -1.
         11    1    3    3    0    0  0.37293540284E+02  0.10091483479E+02  0.14071260279E+02  0.41117472585E+02  0.51100000000E-03 0. -1.
        -11    1    3    3    0    0 -0.44818049750E+01 -0.67778385722E+01  0.68562235344E+01  0.10631720132E+02  0.51100000000E-03 0.  1.
        -12    1    3    3    0    0 -0.31756536159E+02 -0.38387504387E+01 -0.20988266312E+02  0.38258605784E+02  0.00000000000E+00 0.  1.
</event>
<event>
 7    1  0.1999542E-015  0.9000775E+02  0.7816164E-02  0.1186339E+00
        -11   -1    0    0    0    0  0.00000000000E+00  0.00000000000E+00  0.45593999997E+02  0.45594000000E+02  0.51100000000E-03 0.  1.
         11   -1    0    0    0    0 -0.00000000000E+00 -0.00000000000E+00 -0.45593999997E+02  0.45594000000E+02  0.51100000000E-03 0. -1.
    9900012    2    1    2    0    0  0.57626417194E+00 -0.99524739391E+00 -0.26532280893E+00  0.90007748347E+02  0.90000009825E+02 0.  0.
         12    1    1    2    0    0 -0.57626417194E+00  0.99524739391E+00  0.26532280893E+00  0.11802516528E+01  0.00000000000E+00 0. -1.
         11    1    3    3    0    0 -0.80223609997E+01 -0.16338123993E+01 -0.22793835091E+02  0.24219548662E+02  0.51100000000E-03 0. -1.
        -11    1    3    3    0    0 -0.68597480390E+01 -0.21043450077E+02 -0.95430800694E+01  0.24102973090E+02  0.51100000000E-03 0.  1.
        -12    1    3    3    0    0  0.15458373211E+02  0.21682015082E+02  0.32071592352E+02  0.41685226595E+02  0.00000000000E+00 0.  1.
</event>
<event>
 7    1  0.1999542E-015  0.9000769E+02  0.7816164E-02  0.1186339E+00
        -11   -1    0    0    0    0  0.00000000000E+00  0.00000000000E+00  0.45593999997E+02  0.45594000000E+02  0.51100000000E-03 0. -1.
         11   -1    0    0    0    0 -0.00000000000E+00 -0.00000000000E+00 -0.45593999997E+02  0.45594000000E+02  0.51100000000E-03 0.  1.
    9900012    2    1    2    0    0  0.36917734597E+00 -0.73119905158E+00 -0.84981306481E+00  0.90007692324E+02  0.89999953062E+02 0.  0.
         12    1    1    2    0    0 -0.36917734597E+00  0.73119905158E+00  0.84981306481E+00  0.11803076764E+01  0.00000000000E+00 0. -1.
         11    1    3    3    0    0  0.47953310401E+01  0.46782963445E+01  0.23859762117E+01  0.71115778288E+01  0.51100000000E-03 0. -1.
        -11    1    3    3    0    0 -0.53052349908E+01  0.32901218083E+02 -0.22296147361E+02  0.40096806071E+02  0.51100000000E-03 0.  1.
         12    1    3    3    0    0  0.87908129669E+00 -0.38310713480E+02  0.19060358085E+02  0.42799308424E+02  0.00000000000E+00 0. -1.
</event>
<event>
 7    1  0.1999542E-015  0.9000774E+02  0.7816164E-02  0.1186339E+00
        -11   -1    0    0    0    0  0.00000000000E+00  0.00000000000E+00  0.45593999997E+02  0.45594000000E+02  0.51100000000E-03 0. -1.
         11   -1    0    0    0    0 -0.00000000000E+00 -0.00000000000E+00 -0.45593999997E+02  0.45594000000E+02  0.51100000000E-03 0.  1.
    9900012    2    1    2    0    0 -0.48969693344E+00  0.31364382312E-01 -0.10734223644E+01  0.90007736308E+02  0.89999997627E+02 0.  0.
         12    1    1    2    0    0  0.48969693344E+00 -0.31364382312E-01  0.10734223644E+01  0.11802636923E+01  0.00000000000E+00 0. -1.
         11    1    3    3    0    0  0.32724047673E+02  0.16099913433E+02 -0.10458891408E+02  0.37940201876E+02  0.51100000000E-03 0. -1.
        -11    1    3    3    0    0 -0.48806903714E-01 -0.94148924083E+00 -0.10501447676E+02  0.10543679986E+02  0.51100000000E-03 0.  1.
        -12    1    3    3    0    0 -0.33164937703E+02 -0.15127059810E+02  0.19886916720E+02  0.41523854445E+02  0.00000000000E+00 0.  1.
</event>
<event>
 7    1  0.1999542E-015  0.9000784E+02  0.7816164E-02  0.1186339E+00
        -11   -1    0    0    0    0  0.00000000000E+00  0.00000000000E+00  0.45593999997E+02  0.45594000000E+02  0.51100000000E-03 0. -1.
         11   -1    0    0    0    0 -0.00000000000E+00 -0.00000000000E+00 -0.45593999997E+02  0.45594000000E+02  0.51100000000E-03 0.  1.
    9900012    2    1    2    0    0 -0.87061054470E+00 -0.21508319696E+00 -0.76716693585E+00  0.90007843820E+02  0.90000106558E+02 0.  0.
         12    1    1    2    0    0  0.87061054470E+00  0.21508319696E+00  0.76716693585E+00  0.11801561802E+01  0.00000000000E+00 0. -1.
         11    1    3    3    0    0 -0.12744117704E+02 -0.13652061649E+02  0.25868890092E+02  0.31905968065E+02  0.51100000000E-03 0. -1.
        -11    1    3    3    0    0 -0.16783043973E+02  0.15547045126E+02 -0.10909473497E+02  0.25345567450E+02  0.51100000000E-03 0.  1.
         12    1    3    3    0    0  0.28656551132E+02 -0.21100666734E+01 -0.15726583531E+02  0.32756308304E+02  0.00000000000E+00 0. -1.
</event>
<event>
 7    1  0.1999542E-015  0.9000776E+02  0.7816164E-02  0.1186339E+00
        -11   -1    0    0    0    0  0.00000000000E+00  0.00000000000E+00  0.45593999997E+02  0.45594000000E+02  0.51100000000E-03 0.  1.
         11   -1    0    0    0    0 -0.00000000000E+00 -0.00000000000E+00 -0.45593999997E+02  0.45594000000E+02  0.51100000000E-03 0. -1.
    9900012    2    1    2    0    0  0.46154564652E+00 -0.20967456142E+00  0.10658196928E+01  0.90007762980E+02  0.90000024651E+02 0.  0.
         12    1    1    2    0    0 -0.46154564652E+00  0.20967456142E+00 -0.10658196928E+01  0.11802370199E+01  0.00000000000E+00 0. -1.
         11    1    3    3    0    0  0.36385001592E+02 -0.35449889326E+01 -0.16504200040E+02  0.40110147178E+02  0.51100000000E-03 0. -1.
        -11    1    3    3    0    0 -0.45487568591E+01  0.40451936319E+01 -0.75508229962E+01  0.96989539984E+01  0.51100000000E-03 0.  1.
        -12    1    3    3    0    0 -0.31374699087E+02 -0.70987926070E+00  0.25120842729E+02  0.40198661804E+02  0.00000000000E+00 0.  1.
</event>
<event>
 7    1  0.1999542E-015  0.9000777E+02  0.7816164E-02  0.1186339E+00
        -11   -1    0    0    0    0  0.00000000000E+00  0.00000000000E+00  0.45593999997E+02  0.45594000000E+02  0.51100000000E-03 0.  1.
         11   -1    0    0    0    0 -0.00000000000E+00 -0.00000000000E+00 -0.45593999997E+02  0.45594000000E+02  0.51100000000E-03 0. -1.
    9900012    2    1    2    0    0 -0.48742003559E+00  0.11628566496E+00  0.10685703709E+01  0.90007769817E+02  0.90000031579E+02 0.  0.
         12    1    1    2    0    0  0.48742003559E+00 -0.11628566496E+00 -0.10685703709E+01  0.11802301829E+01  0.00000000000E+00 0. -1.
         11    1    3    3    0    0  0.31699522189E+02 -0.20034267094E+02 -0.57149883911E+01  0.37932738598E+02  0.51100000000E-03 0. -1.
        -11    1    3    3    0    0  0.58519482309E+01 -0.45959474432E+00  0.65708704675E+01  0.88109513894E+01  0.51100000000E-03 0.  1.
        -12    1    3    3    0    0 -0.38038890455E+02  0.20610147503E+02  0.21268829455E+00  0.43264079829E+02  0.00000000000E+00 0.  1.
</event>
<event>
 7    1  0.1999542E-015  0.9000778E+02  0.7816164E-02  0.1186339E+00
        -11   -1    0    0    0    0  0.00000000000E+00  0.00000000000E+00  0.45593999997E+02  0.45594000000E+02  0.51100000000E-03 0. -1.
         11   -1    0    0    0    0 -0.00000000000E+00 -0.00000000000E+00 -0.45593999997E+02  0.45594000000E+02  0.51100000000E-03 0.  1.
    9900012    2    1    2    0    0 -0.41690232358E+00  0.10864208304E+01 -0.19696848447E+00  0.90007782074E+02  0.90000043998E+02 0.  0.
         12    1    1    2    0    0  0.41690232358E+00 -0.10864208304E+01  0.19696848447E+00  0.11802179256E+01  0.00000000000E+00 0. -1.
         11    1    3    3    0    0 -0.85359852771E+00  0.33443193187E+02  0.24530386514E+02  0.41483920545E+02  0.51100000000E-03 0. -1.
        -11    1    3    3    0    0 -0.36591576391E+01  0.23292087896E+01 -0.94576135564E+01  0.10404859569E+02  0.51100000000E-03 0.  1.
        -12    1    3    3    0    0  0.40958538432E+01 -0.34685981146E+02 -0.15269741442E+02  0.38119001961E+02  0.00000000000E+00 0.  1.
</event>
<event>
 7    1  0.1999542E-015  0.9000774E+02  0.7816164E-02  0.1186339E+00
        -11   -1    0    0    0    0  0.00000000000E+00  0.00000000000E+00  0.45593999997E+02  0.45594000000E+02  0.51100000000E-03 0.  1.
         11   -1    0    0    0    0 -0.00000000000E+00 -0.00000000000E+00 -0.45593999997E+02  0.45594000000E+02  0.51100000000E-03 0. -1.
    9900012    2    1    2    0    0 -0.83868957927E+00  0.78556735556E+00 -0.26926600208E+00  0.90007737122E+02  0.89999998452E+02 0.  0.
         12    1    1    2    0    0  0.83868957927E+00 -0.78556735556E+00  0.26926600208E+00  0.11802628777E+01  0.00000000000E+00 0. -1.
         11    1    3    3    0    0  0.21883882841E+02 -0.24692391852E+02  0.11878761988E+02  0.35067414079E+02  0.51100000000E-03 0. -1.
        -11    1    3    3    0    0  0.45255095224E+01 -0.86969720411E+01 -0.33111716397E+01  0.10348015124E+02  0.51100000000E-03 0.  1.
        -12    1    3    3    0    0 -0.27248081942E+02  0.34174931249E+02 -0.88368563503E+01  0.44592307919E+02  0.00000000000E+00 0.  1.
</event>
<event>
 7    1  0.1999542E-015  0.9000777E+02  0.7816164E-02  0.1186339E+00
        -11   -1    0    0    0    0  0.00000000000E+00  0.00000000000E+00  0.45593999997E+02  0.45594000000E+02  0.51100000000E-03 0.  1.
         11   -1    0    0    0    0 -0.00000000000E+00 -0.00000000000E+00 -0.45593999997E+02  0.45594000000E+02  0.51100000000E-03 0. -1.
    9900012    2    1    2    0    0  0.79681397677E-01 -0.70285724527E+00  0.94476615285E+00  0.90007770990E+02  0.90000032767E+02 0.  0.
         12    1    1    2    0    0 -0.79681397677E-01  0.70285724527E+00 -0.94476615285E+00  0.11802290100E+01  0.00000000000E+00 0. -1.
         11    1    3    3    0    0  0.28175388775E+02 -0.26372912241E+02 -0.35374322091E+01  0.38754308917E+02  0.51100000000E-03 0. -1.
        -11    1    3    3    0    0 -0.10047921399E+01 -0.77211691500E+01  0.26169509308E+01  0.82142858924E+01  0.51100000000E-03 0.  1.
        -12    1    3    3    0    0 -0.27090915237E+02  0.33391224146E+02  0.18652474312E+01  0.43039176181E+02  0.00000000000E+00 0.  1.
</event>
<event>
 7    1  0.1999542E-015  0.9000772E+02  0.7816164E-02  0.1186339E+00
        -11   -1    0    0    0    0  0.00000000000E+00  0.00000000000E+00  0.45593999997E+02  0.45594000000E+02  0.51100000000E-03 0.  1.
         11   -1    0    0    0    0 -0.00000000000E+00 -0.00000000000E+00 -0.45593999997E+02  0.45594000000E+02  0.51100000000E-03 0. -1.
    9900012    2    1    2    0    0 -0.63064374014E-01 -0.38912280888E+00  0.11125067325E+01  0.90007718294E+02  0.89999979375E+02 0.  0.
         12    1    1    2    0    0  0.63064374014E-01  0.38912280888E+00 -0.11125067325E+01  0.11802817060E+01  0.00000000000E+00 0. -1.
         11    1    3    3    0    0  0.36219722452E+02  0.24488486434E+01 -0.58566099396E+01  0.36771796725E+02  0.51100000000E-03 0. -1.
        -11    1    3    3    0    0  0.49631604140E+01 -0.52394607024E+01 -0.65686854599E+01  0.97587160364E+01  0.51100000000E-03 0.  1.
        -12    1    3    3    0    0 -0.41245947240E+02  0.24014892501E+01  0.13537802132E+02  0.43477205532E+02  0.00000000000E+00 0.  1.
</event>
<event>
 7    1  0.1999542E-015  0.9000774E+02  0.7816164E-02  0.1186339E+00
        -11   -1    0    0    0    0  0.00000000000E+00  0.00000000000E+00  0.45593999997E+02  0.45594000000E+02  0.51100000000E-03 0.  1.
         11   -1    0    0    0    0 -0.00000000000E+00 -0.00000000000E+00 -0.45593999997E+02  0.45594000000E+02  0.51100000000E-03 0. -1.
    9900012    2    1    2    0    0  0.53634601020E+00  0.62449709384E+00  0.84578259890E+00  0.90007740763E+02  0.90000002141E+02 0.  0.
         12    1    1    2    0    0 -0.53634601020E+00 -0.62449709384E+00 -0.84578259890E+00  0.11802592374E+01  0.00000000000E+00 0. -1.
         11    1    3    3    0    0 -0.36323288357E+01 -0.55266979012E+01  0.49418526117E+01  0.82559136356E+01  0.51100000000E-03 0. -1.
        -11    1    3    3    0    0 -0.36733894490E+02  0.56422795169E+01 -0.13914766480E+02  0.39684191425E+02  0.51100000000E-03 0.  1.
         12    1    3    3    0    0  0.40902569336E+02  0.50891547815E+00  0.98186964674E+01  0.42067635702E+02  0.00000000000E+00 0. -1.
</event>
<event>
 7    1  0.1999542E-015  0.9000776E+02  0.7816164E-02  0.1186339E+00
        -11   -1    0    0    0    0  0.00000000000E+00  0.00000000000E+00  0.45593999997E+02  0.45594000000E+02  0.51100000000E-03 0. -1.
         11   -1    0    0    0    0 -0.00000000000E+00 -0.00000000000E+00 -0.45593999997E+02  0.45594000000E+02  0.51100000000E-03 0.  1.
    9900012    2    1    2    0    0 -0.76619099570E+00  0.77253285588E+00 -0.45728968479E+00  0.90007758706E+02  0.90000020321E+02 0.  0.
         12    1    1    2    0    0  0.76619099570E+00 -0.77253285588E+00  0.45728968479E+00  0.11802412936E+01  0.00000000000E+00 0. -1.
         11    1    3    3    0    0  0.29410704227E+02 -0.15737707874E+01  0.18813896233E+02  0.34948948044E+02  0.51100000000E-03 0. -1.
        -11    1    3    3    0    0 -0.46592990481E+01 -0.94725850744E+00  0.12967485174E+02  0.13811663126E+02  0.51100000000E-03 0.  1.
        -12    1    3    3    0    0 -0.25517596175E+02  0.32935621508E+01 -0.32238671091E+02  0.41247147537E+02  0.00000000000E+00 0.  1.
</event>
<event>
 7    1  0.1999542E-015  0.9000790E+02  0.7816164E-02  0.1186339E+00
        -11   -1    0    0    0    0  0.00000000000E+00  0.00000000000E+00  0.45593999997E+02  0.45594000000E+02  0.51100000000E-03 0. -1.
         11   -1    0    0    0    0 -0.00000000000E+00 -0.00000000000E+00 -0.45593999997E+02  0.45594000000E+02  0.51100000000E-03 0.  1.
    9900012    2    1    2    0    0  0.10633443189E+01  0.46504242676E-01 -0.50968403187E+00  0.90007897633E+02  0.90000161081E+02 0.  0.
         12    1    1    2    0    0 -0.10633443189E+01 -0.46504242676E-01  0.50968403187E+00  0.11801023674E+01  0.00000000000E+00 0. -1.
         11    1    3    3    0    0 -0.32872148643E+02 -0.64748724087E+01  0.14820789681E+02  0.36635473740E+02  0.51100000000E-03 0. -1.
        -11    1    3    3    0    0 -0.75400402085E+00 -0.96544916176E+01  0.40180230704E+01  0.10484380769E+02  0.51100000000E-03 0.  1.
        -12    1    3    3    0    0  0.34689496983E+02  0.16175868269E+02 -0.19348496783E+02  0.42888043123E+02  0.00000000000E+00 0.  1.
</event>
<event>
 7    1  0.1999542E-015  0.9000765E+02  0.7816164E-02  0.1186339E+00
        -11   -1    0    0    0    0  0.00000000000E+00  0.00000000000E+00  0.45593999997E+02  0.45594000000E+02  0.51100000000E-03 0.  1.
         11   -1    0    0    0    0 -0.00000000000E+00 -0.00000000000E+00 -0.45593999997E+02  0.45594000000E+02  0.51100000000E-03 0. -1.
    9900012    2    1    2    0    0  0.10020613001E+01 -0.62360312521E+00 -0.14774692584E-01  0.90007650053E+02  0.89999910233E+02 0.  0.
         12    1    1    2    0    0 -0.10020613001E+01  0.62360312521E+00  0.14774692584E-01  0.11803499475E+01  0.00000000000E+00 0. -1.
         11    1    3    3    0    0  0.35241406658E+01 -0.62233818536E+01 -0.78987218175E+01  0.10655508235E+02  0.51100000000E-03 0. -1.
        -11    1    3    3    0    0 -0.40262654389E+02  0.63051614833E+01 -0.17753485834E+00  0.40753747296E+02  0.51100000000E-03 0.  1.
         12    1    3    3    0    0  0.37740575023E+02 -0.70538275485E+00  0.80614819832E+01  0.38598394522E+02  0.00000000000E+00 0. -1.
</event>
<event>
 7    1  0.1999542E-015  0.9000758E+02  0.7816164E-02  0.1186339E+00
        -11   -1    0    0    0    0  0.00000000000E+00  0.00000000000E+00  0.45593999997E+02  0.45594000000E+02  0.51100000000E-03 0.  1.
         11   -1    0    0    0    0 -0.00000000000E+00 -0.00000000000E+00 -0.45593999997E+02  0.45594000000E+02  0.51100000000E-03 0. -1.
    9900012    2    1    2    0    0 -0.95826797245E-01 -0.81166628094E+00  0.85170176214E+00  0.90007584472E+02  0.89999843787E+02 0.  0.
         12    1    1    2    0    0  0.95826797245E-01  0.81166628094E+00 -0.85170176214E+00  0.11804155278E+01  0.00000000000E+00 0. -1.
         11    1    3    3    0    0 -0.18685584292E+02  0.31385630371E+02 -0.43195555809E+01  0.36781346017E+02  0.51100000000E-03 0. -1.
        -11    1    3    3    0    0 -0.12589390572E+01  0.58995257305E+01  0.81798287355E+01  0.10163608109E+02  0.51100000000E-03 0.  1.
        -12    1    3    3    0    0  0.19848696552E+02 -0.38096822383E+02 -0.30085713925E+01  0.43062630346E+02  0.00000000000E+00 0.  1.
</event>
<event>
 7    1  0.1999542E-015  0.9000752E+02  0.7816164E-02  0.1186339E+00
        -11   -1    0    0    0    0  0.00000000000E+00  0.00000000000E+00  0.45593999997E+02  0.45594000000E+02  0.51100000000E-03 0.  1.
         11   -1    0    0    0    0 -0.00000000000E+00 -0.00000000000E+00 -0.45593999997E+02  0.45594000000E+02  0.51100000000E-03 0. -1.
    9900012    2    1    2    0    0 -0.76603430973E+00  0.72730287571E+00  0.52701834749E+00  0.90007522819E+02  0.89999781320E+02 0.  0.
         12    1    1    2    0    0  0.76603430973E+00 -0.72730287571E+00 -0.52701834749E+00  0.11804771812E+01  0.00000000000E+00 0. -1.
         11    1    3    3    0    0  0.19633932790E+02  0.15716385607E+02  0.36162323246E+02  0.44047811706E+02  0.51100000000E-03 0. -1.
        -11    1    3    3    0    0 -0.19463093536E+01 -0.81744754910E+00 -0.14095429829E+02  0.14252630737E+02  0.51100000000E-03 0.  1.
        -12    1    3    3    0    0 -0.18453657746E+02 -0.14171635182E+02 -0.21539875069E+02  0.31707080375E+02  0.00000000000E+00 0.  1.
</event>
<event>
 7    1  0.1999542E-015  0.9000774E+02  0.7816164E-02  0.1186339E+00
        -11   -1    0    0    0    0  0.00000000000E+00  0.00000000000E+00  0.45593999997E+02  0.45594000000E+02  0.51100000000E-03 0. -1.
         11   -1    0    0    0    0 -0.00000000000E+00 -0.00000000000E+00 -0.45593999997E+02  0.45594000000E+02  0.51100000000E-03 0.  1.
    9900012    2    1    2    0    0 -0.39375851540E+00 -0.92327760993E+00  0.62090477461E+00  0.90007741531E+02  0.90000002920E+02 0.  0.
         12    1    1    2    0    0  0.39375851540E+00  0.92327760993E+00 -0.62090477461E+00  0.11802584686E+01  0.00000000000E+00 0. -1.
         11    1    3    3    0    0  0.66113011410E+01 -0.20479859255E+02  0.34024527637E+02  0.40259190492E+02  0.51100000000E-03 0. -1.
        -11    1    3    3    0    0  0.88326301194E+01 -0.12609225562E+01 -0.25095876074E+01  0.92684038938E+01  0.51100000000E-03 0.  1.
        -12    1    3    3    0    0 -0.15837689776E+02  0.20817504201E+02 -0.30894035255E+02  0.40480147146E+02  0.00000000000E+00 0.  1.
</event>
<event>
 7    1  0.1999542E-015  0.9000778E+02  0.7816164E-02  0.1186339E+00
        -11   -1    0    0    0    0  0.00000000000E+00  0.00000000000E+00  0.45593999997E+02  0.45594000000E+02  0.51100000000E-03 0. -1.
         11   -1    0    0    0    0 -0.00000000000E+00 -0.00000000000E+00 -0.45593999997E+02  0.45594000000E+02  0.51100000000E-03 0.  1.
    9900012    2    1    2    0    0 -0.43416409724E+00 -0.30481056981E+00 -0.10542798868E+01  0.90007782212E+02  0.90000044137E+02 0.  0.
         12    1    1    2    0    0  0.43416409724E+00  0.30481056981E+00  0.10542798868E+01  0.11802177878E+01  0.00000000000E+00 0. -1.
         11    1    3    3    0    0 -0.74061498789E+01 -0.45272264091E+00  0.50486144137E+01  0.89746599701E+01  0.51100000000E-03 0. -1.
        -11    1    3    3    0    0 -0.19444800270E+02  0.31525820905E+02  0.75527211805E+01  0.37802397262E+02  0.51100000000E-03 0.  1.
         12    1    3    3    0    0  0.26416786052E+02 -0.31377908834E+02 -0.13655615481E+02  0.43230724980E+02  0.00000000000E+00 0. -1.
</event>
<event>
 7    1  0.1999542E-015  0.9000774E+02  0.7816164E-02  0.1186339E+00
        -11   -1    0    0    0    0  0.00000000000E+00  0.00000000000E+00  0.45593999997E+02  0.45594000000E+02  0.51100000000E-03 0.  1.
         11   -1    0    0    0    0 -0.00000000000E+00 -0.00000000000E+00 -0.45593999997E+02  0.45594000000E+02  0.51100000000E-03 0. -1.
    9900012    2    1    2    0    0 -0.39892711108E-01  0.88950742628E-01  0.11762271580E+01  0.90007739863E+02  0.90000001230E+02 0.  0.
         12    1    1    2    0    0  0.39892711108E-01 -0.88950742628E-01 -0.11762271580E+01  0.11802601367E+01  0.00000000000E+00 0. -1.
         11    1    3    3    0    0  0.14118237806E+02 -0.32648734321E+02  0.51629123320E+01  0.35943290827E+02  0.51100000000E-03 0. -1.
        -11    1    3    3    0    0  0.32463483165E+01 -0.58792847941E+01  0.76081340455E+01  0.10148323556E+02  0.51100000000E-03 0.  1.
        -12    1    3    3    0    0 -0.17404478834E+02  0.38616969857E+02 -0.11594819219E+02  0.43916125480E+02  0.00000000000E+00 0.  1.
</event>
<event>
 7    1  0.1999542E-015  0.9000779E+02  0.7816164E-02  0.1186339E+00
        -11   -1    0    0    0    0  0.00000000000E+00  0.00000000000E+00  0.45593999997E+02  0.45594000000E+02  0.51100000000E-03 0.  1.
         11   -1    0    0    0    0 -0.00000000000E+00 -0.00000000000E+00 -0.45593999997E+02  0.45594000000E+02  0.51100000000E-03 0. -1.
    9900012    2    1    2    0    0 -0.65411815462E+00 -0.22438090870E+00  0.95638418543E+00  0.90007793212E+02  0.90000055282E+02 0.  0.
         12    1    1    2    0    0  0.65411815462E+00  0.22438090870E+00 -0.95638418543E+00  0.11802067880E+01  0.00000000000E+00 0. -1.
         11    1    3    3    0    0 -0.38415887652E+01 -0.79699021476E+01 -0.33226925554E+02  0.34384672843E+02  0.51100000000E-03 0. -1.
        -11    1    3    3    0    0 -0.75559425510E+01  0.68529570896E+00 -0.82954199805E+01  0.11241703205E+02  0.51100000000E-03 0.  1.
        -12    1    3    3    0    0  0.10743413162E+02  0.70602255300E+01  0.42478729720E+02  0.44381417164E+02  0.00000000000E+00 0.  1.
</event>
<event>
 7    1  0.1999542E-015  0.9000775E+02  0.7816164E-02  0.1186339E+00
        -11   -1    0    0    0    0  0.00000000000E+00  0.00000000000E+00  0.45593999997E+02  0.45594000000E+02  0.51100000000E-03 0.  1.
         11   -1    0    0    0    0 -0.00000000000E+00 -0.00000000000E+00 -0.45593999997E+02  0.45594000000E+02  0.51100000000E-03 0. -1.
    9900012    2    1    2    0    0 -0.22397284163E+00 -0.11118658817E+01  0.32647214679E+00  0.90007748486E+02  0.90000009966E+02 0.  0.
         12    1    1    2    0    0  0.22397284163E+00  0.11118658817E+01 -0.32647214679E+00  0.11802515136E+01  0.00000000000E+00 0. -1.
         11    1    3    3    0    0 -0.10879726529E+02  0.33979441344E+02  0.15782782742E+01  0.35713608695E+02  0.51100000000E-03 0. -1.
        -11    1    3    3    0    0 -0.61072812731E+01  0.56553011955E+01  0.51253615342E+01  0.97750011395E+01  0.51100000000E-03 0.  1.
        -12    1    3    3    0    0  0.16763034960E+02 -0.40746608422E+02 -0.63771676617E+01  0.44519138652E+02  0.00000000000E+00 0.  1.
</event>
<event>
 7    1  0.1999542E-015  0.9000763E+02  0.7816164E-02  0.1186339E+00
        -11   -1    0    0    0    0  0.00000000000E+00  0.00000000000E+00  0.45593999997E+02  0.45594000000E+02  0.51100000000E-03 0.  1.
         11   -1    0    0    0    0 -0.00000000000E+00 -0.00000000000E+00 -0.45593999997E+02  0.45594000000E+02  0.51100000000E-03 0. -1.
    9900012    2    1    2    0    0 -0.83217956884E+00 -0.66036552547E+00  0.51445199562E+00  0.90007632973E+02  0.89999892928E+02 0.  0.
         12    1    1    2    0    0  0.83217956884E+00  0.66036552547E+00 -0.51445199562E+00  0.11803670267E+01  0.00000000000E+00 0. -1.
         11    1    3    3    0    0  0.45605994948E+01 -0.21308529811E+01  0.75554884139E+01  0.90788219287E+01  0.51100000000E-03 0. -1.
        -11    1    3    3    0    0 -0.21436237527E+02 -0.21183155282E+02  0.24552585510E+02  0.38872455576E+02  0.51100000000E-03 0.  1.
         12    1    3    3    0    0  0.16043458463E+02  0.22653642738E+02 -0.31593621928E+02  0.42056355469E+02  0.00000000000E+00 0. -1.
</event>
<event>
 7    1  0.3105462E-015  0.9000772E+02  0.7816164E-02  0.1186339E+00
        -11   -1    0    0    0    0  0.00000000000E+00  0.00000000000E+00  0.45593999997E+02  0.45594000000E+02  0.51100000000E-03 0. -1.
         11   -1    0    0    0    0 -0.00000000000E+00 -0.00000000000E+00 -0.45593999997E+02  0.45594000000E+02  0.51100000000E-03 0.  1.
    9900012    2    1    2    0    0 -0.85308689797E+00  0.36050678954E+00 -0.73166989081E+00  0.90007719004E+02  0.89999980095E+02 0.  0.
         12    1    1    2    0    0  0.85308689797E+00 -0.36050678954E+00  0.73166989081E+00  0.11802809962E+01  0.00000000000E+00 0. -1.
         11    1    3    3    0    0 -0.71650294950E+01 -0.16439152509E+02  0.31359809659E+02  0.36125075017E+02  0.51100000000E-03 0. -1.
        -11    1    3    3    0    0  0.55613642740E+01 -0.38485159910E+01  0.69583108849E+01  0.97035013553E+01  0.51100000000E-03 0.  1.
        -12    1    3    3    0    0  0.75057832308E+00  0.20648175290E+02 -0.39049790435E+02  0.44179142631E+02  0.00000000000E+00 0.  1.
</event>
<event>
 7    1  0.1999542E-015  0.9000776E+02  0.7816164E-02  0.1186339E+00
        -11   -1    0    0    0    0  0.00000000000E+00  0.00000000000E+00  0.45593999997E+02  0.45594000000E+02  0.51100000000E-03 0.  1.
         11   -1    0    0    0    0 -0.00000000000E+00 -0.00000000000E+00 -0.45593999997E+02  0.45594000000E+02  0.51100000000E-03 0. -1.
    9900012    2    1    2    0    0 -0.11554693263E+01 -0.23761951530E+00 -0.37384872391E-01  0.90007758488E+02  0.90000020100E+02 0.  0.
         12    1    1    2    0    0  0.11554693263E+01  0.23761951530E+00  0.37384872391E-01  0.11802415121E+01  0.00000000000E+00 0. -1.
         11    1    3    3    0    0  0.42395559228E+01  0.82531700965E+01  0.25721035294E+01  0.96283107497E+01  0.51100000000E-03 0. -1.
        -11    1    3    3    0    0  0.29092914912E+02  0.13215182788E+01 -0.24766030939E+02  0.38229574904E+02  0.51100000000E-03 0.  1.
         12    1    3    3    0    0 -0.34487940161E+02 -0.98123078907E+01  0.22156542538E+02  0.42149872834E+02  0.00000000000E+00 0. -1.
</event>
<event>
 7    1  0.1999542E-015  0.9000766E+02  0.7816164E-02  0.1186339E+00
        -11   -1    0    0    0    0  0.00000000000E+00  0.00000000000E+00  0.45593999997E+02  0.45594000000E+02  0.51100000000E-03 0. -1.
         11   -1    0    0    0    0 -0.00000000000E+00 -0.00000000000E+00 -0.45593999997E+02  0.45594000000E+02  0.51100000000E-03 0.  1.
    9900012    2    1    2    0    0  0.11565600625E+01  0.22648338842E+00  0.65387037011E-01  0.90007660486E+02  0.89999920805E+02 0.  0.
         12    1    1    2    0    0 -0.11565600625E+01 -0.22648338842E+00 -0.65387037011E-01  0.11803395139E+01  0.00000000000E+00 0. -1.
         11    1    3    3    0    0 -0.22631949857E+02  0.17067842562E+02  0.25095245296E+02  0.37858786837E+02  0.51100000000E-03 0. -1.
        -11    1    3    3    0    0  0.12953709528E+01  0.80656057322E+01  0.27114343161E+01  0.86071980368E+01  0.51100000000E-03 0.  1.
        -12    1    3    3    0    0  0.22493138967E+02 -0.24906964906E+02 -0.27741292575E+02  0.43541675612E+02  0.00000000000E+00 0.  1.
</event>
<event>
 7    1  0.1999542E-015  0.9000775E+02  0.7816164E-02  0.1186339E+00
        -11   -1    0    0    0    0  0.00000000000E+00  0.00000000000E+00  0.45593999997E+02  0.45594000000E+02  0.51100000000E-03 0. -1.
         11   -1    0    0    0    0 -0.00000000000E+00 -0.00000000000E+00 -0.45593999997E+02  0.45594000000E+02  0.51100000000E-03 0.  1.
    9900012    2    1    2    0    0  0.85508135898E+00  0.74310164728E+00  0.33109910130E+00  0.90007749686E+02  0.90000011182E+02 0.  0.
         12    1    1    2    0    0 -0.85508135898E+00 -0.74310164728E+00 -0.33109910130E+00  0.11802503139E+01  0.00000000000E+00 0. -1.
         11    1    3    3    0    0  0.53954392321E+01  0.35466452752E+01  0.52753070788E+01  0.83377648235E+01  0.51100000000E-03 0. -1.
        -11    1    3    3    0    0 -0.13662762865E+02 -0.39941532363E+02  0.39788091358E+01  0.42400802104E+02  0.51100000000E-03 0.  1.
         12    1    3    3    0    0  0.91224049918E+01  0.37137988735E+02 -0.89230171132E+01  0.39269182759E+02  0.00000000000E+00 0. -1.
</event>
<event>
 7    1  0.1999542E-015  0.9000762E+02  0.7816164E-02  0.1186339E+00
        -11   -1    0    0    0    0  0.00000000000E+00  0.00000000000E+00  0.45593999997E+02  0.45594000000E+02  0.51100000000E-03 0. -1.
         11   -1    0    0    0    0 -0.00000000000E+00 -0.00000000000E+00 -0.45593999997E+02  0.45594000000E+02  0.51100000000E-03 0.  1.
    9900012    2    1    2    0    0  0.42078176739E+00 -0.88845771215E+00 -0.65336861748E+00  0.90007616608E+02  0.89999876347E+02 0.  0.
         12    1    1    2    0    0 -0.42078176739E+00  0.88845771215E+00  0.65336861748E+00  0.11803833921E+01  0.00000000000E+00 0. -1.
         11    1    3    3    0    0 -0.91026907472E+01 -0.34849641866E+01 -0.10395125847E+01  0.98022722312E+01  0.51100000000E-03 0. -1.
        -11    1    3    3    0    0 -0.49899165836E+01 -0.31343484559E+01 -0.38164367255E+02  0.38616606997E+02  0.51100000000E-03 0.  1.
         12    1    3    3    0    0  0.14513389098E+02  0.57308549303E+01  0.38550511222E+02  0.41588737380E+02  0.00000000000E+00 0. -1.
</event>
<event>
 7    1  0.1999542E-015  0.9000800E+02  0.7816164E-02  0.1186339E+00
        -11   -1    0    0    0    0  0.00000000000E+00  0.00000000000E+00  0.45593999997E+02  0.45594000000E+02  0.51100000000E-03 0.  1.
         11   -1    0    0    0    0 -0.00000000000E+00 -0.00000000000E+00 -0.45593999997E+02  0.45594000000E+02  0.51100000000E-03 0. -1.
    9900012    2    1    2    0    0 -0.14084332932E+00  0.10208521114E+01  0.57483514605E+00  0.90007995203E+02  0.90000259939E+02 0.  0.
         12    1    1    2    0    0  0.14084332932E+00 -0.10208521114E+01 -0.57483514605E+00  0.11800047974E+01  0.00000000000E+00 0. -1.
         11    1    3    3    0    0 -0.19890059673E+01 -0.90166279667E+01 -0.27366461418E+00  0.92374572914E+01  0.51100000000E-03 0. -1.
        -11    1    3    3    0    0  0.35655884743E+02 -0.12922128000E+02 -0.84589122908E+01  0.38857131987E+02  0.51100000000E-03 0.  1.
         12    1    3    3    0    0 -0.33807722105E+02  0.22959608078E+02  0.93074120510E+01  0.41913405924E+02  0.00000000000E+00 0. -1.
</event>
<event>
 7    1  0.1999542E-015  0.9000791E+02  0.7816164E-02  0.1186339E+00
        -11   -1    0    0    0    0  0.00000000000E+00  0.00000000000E+00  0.45593999997E+02  0.45594000000E+02  0.51100000000E-03 0. -1.
         11   -1    0    0    0    0 -0.00000000000E+00 -0.00000000000E+00 -0.45593999997E+02  0.45594000000E+02  0.51100000000E-03 0.  1.
    9900012    2    1    2    0    0 -0.72188377908E+00 -0.20260945738E+00 -0.91129050690E+00  0.90007907982E+02  0.90000171567E+02 0.  0.
         12    1    1    2    0    0  0.72188377908E+00  0.20260945738E+00  0.91129050690E+00  0.11800920179E+01  0.00000000000E+00 0. -1.
         11    1    3    3    0    0 -0.37342223315E+01  0.27344193463E+01  0.92088883609E+01  0.10306555714E+02  0.51100000000E-03 0. -1.
        -11    1    3    3    0    0 -0.20860118606E+02 -0.33815494173E+02 -0.85371676852E+01  0.40638841356E+02  0.51100000000E-03 0.  1.
         12    1    3    3    0    0  0.23872457159E+02  0.30878465369E+02 -0.15830111826E+01  0.39062510912E+02  0.00000000000E+00 0. -1.
</event>
<event>
 7    1  0.1999542E-015  0.9000770E+02  0.7816164E-02  0.1186339E+00
        -11   -1    0    0    0    0  0.00000000000E+00  0.00000000000E+00  0.45593999997E+02  0.45594000000E+02  0.51100000000E-03 0.  1.
         11   -1    0    0    0    0 -0.00000000000E+00 -0.00000000000E+00 -0.45593999997E+02  0.45594000000E+02  0.51100000000E-03 0. -1.
    9900012    2    1    2    0    0  0.77015558175E+00 -0.87580907109E+00  0.18143395297E+00  0.90007703669E+02  0.89999964558E+02 0.  0.
         12    1    1    2    0    0 -0.77015558175E+00  0.87580907109E+00 -0.18143395297E+00  0.11802963308E+01  0.00000000000E+00 0. -1.
         11    1    3    3    0    0 -0.37585966825E+02  0.30875283062E+01 -0.31036312091E+01  0.37840061577E+02  0.51100000000E-03 0. -1.
        -11    1    3    3    0    0 -0.20942631015E+01  0.30955259698E+01 -0.86363921652E+01  0.94103925986E+01  0.51100000000E-03 0.  1.
        -12    1    3    3    0    0  0.40450385508E+02 -0.70588633470E+01  0.11921457327E+02  0.42757249494E+02  0.00000000000E+00 0.  1.
</event>
<event>
 7    1  0.3137690E-015  0.9000797E+02  0.7816164E-02  0.1186339E+00
        -11   -1    0    0    0    0  0.00000000000E+00  0.00000000000E+00  0.45593999997E+02  0.45594000000E+02  0.51100000000E-03 0. -1.
         11   -1    0    0    0    0 -0.00000000000E+00 -0.00000000000E+00 -0.45593999997E+02  0.45594000000E+02  0.51100000000E-03 0.  1.
    9900012    2    1    2    0    0  0.29331886106E+00 -0.69914376618E+00 -0.90423038415E+00  0.90007970107E+02  0.90000234512E+02 0.  0.
         12    1    1    2    0    0 -0.29331886106E+00  0.69914376618E+00  0.90423038415E+00  0.11800298927E+01  0.00000000000E+00 0. -1.
         11    1    3    3    0    0  0.82510961553E-01 -0.30631835402E+02  0.22037393119E+02  0.37735432208E+02  0.51100000000E-03 0. -1.
        -11    1    3    3    0    0  0.68134325706E+01 -0.66101974425E+01 -0.22256588019E+01  0.97504426047E+01  0.51100000000E-03 0.  1.
        -12    1    3    3    0    0 -0.66026246711E+01  0.36542889078E+02 -0.20715964702E+02  0.42522095295E+02  0.00000000000E+00 0.  1.
</event>
<event>
 7    1  0.1999542E-015  0.9000765E+02  0.7816164E-02  0.1186339E+00
        -11   -1    0    0    0    0  0.00000000000E+00  0.00000000000E+00  0.45593999997E+02  0.45594000000E+02  0.51100000000E-03 0.  1.
         11   -1    0    0    0    0 -0.00000000000E+00 -0.00000000000E+00 -0.45593999997E+02  0.45594000000E+02  0.51100000000E-03 0. -1.
    9900012    2    1    2    0    0 -0.86589939156E+00  0.73760773206E+00 -0.31524740203E+00  0.90007649269E+02  0.89999909440E+02 0.  0.
         12    1    1    2    0    0  0.86589939156E+00 -0.73760773206E+00  0.31524740203E+00  0.11803507306E+01  0.00000000000E+00 0. -1.
         11    1    3    3    0    0 -0.26700904372E+01 -0.33076623528E+01 -0.87720738277E+01  0.97477839883E+01  0.51100000000E-03 0. -1.
        -11    1    3    3    0    0 -0.25183225312E+02  0.29815919192E+01  0.34448704885E+02  0.42776138162E+02  0.51100000000E-03 0.  1.
         12    1    3    3    0    0  0.26987416358E+02  0.10636781657E+01 -0.25991878459E+02  0.37483727119E+02  0.00000000000E+00 0. -1.
</event>
<event>
 7    1  0.1999542E-015  0.9000771E+02  0.7816164E-02  0.1186339E+00
        -11   -1    0    0    0    0  0.00000000000E+00  0.00000000000E+00  0.45593999997E+02  0.45594000000E+02  0.51100000000E-03 0. -1.
         11   -1    0    0    0    0 -0.00000000000E+00 -0.00000000000E+00 -0.45593999997E+02  0.45594000000E+02  0.51100000000E-03 0.  1.
    9900012    2    1    2    0    0  0.84223178616E+00 -0.78811308598E+00 -0.25021274852E+00  0.90007710613E+02  0.89999971593E+02 0.  0.
         12    1    1    2    0    0 -0.84223178616E+00  0.78811308598E+00  0.25021274852E+00  0.11802893872E+01  0.00000000000E+00 0. -1.
         11    1    3    3    0    0  0.21080998564E+02  0.96562399030E+01  0.24690774918E+02  0.33871608108E+02  0.51100000000E-03 0. -1.
        -11    1    3    3    0    0  0.12631398450E+02  0.27741731985E+01 -0.13994589154E+02  0.19055098782E+02  0.51100000000E-03 0.  1.
        -12    1    3    3    0    0 -0.32870165228E+02 -0.13218526188E+02 -0.10946398513E+02  0.37081003723E+02  0.00000000000E+00 0.  1.
</event>
<event>
 7    1  0.1999542E-015  0.9000775E+02  0.7816164E-02  0.1186339E+00
        -11   -1    0    0    0    0  0.00000000000E+00  0.00000000000E+00  0.45593999997E+02  0.45594000000E+02  0.51100000000E-03 0.  1.
         11   -1    0    0    0    0 -0.00000000000E+00 -0.00000000000E+00 -0.45593999997E+02  0.45594000000E+02  0.51100000000E-03 0. -1.
    9900012    2    1    2    0    0 -0.11243070004E+01  0.20213859505E+00  0.29676740258E+00  0.90007747004E+02  0.90000008465E+02 0.  0.
         12    1    1    2    0    0  0.11243070004E+01 -0.20213859505E+00 -0.29676740258E+00  0.11802529958E+01  0.00000000000E+00 0. -1.
         11    1    3    3    0    0  0.28658391686E+01  0.86589710418E+01 -0.36009296100E+02  0.37146469812E+02  0.51100000000E-03 0. -1.
        -11    1    3    3    0    0 -0.23827983095E+01 -0.33385799417E+01 -0.75959884467E+01  0.86326638156E+01  0.51100000000E-03 0.  1.
        -12    1    3    3    0    0 -0.16073478595E+01 -0.51182525050E+01  0.43902051949E+02  0.44228613376E+02  0.00000000000E+00 0.  1.
</event>
<event>
 7    1  0.1999542E-015  0.9000774E+02  0.7816164E-02  0.1186339E+00
        -11   -1    0    0    0    0  0.00000000000E+00  0.00000000000E+00  0.45593999997E+02  0.45594000000E+02  0.51100000000E-03 0.  1.
         11   -1    0    0    0    0 -0.00000000000E+00 -0.00000000000E+00 -0.45593999997E+02  0.45594000000E+02  0.51100000000E-03 0. -1.
    9900012    2    1    2    0    0 -0.10598975357E+01  0.27882977680E+00  0.43804237082E+00  0.90007741575E+02  0.90000002964E+02 0.  0.
         12    1    1    2    0    0  0.10598975357E+01 -0.27882977680E+00 -0.43804237082E+00  0.11802584248E+01  0.00000000000E+00 0. -1.
         11    1    3    3    0    0  0.27374899281E+02  0.22153928635E+01 -0.27167087570E+02  0.38630864907E+02  0.51100000000E-03 0. -1.
        -11    1    3    3    0    0 -0.78362850046E+01  0.47382740530E+01 -0.63228084893E+01  0.11128185437E+02  0.51100000000E-03 0.  1.
        -12    1    3    3    0    0 -0.20598511812E+02 -0.66748371397E+01  0.33927938430E+02  0.40248691231E+02  0.00000000000E+00 0.  1.
</event>
<event>
 7    1  0.1999542E-015  0.9000765E+02  0.7816164E-02  0.1186339E+00
        -11   -1    0    0    0    0  0.00000000000E+00  0.00000000000E+00  0.45593999997E+02  0.45594000000E+02  0.51100000000E-03 0.  1.
         11   -1    0    0    0    0 -0.00000000000E+00 -0.00000000000E+00 -0.45593999997E+02  0.45594000000E+02  0.51100000000E-03 0. -1.
    9900012    2    1    2    0    0 -0.70218801080E+00  0.94864734048E+00 -0.14921138812E-01  0.90007651569E+02  0.89999911769E+02 0.  0.
         12    1    1    2    0    0  0.70218801080E+00 -0.94864734048E+00  0.14921138812E-01  0.11803484314E+01  0.00000000000E+00 0. -1.
         11    1    3    3    0    0  0.13670652392E+02 -0.18376562448E+02 -0.22627757505E+02  0.32196276092E+02  0.51100000000E-03 0. -1.
        -11    1    3    3    0    0  0.96110740307E+01  0.41226683426E+00 -0.94806731094E+01  0.13506512164E+02  0.51100000000E-03 0.  1.
        -12    1    3    3    0    0 -0.23983914434E+02  0.18912942954E+02  0.32093509475E+02  0.44304863313E+02  0.00000000000E+00 0.  1.
</event>
<event>
 7    1  0.1999542E-015  0.9000764E+02  0.7816164E-02  0.1186339E+00
        -11   -1    0    0    0    0  0.00000000000E+00  0.00000000000E+00  0.45593999997E+02  0.45594000000E+02  0.51100000000E-03 0.  1.
         11   -1    0    0    0    0 -0.00000000000E+00 -0.00000000000E+00 -0.45593999997E+02  0.45594000000E+02  0.51100000000E-03 0. -1.
    9900012    2    1    2    0    0 -0.23201326960E+00  0.92578771649E+00  0.69450123368E+00  0.90007641996E+02  0.89999902071E+02 0.  0.
         12    1    1    2    0    0  0.23201326960E+00 -0.92578771649E+00 -0.69450123368E+00  0.11803580037E+01  0.00000000000E+00 0. -1.
         11    1    3    3    0    0  0.56639290814E+01  0.10861844457E+01  0.55948642849E+01  0.80350728632E+01  0.51100000000E-03 0. -1.
        -11    1    3    3    0    0  0.12091491117E+02  0.30409607197E+02  0.20256768764E+02  0.38487466120E+02  0.51100000000E-03 0.  1.
         12    1    3    3    0    0 -0.17987433468E+02 -0.30570003927E+02 -0.25157131816E+02  0.43485103013E+02  0.00000000000E+00 0. -1.
</event>
<event>
 7    1  0.1999542E-015  0.9000771E+02  0.7816164E-02  0.1186339E+00
        -11   -1    0    0    0    0  0.00000000000E+00  0.00000000000E+00  0.45593999997E+02  0.45594000000E+02  0.51100000000E-03 0.  1.
         11   -1    0    0    0    0 -0.00000000000E+00 -0.00000000000E+00 -0.45593999997E+02  0.45594000000E+02  0.51100000000E-03 0. -1.
    9900012    2    1    2    0    0  0.85240454952E+00  0.79760272705E+00 -0.17412202765E+00  0.90007711007E+02  0.89999971992E+02 0.  0.
         12    1    1    2    0    0 -0.85240454952E+00 -0.79760272705E+00  0.17412202765E+00  0.11802889929E+01  0.00000000000E+00 0. -1.
         11    1    3    3    0    0  0.34783726033E+01  0.27072616749E+01 -0.84319482836E+01  0.95145201594E+01  0.51100000000E-03 0. -1.
        -11    1    3    3    0    0 -0.17727222282E+02  0.24525996344E+02  0.30364049812E+02  0.42869038101E+02  0.51100000000E-03 0.  1.
         12    1    3    3    0    0  0.15101254228E+02 -0.26435655292E+02 -0.22106223556E+02  0.37624152746E+02  0.00000000000E+00 0. -1.
</event>
<event>
 7    1  0.1999542E-015  0.9000775E+02  0.7816164E-02  0.1186339E+00
        -11   -1    0    0    0    0  0.00000000000E+00  0.00000000000E+00  0.45593999997E+02  0.45594000000E+02  0.51100000000E-03 0. -1.
         11   -1    0    0    0    0 -0.00000000000E+00 -0.00000000000E+00 -0.45593999997E+02  0.45594000000E+02  0.51100000000E-03 0.  1.
    9900012    2    1    2    0    0  0.20573710959E+00 -0.76453879209E+00 -0.87529400539E+00  0.90007751332E+02  0.90000012849E+02 0.  0.
         12    1    1    2    0    0 -0.20573710959E+00  0.76453879209E+00  0.87529400539E+00  0.11802486682E+01  0.00000000000E+00 0. -1.
         11    1    3    3    0    0 -0.23693625442E+01  0.51678248399E+01  0.11339344944E+02  0.12684677231E+02  0.51100000000E-03 0. -1.
        -11    1    3    3    0    0 -0.16380817677E+02  0.24226393418E+02 -0.25996260023E+02  0.39128696136E+02  0.51100000000E-03 0.  1.
         12    1    3    3    0    0  0.18955917331E+02 -0.30158757050E+02  0.13781621074E+02  0.38194377965E+02  0.00000000000E+00 0. -1.
</event>
<event>
 7    1  0.2012334E-015  0.9000774E+02  0.7816164E-02  0.1186339E+00
        -11   -1    0    0    0    0  0.00000000000E+00  0.00000000000E+00  0.45593999997E+02  0.45594000000E+02  0.51100000000E-03 0.  1.
         11   -1    0    0    0    0 -0.00000000000E+00 -0.00000000000E+00 -0.45593999997E+02  0.45594000000E+02  0.51100000000E-03 0. -1.
    9900012    2    1    2    0    0 -0.89911770768E+00 -0.14314109863E-01  0.76445995738E+00  0.90007738769E+02  0.90000000121E+02 0.  0.
         12    1    1    2    0    0  0.89911770768E+00  0.14314109863E-01 -0.76445995738E+00  0.11802612306E+01  0.00000000000E+00 0. -1.
         11    1    3    3    0    0 -0.15423856132E+02  0.16256714381E+01 -0.36339912343E+02  0.39511104451E+02  0.51100000000E-03 0. -1.
        -11    1    3    3    0    0  0.39349789976E+01 -0.75533276224E+01 -0.26608257387E+01  0.89228253236E+01  0.51100000000E-03 0.  1.
        -12    1    3    3    0    0  0.10589759427E+02  0.59133420745E+01  0.39765198039E+02  0.41573808994E+02  0.00000000000E+00 0.  1.
</event>
<event>
 7    1  0.1999542E-015  0.9000768E+02  0.7816164E-02  0.1186339E+00
        -11   -1    0    0    0    0  0.00000000000E+00  0.00000000000E+00  0.45593999997E+02  0.45594000000E+02  0.51100000000E-03 0. -1.
         11   -1    0    0    0    0 -0.00000000000E+00 -0.00000000000E+00 -0.45593999997E+02  0.45594000000E+02  0.51100000000E-03 0.  1.
    9900012    2    1    2    0    0  0.25614455505E+00  0.91931982417E+00 -0.69454311842E+00  0.90007682621E+02  0.89999943231E+02 0.  0.
         12    1    1    2    0    0 -0.25614455505E+00 -0.91931982417E+00  0.69454311842E+00  0.11803173792E+01  0.00000000000E+00 0. -1.
         11    1    3    3    0    0 -0.15422105198E+01  0.13923637720E+01  0.96659416367E+01  0.98867344531E+01  0.51100000000E-03 0. -1.
        -11    1    3    3    0    0 -0.22023326941E+02  0.27027451789E+02  0.12631252087E+02  0.37081782715E+02  0.51100000000E-03 0.  1.
         12    1    3    3    0    0  0.23821682016E+02 -0.27500495737E+02 -0.22991736842E+02  0.43039165453E+02  0.00000000000E+00 0. -1.
</event>
<event>
 7    1  0.1999542E-015  0.9000775E+02  0.7816164E-02  0.1186339E+00
        -11   -1    0    0    0    0  0.00000000000E+00  0.00000000000E+00  0.45593999997E+02  0.45594000000E+02  0.51100000000E-03 0.  1.
         11   -1    0    0    0    0 -0.00000000000E+00 -0.00000000000E+00 -0.45593999997E+02  0.45594000000E+02  0.51100000000E-03 0. -1.
    9900012    2    1    2    0    0 -0.16804182006E-01  0.30557655185E+00  0.11398835732E+01  0.90007748345E+02  0.90000009823E+02 0.  0.
         12    1    1    2    0    0  0.16804182006E-01 -0.30557655185E+00 -0.11398835732E+01  0.11802516553E+01  0.00000000000E+00 0. -1.
         11    1    3    3    0    0  0.64009872369E+01  0.88898616330E+01  0.81410208567E+01  0.13648388121E+02  0.51100000000E-03 0. -1.
        -11    1    3    3    0    0  0.25733610850E+02 -0.27637074468E+02  0.23456598090E+01  0.37835548532E+02  0.51100000000E-03 0.  1.
         12    1    3    3    0    0 -0.32151402269E+02  0.19052789387E+02 -0.93467970926E+01  0.38523811691E+02  0.00000000000E+00 0. -1.
</event>
<event>
 7    1  0.1999542E-015  0.9000777E+02  0.7816164E-02  0.1186339E+00
        -11   -1    0    0    0    0  0.00000000000E+00  0.00000000000E+00  0.45593999997E+02  0.45594000000E+02  0.51100000000E-03 0.  1.
         11   -1    0    0    0    0 -0.00000000000E+00 -0.00000000000E+00 -0.45593999997E+02  0.45594000000E+02  0.51100000000E-03 0. -1.
    9900012    2    1    2    0    0 -0.57601966057E-01  0.11639062398E+01 -0.18695044080E+00  0.90007768587E+02  0.90000030332E+02 0.  0.
         12    1    1    2    0    0  0.57601966057E-01 -0.11639062398E+01  0.18695044080E+00  0.11802314132E+01  0.00000000000E+00 0. -1.
         11    1    3    3    0    0 -0.37586760266E+00 -0.55770679667E+01 -0.64968368728E+01  0.85705223395E+01  0.51100000000E-03 0. -1.
        -11    1    3    3    0    0  0.16982006957E+02 -0.33158715773E+02  0.82391904555E+01  0.38154596730E+02  0.51100000000E-03 0.  1.
         12    1    3    3    0    0 -0.16663741321E+02  0.39899689979E+02 -0.19293040235E+01  0.43282649517E+02  0.00000000000E+00 0. -1.
</event>
<event>
 7    1  0.1999542E-015  0.9000770E+02  0.7816164E-02  0.1186339E+00
        -11   -1    0    0    0    0  0.00000000000E+00  0.00000000000E+00  0.45593999997E+02  0.45594000000E+02  0.51100000000E-03 0. -1.
         11   -1    0    0    0    0 -0.00000000000E+00 -0.00000000000E+00 -0.45593999997E+02  0.45594000000E+02  0.51100000000E-03 0.  1.
    9900012    2    1    2    0    0  0.97934653462E+00  0.51534654784E+00 -0.41036701996E+00  0.90007702245E+02  0.89999963115E+02 0.  0.
         12    1    1    2    0    0 -0.97934653462E+00 -0.51534654784E+00  0.41036701996E+00  0.11802977549E+01  0.00000000000E+00 0. -1.
         11    1    3    3    0    0 -0.17550191830E+02  0.36753922527E+02 -0.10797663517E+02  0.42136084205E+02  0.51100000000E-03 0. -1.
        -11    1    3    3    0    0 -0.30065096900E+01 -0.43397724799E+01 -0.41646819176E+01  0.67243811187E+01  0.51100000000E-03 0.  1.
        -12    1    3    3    0    0  0.21536048055E+02 -0.31898803499E+02  0.14551978415E+02  0.41147236922E+02  0.00000000000E+00 0.  1.
</event>
<event>
 7    1  0.1999542E-015  0.9000770E+02  0.7816164E-02  0.1186339E+00
        -11   -1    0    0    0    0  0.00000000000E+00  0.00000000000E+00  0.45593999997E+02  0.45594000000E+02  0.51100000000E-03 0. -1.
         11   -1    0    0    0    0 -0.00000000000E+00 -0.00000000000E+00 -0.45593999997E+02  0.45594000000E+02  0.51100000000E-03 0.  1.
    9900012    2    1    2    0    0 -0.97356839065E+00  0.47643906577E+00  0.46719362275E+00  0.90007703649E+02  0.89999964537E+02 0.  0.
         12    1    1    2    0    0  0.97356839065E+00 -0.47643906577E+00 -0.46719362275E+00  0.11802963508E+01  0.00000000000E+00 0. -1.
         11    1    3    3    0    0  0.26659259789E+02  0.16664813425E+02  0.15772882011E+02  0.35174080602E+02  0.51100000000E-03 0. -1.
        -11    1    3    3    0    0  0.93136554915E+01  0.29319173015E+01  0.16636283952E+01  0.99049471162E+01  0.51100000000E-03 0.  1.
        -12    1    3    3    0    0 -0.36946483671E+02 -0.19120291660E+02 -0.16969316784E+02  0.44928675931E+02  0.00000000000E+00 0.  1.
</event>
<event>
 7    1  0.1999542E-015  0.9000718E+02  0.7816164E-02  0.1186340E+00
        -11   -1    0    0    0    0  0.00000000000E+00  0.00000000000E+00  0.45593999997E+02  0.45594000000E+02  0.51100000000E-03 0.  1.
         11   -1    0    0    0    0 -0.00000000000E+00 -0.00000000000E+00 -0.45593999997E+02  0.45594000000E+02  0.51100000000E-03 0. -1.
    9900012    2    1    2    0    0 -0.40505474204E-01  0.33661953194E+00 -0.11310991771E+01  0.90007178781E+02  0.89999432739E+02 0.  0.
         12    1    1    2    0    0  0.40505474204E-01 -0.33661953194E+00  0.11310991771E+01  0.11808212189E+01  0.00000000000E+00 0. -1.
         11    1    3    3    0    0 -0.23022761901E+02 -0.20733994531E+02 -0.19416513369E+02  0.36564287035E+02  0.51100000000E-03 0. -1.
        -11    1    3    3    0    0 -0.22138523945E+01 -0.24537587966E+01 -0.89309714352E+01  0.95228318107E+01  0.51100000000E-03 0.  1.
        -12    1    3    3    0    0  0.25196108821E+02  0.23524372859E+02  0.27216385627E+02  0.43920059935E+02  0.00000000000E+00 0.  1.
</event>
<event>
 7    1  0.1999542E-015  0.9000773E+02  0.7816164E-02  0.1186339E+00
        -11   -1    0    0    0    0  0.00000000000E+00  0.00000000000E+00  0.45593999997E+02  0.45594000000E+02  0.51100000000E-03 0. -1.
         11   -1    0    0    0    0 -0.00000000000E+00 -0.00000000000E+00 -0.45593999997E+02  0.45594000000E+02  0.51100000000E-03 0.  1.
    9900012    2    1    2    0    0 -0.42479228521E+00  0.26955513900E+00 -0.10676708186E+01  0.90007733320E+02  0.89999994600E+02 0.  0.
         12    1    1    2    0    0  0.42479228521E+00 -0.26955513900E+00  0.10676708186E+01  0.11802666798E+01  0.00000000000E+00 0. -1.
         11    1    3    3    0    0  0.31542665588E+01 -0.49207077280E+01 -0.91493468894E+01  0.10856947584E+02  0.51100000000E-03 0. -1.
        -11    1    3    3    0    0 -0.10194902990E+02 -0.79044666241E+01 -0.33051334518E+02  0.35479675214E+02  0.51100000000E-03 0.  1.
         12    1    3    3    0    0  0.66158441462E+01  0.13094729491E+02  0.41133010589E+02  0.43671110523E+02  0.00000000000E+00 0. -1.
</event>
<event>
 7    1  0.1999542E-015  0.9000779E+02  0.7816164E-02  0.1186339E+00
        -11   -1    0    0    0    0  0.00000000000E+00  0.00000000000E+00  0.45593999997E+02  0.45594000000E+02  0.51100000000E-03 0. -1.
         11   -1    0    0    0    0 -0.00000000000E+00 -0.00000000000E+00 -0.45593999997E+02  0.45594000000E+02  0.51100000000E-03 0.  1.
    9900012    2    1    2    0    0  0.78376030694E+00 -0.78662209014E+00  0.39978859713E+00  0.90007794317E+02  0.90000056402E+02 0.  0.
         12    1    1    2    0    0 -0.78376030694E+00  0.78662209014E+00 -0.39978859713E+00  0.11802056828E+01  0.00000000000E+00 0. -1.
         11    1    3    3    0    0 -0.43185755865E+01  0.25023252781E+02  0.20530697094E+02  0.32654598425E+02  0.51100000000E-03 0. -1.
        -11    1    3    3    0    0 -0.11723148057E+02  0.52418920221E+00  0.88774033342E+01  0.14714457683E+02  0.51100000000E-03 0.  1.
        -12    1    3    3    0    0  0.16825483950E+02 -0.26334064074E+02 -0.29008311832E+02  0.42638738210E+02  0.00000000000E+00 0.  1.
</event>
<event>
 7    1  0.1999542E-015  0.9000773E+02  0.7816164E-02  0.1186339E+00
        -11   -1    0    0    0    0  0.00000000000E+00  0.00000000000E+00  0.45593999997E+02  0.45594000000E+02  0.51100000000E-03 0. -1.
         11   -1    0    0    0    0 -0.00000000000E+00 -0.00000000000E+00 -0.45593999997E+02  0.45594000000E+02  0.51100000000E-03 0.  1.
    9900012    2    1    2    0    0 -0.10245570219E+01  0.19078531422E+00 -0.55399418832E+00  0.90007734908E+02  0.89999996209E+02 0.  0.
         12    1    1    2    0    0  0.10245570219E+01 -0.19078531422E+00  0.55399418832E+00  0.11802650923E+01  0.00000000000E+00 0. -1.
         11    1    3    3    0    0 -0.73622406797E+01  0.13410817930E+01 -0.74718108555E+01  0.10574925339E+02  0.51100000000E-03 0. -1.
        -11    1    3    3    0    0  0.73190207172E+01  0.37137306680E+02 -0.73550328248E+01  0.38559617735E+02  0.51100000000E-03 0.  1.
         12    1    3    3    0    0 -0.98133705950E+00 -0.38287603159E+02  0.14272849492E+02  0.40873191834E+02  0.00000000000E+00 0. -1.
</event>
<event>
 7    1  0.1999542E-015  0.9000768E+02  0.7816164E-02  0.1186339E+00
        -11   -1    0    0    0    0  0.00000000000E+00  0.00000000000E+00  0.45593999997E+02  0.45594000000E+02  0.51100000000E-03 0.  1.
         11   -1    0    0    0    0 -0.00000000000E+00 -0.00000000000E+00 -0.45593999997E+02  0.45594000000E+02  0.51100000000E-03 0. -1.
    9900012    2    1    2    0    0 -0.11513690107E+01 -0.21149836611E+00 -0.15092987357E+00  0.90007677169E+02  0.89999937708E+02 0.  0.
         12    1    1    2    0    0  0.11513690107E+01  0.21149836611E+00  0.15092987357E+00  0.11803228305E+01  0.00000000000E+00 0. -1.
         11    1    3    3    0    0  0.29146010191E+02  0.10703952811E+02 -0.28984053314E+02  0.42475167600E+02  0.51100000000E-03 0. -1.
        -11    1    3    3    0    0  0.12295751645E+00 -0.10956555844E+01  0.10749544269E+02  0.10805937348E+02  0.51100000000E-03 0.  1.
        -12    1    3    3    0    0 -0.30420336718E+02 -0.98197955927E+01  0.18083579171E+02  0.36726572222E+02  0.00000000000E+00 0.  1.
</event>
<event>
 7    1  0.1999542E-015  0.9000765E+02  0.7816164E-02  0.1186339E+00
        -11   -1    0    0    0    0  0.00000000000E+00  0.00000000000E+00  0.45593999997E+02  0.45594000000E+02  0.51100000000E-03 0.  1.
         11   -1    0    0    0    0 -0.00000000000E+00 -0.00000000000E+00 -0.45593999997E+02  0.45594000000E+02  0.51100000000E-03 0. -1.
    9900012    2    1    2    0    0  0.63856706346E+00  0.88927407774E+00 -0.44119840109E+00  0.90007647379E+02  0.89999907525E+02 0.  0.
         12    1    1    2    0    0 -0.63856706346E+00 -0.88927407774E+00  0.44119840109E+00  0.11803526206E+01  0.00000000000E+00 0. -1.
         11    1    3    3    0    0 -0.14541690948E+01  0.19417417894E+01 -0.25511093621E+00  0.24392725932E+01  0.51100000000E-03 0. -1.
        -11    1    3    3    0    0 -0.27522339902E+02 -0.10465426588E+02  0.31547334472E+02  0.43153663342E+02  0.51100000000E-03 0.  1.
         12    1    3    3    0    0  0.29615076060E+02  0.94129588762E+01 -0.31733421937E+02  0.44414711444E+02  0.00000000000E+00 0. -1.
</event>
<event>
 7    1  0.1999542E-015  0.9000762E+02  0.7816164E-02  0.1186339E+00
        -11   -1    0    0    0    0  0.00000000000E+00  0.00000000000E+00  0.45593999997E+02  0.45594000000E+02  0.51100000000E-03 0. -1.
         11   -1    0    0    0    0 -0.00000000000E+00 -0.00000000000E+00 -0.45593999997E+02  0.45594000000E+02  0.51100000000E-03 0.  1.
    9900012    2    1    2    0    0 -0.38531719600E+00  0.82209400715E+00  0.75431608507E+00  0.90007618429E+02  0.89999878192E+02 0.  0.
         12    1    1    2    0    0  0.38531719600E+00 -0.82209400715E+00 -0.75431608507E+00  0.11803815715E+01  0.00000000000E+00 0. -1.
         11    1    3    3    0    0  0.15502604098E+01  0.49156945091E+01 -0.80589529377E+01  0.95662993136E+01  0.51100000000E-03 0. -1.
        -11    1    3    3    0    0  0.33661441415E+02  0.16749720913E+02  0.10874488727E+02  0.39139497878E+02  0.51100000000E-03 0.  1.
         12    1    3    3    0    0 -0.35597019021E+02 -0.20843321415E+02 -0.20612197046E+01  0.41301821237E+02  0.00000000000E+00 0. -1.
</event>
<event>
 7    1  0.1999542E-015  0.9000778E+02  0.7816164E-02  0.1186339E+00
        -11   -1    0    0    0    0  0.00000000000E+00  0.00000000000E+00  0.45593999997E+02  0.45594000000E+02  0.51100000000E-03 0.  1.
         11   -1    0    0    0    0 -0.00000000000E+00 -0.00000000000E+00 -0.45593999997E+02  0.45594000000E+02  0.51100000000E-03 0. -1.
    9900012    2    1    2    0    0 -0.10967186863E+01  0.42402950610E+00 -0.10156367330E+00  0.90007784732E+02  0.90000046690E+02 0.  0.
         12    1    1    2    0    0  0.10967186863E+01 -0.42402950610E+00  0.10156367330E+00  0.11802152680E+01  0.00000000000E+00 0. -1.
         11    1    3    3    0    0  0.25038488066E+01  0.10170753950E+02 -0.37941961061E+01  0.11140440706E+02  0.51100000000E-03 0. -1.
        -11    1    3    3    0    0  0.15040334586E+02  0.24644022547E+02  0.21390976302E+02  0.35932066169E+02  0.51100000000E-03 0.  1.
         12    1    3    3    0    0 -0.18640902079E+02 -0.34390746991E+02 -0.17698343870E+02  0.42935277857E+02  0.00000000000E+00 0. -1.
</event>
<event>
 7    1  0.1999542E-015  0.9000776E+02  0.7816164E-02  0.1186339E+00
        -11   -1    0    0    0    0  0.00000000000E+00  0.00000000000E+00  0.45593999997E+02  0.45594000000E+02  0.51100000000E-03 0.  1.
         11   -1    0    0    0    0 -0.00000000000E+00 -0.00000000000E+00 -0.45593999997E+02  0.45594000000E+02  0.51100000000E-03 0. -1.
    9900012    2    1    2    0    0  0.84853100790E+00 -0.68945849584E+00  0.44453778809E+00  0.90007757765E+02  0.90000019367E+02 0.  0.
         12    1    1    2    0    0 -0.84853100790E+00  0.68945849584E+00 -0.44453778809E+00  0.11802422353E+01  0.00000000000E+00 0. -1.
         11    1    3    3    0    0 -0.99235210917E+01 -0.30971091707E+02 -0.15323866603E+02  0.35951435025E+02  0.51100000000E-03 0. -1.
        -11    1    3    3    0    0 -0.16659763068E+01 -0.23591358516E+01 -0.10154874194E+02  0.10557578755E+02  0.51100000000E-03 0.  1.
        -12    1    3    3    0    0  0.12438028406E+02  0.32640769063E+02  0.25923278585E+02  0.43498743985E+02  0.00000000000E+00 0.  1.
</event>
<event>
 7    1  0.1999542E-015  0.9000785E+02  0.7816164E-02  0.1186339E+00
        -11   -1    0    0    0    0  0.00000000000E+00  0.00000000000E+00  0.45593999997E+02  0.45594000000E+02  0.51100000000E-03 0.  1.
         11   -1    0    0    0    0 -0.00000000000E+00 -0.00000000000E+00 -0.45593999997E+02  0.45594000000E+02  0.51100000000E-03 0. -1.
    9900012    2    1    2    0    0 -0.11575302001E+01  0.20450731193E+00  0.10511712245E+00  0.90007852122E+02  0.90000114970E+02 0.  0.
         12    1    1    2    0    0  0.11575302001E+01 -0.20450731193E+00 -0.10511712245E+00  0.11801478781E+01  0.00000000000E+00 0. -1.
         11    1    3    3    0    0  0.48102141757E+01 -0.30403306591E+02 -0.24777216816E+02  0.39514676836E+02  0.51100000000E-03 0. -1.
        -11    1    3    3    0    0 -0.35027887740E+01 -0.18954787160E+01 -0.49174098682E+01  0.63279766776E+01  0.51100000000E-03 0.  1.
        -12    1    3    3    0    0 -0.24649556018E+01  0.32503292619E+02  0.29799743806E+02  0.44165198608E+02  0.00000000000E+00 0.  1.
</event>
<event>
 7    1  0.1999542E-015  0.9000774E+02  0.7816164E-02  0.1186339E+00
        -11   -1    0    0    0    0  0.00000000000E+00  0.00000000000E+00  0.45593999997E+02  0.45594000000E+02  0.51100000000E-03 0.  1.
         11   -1    0    0    0    0 -0.00000000000E+00 -0.00000000000E+00 -0.45593999997E+02  0.45594000000E+02  0.51100000000E-03 0. -1.
    9900012    2    1    2    0    0  0.20697710354E-01 -0.11515423693E+00  0.11744470201E+01  0.90007739564E+02  0.90000000926E+02 0.  0.
         12    1    1    2    0    0 -0.20697710354E-01  0.11515423693E+00 -0.11744470201E+01  0.11802604359E+01  0.00000000000E+00 0. -1.
         11    1    3    3    0    0  0.28301667581E+02  0.12782658904E+02 -0.19446080466E+02  0.36640562254E+02  0.51100000000E-03 0. -1.
        -11    1    3    3    0    0  0.68096696701E+01 -0.10830079892E+02  0.36703828092E+00  0.12798318204E+02  0.51100000000E-03 0.  1.
        -12    1    3    3    0    0 -0.35090639541E+02 -0.20677332495E+01  0.20253489206E+02  0.40568859106E+02  0.00000000000E+00 0.  1.
</event>
<event>
 7    1  0.1999542E-015  0.9000780E+02  0.7816164E-02  0.1186339E+00
        -11   -1    0    0    0    0  0.00000000000E+00  0.00000000000E+00  0.45593999997E+02  0.45594000000E+02  0.51100000000E-03 0.  1.
         11   -1    0    0    0    0 -0.00000000000E+00 -0.00000000000E+00 -0.45593999997E+02  0.45594000000E+02  0.51100000000E-03 0. -1.
    9900012    2    1    2    0    0 -0.36734429710E+00  0.78064842645E+00  0.80530927873E+00  0.90007797970E+02  0.90000060103E+02 0.  0.
         12    1    1    2    0    0  0.36734429710E+00 -0.78064842645E+00 -0.80530927873E+00  0.11802020305E+01  0.00000000000E+00 0. -1.
         11    1    3    3    0    0 -0.56806261043E+01 -0.79765922459E+01  0.44780500923E+01  0.10767937114E+02  0.51100000000E-03 0. -1.
        -11    1    3    3    0    0 -0.72434246216E+01  0.23154284996E+02  0.31172928367E+02  0.39501133872E+02  0.51100000000E-03 0.  1.
         12    1    3    3    0    0  0.12556706429E+02 -0.14397044324E+02 -0.34845669181E+02  0.39738726984E+02  0.00000000000E+00 0. -1.
</event>
<event>
 7    1  0.1999542E-015  0.9000774E+02  0.7816164E-02  0.1186339E+00
        -11   -1    0    0    0    0  0.00000000000E+00  0.00000000000E+00  0.45593999997E+02  0.45594000000E+02  0.51100000000E-03 0.  1.
         11   -1    0    0    0    0 -0.00000000000E+00 -0.00000000000E+00 -0.45593999997E+02  0.45594000000E+02  0.51100000000E-03 0. -1.
    9900012    2    1    2    0    0  0.64161472385E+00 -0.94405094001E+00  0.30019065771E+00  0.90007738986E+02  0.90000000340E+02 0.  0.
         12    1    1    2    0    0 -0.64161472385E+00  0.94405094001E+00 -0.30019065771E+00  0.11802610144E+01  0.00000000000E+00 0. -1.
         11    1    3    3    0    0  0.52343506113E+01  0.44568843603E+01  0.87802414674E+01  0.11151452148E+02  0.51100000000E-03 0. -1.
        -11    1    3    3    0    0 -0.11668484329E+02  0.25449750984E+02  0.21469120983E+02  0.35281248670E+02  0.51100000000E-03 0.  1.
         12    1    3    3    0    0  0.70757484414E+01 -0.30850686285E+02 -0.29949171792E+02  0.43575038167E+02  0.00000000000E+00 0. -1.
</event>
<event>
 7    1  0.1999542E-015  0.9000770E+02  0.7816164E-02  0.1186339E+00
        -11   -1    0    0    0    0  0.00000000000E+00  0.00000000000E+00  0.45593999997E+02  0.45594000000E+02  0.51100000000E-03 0.  1.
         11   -1    0    0    0    0 -0.00000000000E+00 -0.00000000000E+00 -0.45593999997E+02  0.45594000000E+02  0.51100000000E-03 0. -1.
    9900012    2    1    2    0    0 -0.10270561573E+01 -0.44056206860E+00  0.37970550147E+00  0.90007696838E+02  0.89999957636E+02 0.  0.
         12    1    1    2    0    0  0.10270561573E+01  0.44056206860E+00 -0.37970550147E+00  0.11803031621E+01  0.00000000000E+00 0. -1.
         11    1    3    3    0    0  0.59621305099E+01 -0.58489867099E+01 -0.38587561031E+01  0.92004154620E+01  0.51100000000E-03 0. -1.
        -11    1    3    3    0    0  0.18096875228E+02 -0.31306320891E+02  0.35615066475E+01  0.36335477850E+02  0.51100000000E-03 0.  1.
         12    1    3    3    0    0 -0.25086061895E+02  0.36714745532E+02  0.67695495700E+00  0.44471803526E+02  0.00000000000E+00 0. -1.
</event>
<event>
 7    1  0.1999542E-015  0.9000770E+02  0.7816164E-02  0.1186339E+00
        -11   -1    0    0    0    0  0.00000000000E+00  0.00000000000E+00  0.45593999997E+02  0.45594000000E+02  0.51100000000E-03 0.  1.
         11   -1    0    0    0    0 -0.00000000000E+00 -0.00000000000E+00 -0.45593999997E+02  0.45594000000E+02  0.51100000000E-03 0. -1.
    9900012    2    1    2    0    0  0.66666751893E+00  0.70414961328E+00  0.67292565568E+00  0.90007702920E+02  0.89999963799E+02 0.  0.
         12    1    1    2    0    0 -0.66666751893E+00 -0.70414961328E+00 -0.67292565568E+00  0.11802970799E+01  0.00000000000E+00 0. -1.
         11    1    3    3    0    0 -0.79817787459E+00 -0.77998033075E+01 -0.13296805439E+01  0.79524883002E+01  0.51100000000E-03 0. -1.
        -11    1    3    3    0    0  0.26802094515E+02  0.15171372715E+02  0.30499668567E+02  0.43344579862E+02  0.51100000000E-03 0.  1.
         12    1    3    3    0    0 -0.25337249121E+02 -0.66674197940E+01 -0.28497062368E+02  0.38710634758E+02  0.00000000000E+00 0. -1.
</event>
<event>
 7    1  0.1999542E-015  0.9000772E+02  0.7816164E-02  0.1186339E+00
        -11   -1    0    0    0    0  0.00000000000E+00  0.00000000000E+00  0.45593999997E+02  0.45594000000E+02  0.51100000000E-03 0. -1.
         11   -1    0    0    0    0 -0.00000000000E+00 -0.00000000000E+00 -0.45593999997E+02  0.45594000000E+02  0.51100000000E-03 0.  1.
    9900012    2    1    2    0    0 -0.80117837804E+00 -0.18286922538E+00 -0.84718841054E+00  0.90007722003E+02  0.89999983134E+02 0.  0.
         12    1    1    2    0    0  0.80117837804E+00  0.18286922538E+00  0.84718841054E+00  0.11802779969E+01  0.00000000000E+00 0. -1.
         11    1    3    3    0    0  0.35305532046E+01 -0.36101247354E+01  0.61409469518E+01  0.79504110750E+01  0.51100000000E-03 0. -1.
        -11    1    3    3    0    0 -0.40173928574E+02 -0.75831701845E+01  0.80331320403E+01  0.41665095917E+02  0.51100000000E-03 0.  1.
         12    1    3    3    0    0  0.35842196991E+02  0.11010425695E+02 -0.15021267403E+02  0.40392215011E+02  0.00000000000E+00 0. -1.
</event>
<event>
 7    1  0.2271959E-015  0.9000769E+02  0.7816164E-02  0.1186339E+00
        -11   -1    0    0    0    0  0.00000000000E+00  0.00000000000E+00  0.45593999997E+02  0.45594000000E+02  0.51100000000E-03 0.  1.
         11   -1    0    0    0    0 -0.00000000000E+00 -0.00000000000E+00 -0.45593999997E+02  0.45594000000E+02  0.51100000000E-03 0. -1.
    9900012    2    1    2    0    0 -0.55035239653E+00  0.10441445092E+01  0.18702019507E-02  0.90007691136E+02  0.89999951859E+02 0.  0.
         12    1    1    2    0    0  0.55035239653E+00 -0.10441445092E+01 -0.18702019507E-02  0.11803088639E+01  0.00000000000E+00 0. -1.
         11    1    3    3    0    0  0.33033420352E+02 -0.19251324368E+02  0.94470001143E+01  0.39383577307E+02  0.51100000000E-03 0. -1.
        -11    1    3    3    0    0  0.44294935549E+01  0.88545753563E+01 -0.39854250752E+00  0.99087211225E+01  0.51100000000E-03 0.  1.
        -12    1    3    3    0    0 -0.38013266303E+02  0.11440893521E+02 -0.90465874048E+01  0.40715392707E+02  0.00000000000E+00 0.  1.
</event>
<event>
 7    1  0.1999542E-015  0.9000771E+02  0.7816164E-02  0.1186339E+00
        -11   -1    0    0    0    0  0.00000000000E+00  0.00000000000E+00  0.45593999997E+02  0.45594000000E+02  0.51100000000E-03 0. -1.
         11   -1    0    0    0    0 -0.00000000000E+00 -0.00000000000E+00 -0.45593999997E+02  0.45594000000E+02  0.51100000000E-03 0.  1.
    9900012    2    1    2    0    0 -0.87476466585E+00  0.76309670532E+00  0.21345443087E+00  0.90007706563E+02  0.89999967490E+02 0.  0.
         12    1    1    2    0    0  0.87476466585E+00 -0.76309670532E+00 -0.21345443087E+00  0.11802934365E+01  0.00000000000E+00 0. -1.
         11    1    3    3    0    0  0.29171329447E+02  0.15722793530E+02  0.15818594191E+02  0.36720574894E+02  0.51100000000E-03 0. -1.
        -11    1    3    3    0    0  0.80158821602E+00  0.67669277771E+01 -0.13943605762E+02  0.15519600418E+02  0.51100000000E-03 0.  1.
        -12    1    3    3    0    0 -0.30847682328E+02 -0.21726624602E+02 -0.16615339982E+01  0.37767531252E+02  0.00000000000E+00 0.  1.
</event>
<event>
 7    1  0.1999542E-015  0.9000773E+02  0.7816164E-02  0.1186339E+00
        -11   -1    0    0    0    0  0.00000000000E+00  0.00000000000E+00  0.45593999997E+02  0.45594000000E+02  0.51100000000E-03 0.  1.
         11   -1    0    0    0    0 -0.00000000000E+00 -0.00000000000E+00 -0.45593999997E+02  0.45594000000E+02  0.51100000000E-03 0. -1.
    9900012    2    1    2    0    0 -0.98888439928E-01 -0.94310480116E+00 -0.70271943454E+00  0.90007728763E+02  0.89999989983E+02 0.  0.
         12    1    1    2    0    0  0.98888439928E-01  0.94310480116E+00  0.70271943454E+00  0.11802712371E+01  0.00000000000E+00 0. -1.
         11    1    3    3    0    0  0.77017619774E+01  0.15290736220E+02 -0.36386458623E+02  0.40213158581E+02  0.51100000000E-03 0. -1.
        -11    1    3    3    0    0 -0.29094931494E+01 -0.73061486018E+01 -0.40021026794E+01  0.88239324508E+01  0.51100000000E-03 0.  1.
        -12    1    3    3    0    0 -0.48911572679E+01 -0.89276924193E+01  0.39685841868E+02  0.40970637731E+02  0.00000000000E+00 0.  1.
</event>
<event>
 7    1  0.1999542E-015  0.9000773E+02  0.7816164E-02  0.1186339E+00
        -11   -1    0    0    0    0  0.00000000000E+00  0.00000000000E+00  0.45593999997E+02  0.45594000000E+02  0.51100000000E-03 0.  1.
         11   -1    0    0    0    0 -0.00000000000E+00 -0.00000000000E+00 -0.45593999997E+02  0.45594000000E+02  0.51100000000E-03 0. -1.
    9900012    2    1    2    0    0  0.36355527230E+00  0.35908325529E+00  0.10639178885E+01  0.90007731177E+02  0.89999992429E+02 0.  0.
         12    1    1    2    0    0 -0.36355527230E+00 -0.35908325529E+00 -0.10639178885E+01  0.11802688227E+01  0.00000000000E+00 0. -1.
         11    1    3    3    0    0 -0.85593906496E+01  0.37587178373E+01  0.17869430206E+01  0.95175781422E+01  0.51100000000E-03 0. -1.
        -11    1    3    3    0    0 -0.16718951321E+02  0.27193709618E+02  0.17727557950E+02  0.36514209388E+02  0.51100000000E-03 0.  1.
         12    1    3    3    0    0  0.25641897243E+02 -0.30593344200E+02 -0.18450583083E+02  0.43975943647E+02  0.00000000000E+00 0. -1.
</event>
<event>
 7    1  0.1999542E-015  0.9000768E+02  0.7816164E-02  0.1186339E+00
        -11   -1    0    0    0    0  0.00000000000E+00  0.00000000000E+00  0.45593999997E+02  0.45594000000E+02  0.51100000000E-03 0. -1.
         11   -1    0    0    0    0 -0.00000000000E+00 -0.00000000000E+00 -0.45593999997E+02  0.45594000000E+02  0.51100000000E-03 0.  1.
    9900012    2    1    2    0    0 -0.72567754917E+00  0.90992516417E+00  0.19643584680E+00  0.90007678539E+02  0.89999939096E+02 0.  0.
         12    1    1    2    0    0  0.72567754917E+00 -0.90992516417E+00 -0.19643584680E+00  0.11803214612E+01  0.00000000000E+00 0. -1.
         11    1    3    3    0    0 -0.92207359131E+01 -0.52694427102E+01 -0.25842476290E+01  0.10930111313E+02  0.51100000000E-03 0. -1.
        -11    1    3    3    0    0  0.20125987798E+01 -0.25606575294E+02 -0.25387430788E+02  0.36114663150E+02  0.51100000000E-03 0.  1.
         12    1    3    3    0    0  0.64824595842E+01  0.31785943169E+02  0.28168114264E+02  0.42962904075E+02  0.00000000000E+00 0. -1.
</event>
<event>
 7    1  0.1999542E-015  0.9000781E+02  0.7816164E-02  0.1186339E+00
        -11   -1    0    0    0    0  0.00000000000E+00  0.00000000000E+00  0.45593999997E+02  0.45594000000E+02  0.51100000000E-03 0.  1.
         11   -1    0    0    0    0 -0.00000000000E+00 -0.00000000000E+00 -0.45593999997E+02  0.45594000000E+02  0.51100000000E-03 0. -1.
    9900012    2    1    2    0    0  0.16798302117E+00  0.83398558069E+00  0.81798410042E+00  0.90007810086E+02  0.90000072379E+02 0.  0.
         12    1    1    2    0    0 -0.16798302117E+00 -0.83398558069E+00 -0.81798410042E+00  0.11801899138E+01  0.00000000000E+00 0. -1.
         11    1    3    3    0    0  0.29497740495E+01 -0.31246171699E+02 -0.19988129201E+02  0.37209538051E+02  0.51100000000E-03 0. -1.
        -11    1    3    3    0    0 -0.50712702290E+01 -0.71041981161E+01  0.70037113806E+01  0.11191040433E+02  0.51100000000E-03 0.  1.
        -12    1    3    3    0    0  0.22894792007E+01  0.39184355396E+02  0.13802401921E+02  0.41607231602E+02  0.00000000000E+00 0.  1.
</event>
<event>
 7    1  0.1999542E-015  0.9000785E+02  0.7816164E-02  0.1186339E+00
        -11   -1    0    0    0    0  0.00000000000E+00  0.00000000000E+00  0.45593999997E+02  0.45594000000E+02  0.51100000000E-03 0. -1.
         11   -1    0    0    0    0 -0.00000000000E+00 -0.00000000000E+00 -0.45593999997E+02  0.45594000000E+02  0.51100000000E-03 0.  1.
    9900012    2    1    2    0    0 -0.22293562130E+00 -0.67259169510E+00  0.94375683077E+00  0.90007848808E+02  0.90000111613E+02 0.  0.
         12    1    1    2    0    0  0.22293562130E+00  0.67259169510E+00 -0.94375683077E+00  0.11801511917E+01  0.00000000000E+00 0. -1.
         11    1    3    3    0    0  0.30829351616E+02 -0.48519663214E+00  0.19733191337E+02  0.36607146535E+02  0.51100000000E-03 0. -1.
        -11    1    3    3    0    0  0.82774338967E+00 -0.79943913704E+00  0.10225159267E+02  0.10289710606E+02  0.51100000000E-03 0.  1.
        -12    1    3    3    0    0 -0.31880030627E+02  0.61204407408E+00 -0.29014593773E+02  0.43110991668E+02  0.00000000000E+00 0.  1.
</event>
<event>
 7    1  0.1999542E-015  0.9000774E+02  0.7816164E-02  0.1186339E+00
        -11   -1    0    0    0    0  0.00000000000E+00  0.00000000000E+00  0.45593999997E+02  0.45594000000E+02  0.51100000000E-03 0.  1.
         11   -1    0    0    0    0 -0.00000000000E+00 -0.00000000000E+00 -0.45593999997E+02  0.45594000000E+02  0.51100000000E-03 0. -1.
    9900012    2    1    2    0    0  0.49822092967E+00  0.88904426158E+00  0.59530352644E+00  0.90007741519E+02  0.90000002907E+02 0.  0.
         12    1    1    2    0    0 -0.49822092967E+00 -0.88904426158E+00 -0.59530352644E+00  0.11802584812E+01  0.00000000000E+00 0. -1.
         11    1    3    3    0    0 -0.68936615971E+01  0.54916551784E+01  0.30507166313E-01  0.88137266671E+01  0.51100000000E-03 0. -1.
        -11    1    3    3    0    0 -0.27097477844E+02 -0.44899282560E+01  0.26403172472E+02  0.38099347476E+02  0.51100000000E-03 0.  1.
         12    1    3    3    0    0  0.34489360371E+02 -0.11268266076E+00 -0.25838376111E+02  0.43094667376E+02  0.00000000000E+00 0. -1.
</event>
<event>
 7    1  0.1999542E-015  0.9000774E+02  0.7816164E-02  0.1186339E+00
        -11   -1    0    0    0    0  0.00000000000E+00  0.00000000000E+00  0.45593999997E+02  0.45594000000E+02  0.51100000000E-03 0. -1.
         11   -1    0    0    0    0 -0.00000000000E+00 -0.00000000000E+00 -0.45593999997E+02  0.45594000000E+02  0.51100000000E-03 0.  1.
    9900012    2    1    2    0    0  0.57964098330E+00 -0.33674396291E+00 -0.97140455763E+00  0.90007742833E+02  0.90000004238E+02 0.  0.
         12    1    1    2    0    0 -0.57964098330E+00  0.33674396291E+00  0.97140455763E+00  0.11802571672E+01  0.00000000000E+00 0. -1.
         11    1    3    3    0    0  0.56740491558E+01  0.34130559584E+01  0.63105285746E+01  0.91469424372E+01  0.51100000000E-03 0. -1.
        -11    1    3    3    0    0  0.25989265717E+01  0.11747494378E+02 -0.41126435560E+02  0.42850224569E+02  0.51100000000E-03 0.  1.
         12    1    3    3    0    0 -0.76933347442E+01 -0.15497294299E+02  0.33844502428E+02  0.38010575827E+02  0.00000000000E+00 0. -1.
</event>
<event>
 7    1  0.1999542E-015  0.9000785E+02  0.7816164E-02  0.1186339E+00
        -11   -1    0    0    0    0  0.00000000000E+00  0.00000000000E+00  0.45593999997E+02  0.45594000000E+02  0.51100000000E-03 0.  1.
         11   -1    0    0    0    0 -0.00000000000E+00 -0.00000000000E+00 -0.45593999997E+02  0.45594000000E+02  0.51100000000E-03 0. -1.
    9900012    2    1    2    0    0  0.85052775930E+00  0.45335327094E-01  0.81688132482E+00  0.90007852611E+02  0.90000115465E+02 0.  0.
         12    1    1    2    0    0 -0.85052775930E+00 -0.45335327094E-01 -0.81688132482E+00  0.11801473891E+01  0.00000000000E+00 0. -1.
         11    1    3    3    0    0  0.76420156120E+01 -0.42168236588E+01 -0.30590579527E+01  0.92487750650E+01  0.51100000000E-03 0. -1.
        -11    1    3    3    0    0  0.20830903205E+02  0.28189039411E+02 -0.16694081605E+02  0.38823199664E+02  0.51100000000E-03 0.  1.
         12    1    3    3    0    0 -0.27622391058E+02 -0.23926880425E+02  0.20570020882E+02  0.41935877882E+02  0.00000000000E+00 0. -1.
</event>
<event>
 7    1  0.1999542E-015  0.9000768E+02  0.7816164E-02  0.1186339E+00
        -11   -1    0    0    0    0  0.00000000000E+00  0.00000000000E+00  0.45593999997E+02  0.45594000000E+02  0.51100000000E-03 0.  1.
         11   -1    0    0    0    0 -0.00000000000E+00 -0.00000000000E+00 -0.45593999997E+02  0.45594000000E+02  0.51100000000E-03 0. -1.
    9900012    2    1    2    0    0  0.78603996232E+00  0.72770603818E+00  0.49572918004E+00  0.90007677027E+02  0.89999937564E+02 0.  0.
         12    1    1    2    0    0 -0.78603996232E+00 -0.72770603818E+00 -0.49572918004E+00  0.11803229729E+01  0.00000000000E+00 0. -1.
         11    1    3    3    0    0 -0.84777128675E+01 -0.11541628184E+02 -0.41343191490E+02  0.43753174507E+02  0.51100000000E-03 0. -1.
        -11    1    3    3    0    0 -0.83565561425E+00  0.58074278064E+01  0.57061505776E+01  0.81844176767E+01  0.51100000000E-03 0.  1.
        -12    1    3    3    0    0  0.10099408444E+02  0.64619064154E+01  0.36132770092E+02  0.38070084844E+02  0.00000000000E+00 0.  1.
</event>
<event>
 7    1  0.1999542E-015  0.9000780E+02  0.7816164E-02  0.1186339E+00
        -11   -1    0    0    0    0  0.00000000000E+00  0.00000000000E+00  0.45593999997E+02  0.45594000000E+02  0.51100000000E-03 0.  1.
         11   -1    0    0    0    0 -0.00000000000E+00 -0.00000000000E+00 -0.45593999997E+02  0.45594000000E+02  0.51100000000E-03 0. -1.
    9900012    2    1    2    0    0  0.19626282681E+00 -0.64447427944E+00  0.96902313646E+00  0.90007800003E+02  0.90000062163E+02 0.  0.
         12    1    1    2    0    0 -0.19626282681E+00  0.64447427944E+00 -0.96902313646E+00  0.11801999971E+01  0.00000000000E+00 0. -1.
         11    1    3    3    0    0  0.33091674659E+02 -0.11830716943E+02 -0.86572555987E+01  0.36193547352E+02  0.51100000000E-03 0. -1.
        -11    1    3    3    0    0 -0.17171497919E+02 -0.63726677333E+01 -0.11942011570E+02  0.21865106344E+02  0.51100000000E-03 0.  1.
        -12    1    3    3    0    0 -0.15723913913E+02  0.17558910397E+02  0.21568290305E+02  0.31949146307E+02  0.00000000000E+00 0.  1.
</event>
<event>
 7    1  0.1999542E-015  0.9000760E+02  0.7816164E-02  0.1186339E+00
        -11   -1    0    0    0    0  0.00000000000E+00  0.00000000000E+00  0.45593999997E+02  0.45594000000E+02  0.51100000000E-03 0. -1.
         11   -1    0    0    0    0 -0.00000000000E+00 -0.00000000000E+00 -0.45593999997E+02  0.45594000000E+02  0.51100000000E-03 0.  1.
    9900012    2    1    2    0    0 -0.67410054114E+00 -0.73225596438E+00 -0.63461875986E+00  0.90007596973E+02  0.89999856452E+02 0.  0.
         12    1    1    2    0    0  0.67410054114E+00  0.73225596438E+00  0.63461875986E+00  0.11804030275E+01  0.00000000000E+00 0. -1.
         11    1    3    3    0    0 -0.70440932540E+01  0.18010872979E+01 -0.62988385175E+01  0.96196950137E+01  0.51100000000E-03 0. -1.
        -11    1    3    3    0    0  0.37653363752E+02  0.88312250763E+01 -0.14693201031E+02  0.41372170538E+02  0.51100000000E-03 0.  1.
         12    1    3    3    0    0 -0.31283371040E+02 -0.11364568339E+02  0.20357420789E+02  0.39015731421E+02  0.00000000000E+00 0. -1.
</event>
<event>
 7    1  0.1999542E-015  0.9000777E+02  0.7816164E-02  0.1186339E+00
        -11   -1    0    0    0    0  0.00000000000E+00  0.00000000000E+00  0.45593999997E+02  0.45594000000E+02  0.51100000000E-03 0. -1.
         11   -1    0    0    0    0 -0.00000000000E+00 -0.00000000000E+00 -0.45593999997E+02  0.45594000000E+02  0.51100000000E-03 0.  1.
    9900012    2    1    2    0    0 -0.58375817665E+00 -0.26243567821E+00 -0.99161702256E+00  0.90007766797E+02  0.90000028519E+02 0.  0.
         12    1    1    2    0    0  0.58375817665E+00  0.26243567821E+00  0.99161702256E+00  0.11802332030E+01  0.00000000000E+00 0. -1.
         11    1    3    3    0    0 -0.76481791726E+01 -0.24305429894E+02  0.20989800675E+02  0.33012426443E+02  0.51100000000E-03 0. -1.
        -11    1    3    3    0    0  0.98495695763E+01 -0.10530461478E+02  0.23738934834E+01  0.14613008257E+02  0.51100000000E-03 0.  1.
        -12    1    3    3    0    0 -0.27851485804E+01  0.34573455694E+02 -0.24355311181E+02  0.42382332097E+02  0.00000000000E+00 0.  1.
</event>
<event>
 7    1  0.1999542E-015  0.9000767E+02  0.7816164E-02  0.1186339E+00
        -11   -1    0    0    0    0  0.00000000000E+00  0.00000000000E+00  0.45593999997E+02  0.45594000000E+02  0.51100000000E-03 0.  1.
         11   -1    0    0    0    0 -0.00000000000E+00 -0.00000000000E+00 -0.45593999997E+02  0.45594000000E+02  0.51100000000E-03 0. -1.
    9900012    2    1    2    0    0  0.10002437534E+01  0.62087213259E+00 -0.84906653809E-01  0.90007669999E+02  0.89999930443E+02 0.  0.
         12    1    1    2    0    0 -0.10002437534E+01 -0.62087213259E+00  0.84906653809E-01  0.11803300010E+01  0.00000000000E+00 0. -1.
         11    1    3    3    0    0 -0.32217430382E+02 -0.19012342298E+02 -0.14877084852E+02  0.40258659119E+02  0.51100000000E-03 0. -1.
        -11    1    3    3    0    0  0.17834701027E+01 -0.57607334165E+01  0.57656108942E+01  0.83432058795E+01  0.51100000000E-03 0.  1.
        -12    1    3    3    0    0  0.31434204033E+02  0.25393947848E+02  0.90265673037E+01  0.41405805001E+02  0.00000000000E+00 0.  1.
</event>
<event>
 7    1  0.1999542E-015  0.9000779E+02  0.7816164E-02  0.1186339E+00
        -11   -1    0    0    0    0  0.00000000000E+00  0.00000000000E+00  0.45593999997E+02  0.45594000000E+02  0.51100000000E-03 0.  1.
         11   -1    0    0    0    0 -0.00000000000E+00 -0.00000000000E+00 -0.45593999997E+02  0.45594000000E+02  0.51100000000E-03 0. -1.
    9900012    2    1    2    0    0 -0.98410633685E+00 -0.54580266003E+00 -0.35572590990E+00  0.90007785295E+02  0.90000047261E+02 0.  0.
         12    1    1    2    0    0  0.98410633685E+00  0.54580266003E+00  0.35572590990E+00  0.11802147046E+01  0.00000000000E+00 0. -1.
         11    1    3    3    0    0  0.23605339969E+01  0.56270629155E+01 -0.63168587990E+01  0.87828619000E+01  0.51100000000E-03 0. -1.
        -11    1    3    3    0    0  0.31073569108E+02  0.80410669508E+01  0.23777127877E+02  0.39944677557E+02  0.51100000000E-03 0.  1.
         12    1    3    3    0    0 -0.34418209442E+02 -0.14213932526E+02 -0.17815994988E+02  0.41280245838E+02  0.00000000000E+00 0. -1.
</event>
<event>
 7    1  0.1999542E-015  0.9000779E+02  0.7816164E-02  0.1186339E+00
        -11   -1    0    0    0    0  0.00000000000E+00  0.00000000000E+00  0.45593999997E+02  0.45594000000E+02  0.51100000000E-03 0. -1.
         11   -1    0    0    0    0 -0.00000000000E+00 -0.00000000000E+00 -0.45593999997E+02  0.45594000000E+02  0.51100000000E-03 0.  1.
    9900012    2    1    2    0    0  0.41511830658E+00  0.36506559667E+00  0.10427379913E+01  0.90007788741E+02  0.90000050752E+02 0.  0.
         12    1    1    2    0    0 -0.41511830658E+00 -0.36506559667E+00 -0.10427379913E+01  0.11802112594E+01  0.00000000000E+00 0. -1.
         11    1    3    3    0    0 -0.21521965425E+02 -0.14193254442E+02  0.11031374437E+02  0.28041659894E+02  0.51100000000E-03 0. -1.
        -11    1    3    3    0    0  0.11489609288E+02 -0.20638254830E+02 -0.88800534296E+01  0.25234976386E+02  0.51100000000E-03 0.  1.
         12    1    3    3    0    0  0.10447474444E+02  0.35196574869E+02 -0.11085830159E+01  0.36731152460E+02  0.00000000000E+00 0. -1.
</event>
<event>
 7    1  0.1999542E-015  0.9000785E+02  0.7816164E-02  0.1186339E+00
        -11   -1    0    0    0    0  0.00000000000E+00  0.00000000000E+00  0.45593999997E+02  0.45594000000E+02  0.51100000000E-03 0.  1.
         11   -1    0    0    0    0 -0.00000000000E+00 -0.00000000000E+00 -0.45593999997E+02  0.45594000000E+02  0.51100000000E-03 0. -1.
    9900012    2    1    2    0    0 -0.71141145246E+00  0.11409166822E+00  0.93468737395E+00  0.90007845921E+02  0.90000108687E+02 0.  0.
         12    1    1    2    0    0  0.71141145246E+00 -0.11409166822E+00 -0.93468737395E+00  0.11801540791E+01  0.00000000000E+00 0. -1.
         11    1    3    3    0    0  0.35757459048E+02  0.12923215685E+02 -0.85429956638E+01  0.38969066660E+02  0.51100000000E-03 0. -1.
        -11    1    3    3    0    0 -0.45276324356E+00  0.62740960700E+01 -0.47340716387E+01  0.78727829001E+01  0.51100000000E-03 0.  1.
        -12    1    3    3    0    0 -0.36016107257E+02 -0.19083220087E+02  0.14211754676E+02  0.43165996360E+02  0.00000000000E+00 0.  1.
</event>
<event>
 7    1  0.1999542E-015  0.9000765E+02  0.7816164E-02  0.1186339E+00
        -11   -1    0    0    0    0  0.00000000000E+00  0.00000000000E+00  0.45593999997E+02  0.45594000000E+02  0.51100000000E-03 0. -1.
         11   -1    0    0    0    0 -0.00000000000E+00 -0.00000000000E+00 -0.45593999997E+02  0.45594000000E+02  0.51100000000E-03 0.  1.
    9900012    2    1    2    0    0 -0.10573515468E+01  0.52390762222E+00 -0.27511992388E-01  0.90007649035E+02  0.89999909203E+02 0.  0.
         12    1    1    2    0    0  0.10573515468E+01 -0.52390762222E+00  0.27511992388E-01  0.11803509647E+01  0.00000000000E+00 0. -1.
         11    1    3    3    0    0  0.11945258873E+02  0.32265001596E+02  0.11761257722E+02  0.36359960410E+02  0.51100000000E-03 0. -1.
        -11    1    3    3    0    0  0.66418630940E+01  0.24254487917E+01  0.70326330590E+01  0.99727165409E+01  0.51100000000E-03 0.  1.
        -12    1    3    3    0    0 -0.19644473514E+02 -0.34166542766E+02 -0.18821402774E+02  0.43674972084E+02  0.00000000000E+00 0.  1.
</event>
<event>
 7    1  0.1999542E-015  0.9000656E+02  0.7816164E-02  0.1186341E+00
        -11   -1    0    0    0    0  0.00000000000E+00  0.00000000000E+00  0.45593999997E+02  0.45594000000E+02  0.51100000000E-03 0. -1.
         11   -1    0    0    0    0 -0.00000000000E+00 -0.00000000000E+00 -0.45593999997E+02  0.45594000000E+02  0.51100000000E-03 0.  1.
    9900012    2    1    2    0    0  0.65095203082E+00  0.18436852091E+00 -0.96854293654E+00  0.90006557781E+02  0.89998803535E+02 0.  0.
         12    1    1    2    0    0 -0.65095203082E+00 -0.18436852091E+00  0.96854293654E+00  0.11814422194E+01  0.00000000000E+00 0. -1.
         11    1    3    3    0    0  0.28888501683E+02  0.22472079343E+02  0.11218832808E+02  0.38280570650E+02  0.51100000000E-03 0. -1.
        -11    1    3    3    0    0  0.44427693356E+00  0.79643956244E+01 -0.50255516108E+01  0.94278920714E+01  0.51100000000E-03 0.  1.
        -12    1    3    3    0    0 -0.28681826586E+02 -0.30252106446E+02 -0.71618241334E+01  0.42298095059E+02  0.00000000000E+00 0.  1.
</event>
<event>
 7    1  0.1999542E-015  0.9000807E+02  0.7816164E-02  0.1186338E+00
        -11   -1    0    0    0    0  0.00000000000E+00  0.00000000000E+00  0.45593999997E+02  0.45594000000E+02  0.51100000000E-03 0.  1.
         11   -1    0    0    0    0 -0.00000000000E+00 -0.00000000000E+00 -0.45593999997E+02  0.45594000000E+02  0.51100000000E-03 0. -1.
    9900012    2    1    2    0    0  0.55873148494E+00  0.17889060878E+00  0.10237419972E+01  0.90008071867E+02  0.90000337615E+02 0.  0.
         12    1    1    2    0    0 -0.55873148494E+00 -0.17889060878E+00 -0.10237419972E+01  0.11799281330E+01  0.00000000000E+00 0. -1.
         11    1    3    3    0    0 -0.24084012166E+02 -0.17089997031E+02 -0.23717702686E+02  0.37876603088E+02  0.51100000000E-03 0. -1.
        -11    1    3    3    0    0 -0.44928332673E+01  0.63266704097E+01 -0.48793835612E+01  0.91662802401E+01  0.51100000000E-03 0.  1.
        -12    1    3    3    0    0  0.29135576918E+02  0.10942217230E+02  0.29620828244E+02  0.42965188539E+02  0.00000000000E+00 0.  1.
</event>
<event>
 7    1  0.1999542E-015  0.9000770E+02  0.7816164E-02  0.1186339E+00
        -11   -1    0    0    0    0  0.00000000000E+00  0.00000000000E+00  0.45593999997E+02  0.45594000000E+02  0.51100000000E-03 0.  1.
         11   -1    0    0    0    0 -0.00000000000E+00 -0.00000000000E+00 -0.45593999997E+02  0.45594000000E+02  0.51100000000E-03 0. -1.
    9900012    2    1    2    0    0  0.60622256394E+00 -0.11086199815E+00  0.10066393005E+01  0.90007695437E+02  0.89999956217E+02 0.  0.
         12    1    1    2    0    0 -0.60622256394E+00  0.11086199815E+00 -0.10066393005E+01  0.11803045628E+01  0.00000000000E+00 0. -1.
         11    1    3    3    0    0  0.83194149295E+01 -0.42089051290E+01 -0.36136822523E+01  0.99993123182E+01  0.51100000000E-03 0. -1.
        -11    1    3    3    0    0  0.80607046153E+01 -0.30977618655E+02  0.20918335469E+02  0.38238260623E+02  0.51100000000E-03 0.  1.
         12    1    3    3    0    0 -0.15773896981E+02  0.35075661786E+02 -0.16298013916E+02  0.41770122496E+02  0.00000000000E+00 0. -1.
</event>
<event>
 7    1  0.1999542E-015  0.9000775E+02  0.7816164E-02  0.1186339E+00
        -11   -1    0    0    0    0  0.00000000000E+00  0.00000000000E+00  0.45593999997E+02  0.45594000000E+02  0.51100000000E-03 0. -1.
         11   -1    0    0    0    0 -0.00000000000E+00 -0.00000000000E+00 -0.45593999997E+02  0.45594000000E+02  0.51100000000E-03 0.  1.
    9900012    2    1    2    0    0  0.77975658682E+00  0.85064610977E+00 -0.24775337038E+00  0.90007745421E+02  0.90000006861E+02 0.  0.
         12    1    1    2    0    0 -0.77975658682E+00 -0.85064610977E+00  0.24775337038E+00  0.11802545790E+01  0.00000000000E+00 0. -1.
         11    1    3    3    0    0  0.19681578182E+02 -0.33032968448E+02 -0.18988176590E+01  0.38498662742E+02  0.51100000000E-03 0. -1.
        -11    1    3    3    0    0 -0.86784509296E+01 -0.46704575185E+01 -0.50333977660E+01  0.11066335315E+02  0.51100000000E-03 0.  1.
        -12    1    3    3    0    0 -0.10223370665E+02  0.38554072076E+02  0.66844620547E+01  0.40442747364E+02  0.00000000000E+00 0.  1.
</event>
<event>
 7    1  0.1999542E-015  0.9000773E+02  0.7816164E-02  0.1186339E+00
        -11   -1    0    0    0    0  0.00000000000E+00  0.00000000000E+00  0.45593999997E+02  0.45594000000E+02  0.51100000000E-03 0. -1.
         11   -1    0    0    0    0 -0.00000000000E+00 -0.00000000000E+00 -0.45593999997E+02  0.45594000000E+02  0.51100000000E-03 0.  1.
    9900012    2    1    2    0    0  0.49754038038E+00 -0.10613600432E+01 -0.13788960553E+00  0.90007726678E+02  0.89999987870E+02 0.  0.
         12    1    1    2    0    0 -0.49754038038E+00  0.10613600432E+01  0.13788960553E+00  0.11802733220E+01  0.00000000000E+00 0. -1.
         11    1    3    3    0    0  0.11172536935E+01  0.29463909026E+00  0.90579079592E+01  0.91313068543E+01  0.51100000000E-03 0. -1.
        -11    1    3    3    0    0  0.19981392444E+02 -0.35073053344E+02 -0.26164464252E+00  0.40366366855E+02  0.51100000000E-03 0.  1.
         12    1    3    3    0    0 -0.20601105757E+02  0.33717054211E+02 -0.89341529222E+01  0.40510052969E+02  0.00000000000E+00 0. -1.
</event>
<event>
 7    1  0.1999542E-015  0.9000766E+02  0.7816164E-02  0.1186339E+00
        -11   -1    0    0    0    0  0.00000000000E+00  0.00000000000E+00  0.45593999997E+02  0.45594000000E+02  0.51100000000E-03 0.  1.
         11   -1    0    0    0    0 -0.00000000000E+00 -0.00000000000E+00 -0.45593999997E+02  0.45594000000E+02  0.51100000000E-03 0. -1.
    9900012    2    1    2    0    0  0.40325831449E+00  0.19768881189E-01  0.11091392155E+01  0.90007661965E+02  0.89999922303E+02 0.  0.
         12    1    1    2    0    0 -0.40325831449E+00 -0.19768881189E-01 -0.11091392155E+01  0.11803380347E+01  0.00000000000E+00 0. -1.
         11    1    3    3    0    0 -0.46913258589E+01  0.21546737126E+02 -0.30141494139E+02  0.37346754722E+02  0.51100000000E-03 0. -1.
        -11    1    3    3    0    0  0.95570802817E+01 -0.27006532794E+00 -0.47035787701E+01  0.10655250926E+02  0.51100000000E-03 0.  1.
        -12    1    3    3    0    0 -0.44624961084E+01 -0.21256902917E+02  0.35954212124E+02  0.42005656317E+02  0.00000000000E+00 0.  1.
</event>
<event>
 7    1  0.1999542E-015  0.9000775E+02  0.7816164E-02  0.1186339E+00
        -11   -1    0    0    0    0  0.00000000000E+00  0.00000000000E+00  0.45593999997E+02  0.45594000000E+02  0.51100000000E-03 0. -1.
         11   -1    0    0    0    0 -0.00000000000E+00 -0.00000000000E+00 -0.45593999997E+02  0.45594000000E+02  0.51100000000E-03 0.  1.
    9900012    2    1    2    0    0 -0.13515886061E+00  0.54863529370E+00 -0.10362037772E+01  0.90007751352E+02  0.90000012870E+02 0.  0.
         12    1    1    2    0    0  0.13515886061E+00 -0.54863529370E+00  0.10362037772E+01  0.11802486480E+01  0.00000000000E+00 0. -1.
         11    1    3    3    0    0  0.75161323887E+01 -0.40613856610E+01  0.40996116482E+01  0.94759651487E+01  0.51100000000E-03 0. -1.
        -11    1    3    3    0    0 -0.23711002003E+01 -0.36482638340E+02 -0.12121031133E+02  0.38516547255E+02  0.51100000000E-03 0.  1.
         12    1    3    3    0    0 -0.52801910490E+01  0.41092659295E+02  0.69852157071E+01  0.42015238949E+02  0.00000000000E+00 0. -1.
</event>
<event>
 7    1  0.1999542E-015  0.9000768E+02  0.7816164E-02  0.1186339E+00
        -11   -1    0    0    0    0  0.00000000000E+00  0.00000000000E+00  0.45593999997E+02  0.45594000000E+02  0.51100000000E-03 0. -1.
         11   -1    0    0    0    0 -0.00000000000E+00 -0.00000000000E+00 -0.45593999997E+02  0.45594000000E+02  0.51100000000E-03 0.  1.
    9900012    2    1    2    0    0 -0.44043289788E+00  0.10372984146E+01  0.35096907153E+00  0.90007682912E+02  0.89999943527E+02 0.  0.
         12    1    1    2    0    0  0.44043289788E+00 -0.10372984146E+01 -0.35096907153E+00  0.11803170877E+01  0.00000000000E+00 0. -1.
         11    1    3    3    0    0 -0.99605710113E+01  0.20764914886E+02 -0.22301479080E+01  0.23138025522E+02  0.51100000000E-03 0. -1.
        -11    1    3    3    0    0  0.24131996383E+01  0.21421465685E+02 -0.92649190631E+01  0.23463619714E+02  0.51100000000E-03 0.  1.
        -12    1    3    3    0    0  0.71069384752E+01 -0.41149082157E+02  0.11846036043E+02  0.43406037676E+02  0.00000000000E+00 0.  1.
</event>
<event>
 7    1  0.1999542E-015  0.9000789E+02  0.7816164E-02  0.1186339E+00
        -11   -1    0    0    0    0  0.00000000000E+00  0.00000000000E+00  0.45593999997E+02  0.45594000000E+02  0.51100000000E-03 0.  1.
         11   -1    0    0    0    0 -0.00000000000E+00 -0.00000000000E+00 -0.45593999997E+02  0.45594000000E+02  0.51100000000E-03 0. -1.
    9900012    2    1    2    0    0  0.95350182861E+00 -0.41362703713E+00  0.55894222907E+00  0.90007885820E+02  0.90000149112E+02 0.  0.
         12    1    1    2    0    0 -0.95350182861E+00  0.41362703713E+00 -0.55894222907E+00  0.11801141803E+01  0.00000000000E+00 0. -1.
         11    1    3    3    0    0 -0.11572779354E+01  0.93598228140E+01 -0.11486413211E+01  0.95007869398E+01  0.51100000000E-03 0. -1.
        -11    1    3    3    0    0 -0.19510817109E+02  0.45491447923E+01  0.33771781682E+02  0.39267033767E+02  0.51100000000E-03 0.  1.
         12    1    3    3    0    0  0.21621596873E+02 -0.14322594643E+02 -0.32064198132E+02  0.41240065113E+02  0.00000000000E+00 0. -1.
</event>
<event>
 7    1  0.1999542E-015  0.9000772E+02  0.7816164E-02  0.1186339E+00
        -11   -1    0    0    0    0  0.00000000000E+00  0.00000000000E+00  0.45593999997E+02  0.45594000000E+02  0.51100000000E-03 0.  1.
         11   -1    0    0    0    0 -0.00000000000E+00 -0.00000000000E+00 -0.45593999997E+02  0.45594000000E+02  0.51100000000E-03 0. -1.
    9900012    2    1    2    0    0  0.53601141811E+00  0.11826610222E+00  0.10448798091E+01  0.90007716591E+02  0.89999977649E+02 0.  0.
         12    1    1    2    0    0 -0.53601141811E+00 -0.11826610222E+00 -0.10448798091E+01  0.11802834095E+01  0.00000000000E+00 0. -1.
         11    1    3    3    0    0  0.78861429658E+01 -0.40683851093E+01  0.44157045460E+01  0.99116827619E+01  0.51100000000E-03 0. -1.
        -11    1    3    3    0    0 -0.16086336583E+02  0.33860585477E+02  0.18897438413E+02  0.41981217852E+02  0.51100000000E-03 0.  1.
         12    1    3    3    0    0  0.87362050358E+01 -0.29673934265E+02 -0.22268263150E+02  0.38114815977E+02  0.00000000000E+00 0. -1.
</event>
<event>
 7    1  0.1999542E-015  0.9000777E+02  0.7816164E-02  0.1186339E+00
        -11   -1    0    0    0    0  0.00000000000E+00  0.00000000000E+00  0.45593999997E+02  0.45594000000E+02  0.51100000000E-03 0.  1.
         11   -1    0    0    0    0 -0.00000000000E+00 -0.00000000000E+00 -0.45593999997E+02  0.45594000000E+02  0.51100000000E-03 0. -1.
    9900012    2    1    2    0    0  0.97897357949E+00  0.62808956652E+00  0.20017173076E+00  0.90007765068E+02  0.90000026767E+02 0.  0.
         12    1    1    2    0    0 -0.97897357949E+00 -0.62808956652E+00 -0.20017173076E+00  0.11802349320E+01  0.00000000000E+00 0. -1.
         11    1    3    3    0    0  0.10082811178E+02 -0.29601446086E+01  0.36909032808E+01  0.11137697457E+02  0.51100000000E-03 0. -1.
        -11    1    3    3    0    0  0.19825428617E+02  0.25419279628E+01  0.29084781485E+02  0.35290700360E+02  0.51100000000E-03 0.  1.
         12    1    3    3    0    0 -0.28929266215E+02  0.10463062123E+01 -0.32575513035E+02  0.43579367251E+02  0.00000000000E+00 0. -1.
</event>
<event>
 7    1  0.1999542E-015  0.9000770E+02  0.7816164E-02  0.1186339E+00
        -11   -1    0    0    0    0  0.00000000000E+00  0.00000000000E+00  0.45593999997E+02  0.45594000000E+02  0.51100000000E-03 0. -1.
         11   -1    0    0    0    0 -0.00000000000E+00 -0.00000000000E+00 -0.45593999997E+02  0.45594000000E+02  0.51100000000E-03 0.  1.
    9900012    2    1    2    0    0  0.10825156830E+01  0.30664720972E+00  0.35670390018E+00  0.90007699027E+02  0.89999959854E+02 0.  0.
         12    1    1    2    0    0 -0.10825156830E+01 -0.30664720972E+00 -0.35670390018E+00  0.11803009733E+01  0.00000000000E+00 0. -1.
         11    1    3    3    0    0 -0.16093634025E+02 -0.54342519725E+00  0.28648972052E+02  0.32864326663E+02  0.51100000000E-03 0. -1.
        -11    1    3    3    0    0 -0.20814333658E+01 -0.66080484892E+01  0.10858150867E+02  0.12880144029E+02  0.51100000000E-03 0.  1.
        -12    1    3    3    0    0  0.19257583074E+02  0.74581208962E+01 -0.39150419020E+02  0.44263228334E+02  0.00000000000E+00 0.  1.
</event>
<event>
 7    1  0.1999542E-015  0.9000762E+02  0.7816164E-02  0.1186339E+00
        -11   -1    0    0    0    0  0.00000000000E+00  0.00000000000E+00  0.45593999997E+02  0.45594000000E+02  0.51100000000E-03 0.  1.
         11   -1    0    0    0    0 -0.00000000000E+00 -0.00000000000E+00 -0.45593999997E+02  0.45594000000E+02  0.51100000000E-03 0. -1.
    9900012    2    1    2    0    0  0.70372403082E+00 -0.71710247525E+00 -0.61954473621E+00  0.90007619065E+02  0.89999878837E+02 0.  0.
         12    1    1    2    0    0 -0.70372403082E+00  0.71710247525E+00  0.61954473621E+00  0.11803809350E+01  0.00000000000E+00 0. -1.
         11    1    3    3    0    0 -0.83429801737E+00 -0.74638364682E+01 -0.12803149666E+01  0.76186688261E+01  0.51100000000E-03 0. -1.
        -11    1    3    3    0    0  0.34120956241E+02  0.19811889929E+01  0.24228180173E+02  0.41894742861E+02  0.51100000000E-03 0.  1.
         12    1    3    3    0    0 -0.32582934193E+02  0.47655450001E+01 -0.23567409943E+02  0.40494207378E+02  0.00000000000E+00 0. -1.
</event>
<event>
 7    1  0.1999542E-015  0.9000761E+02  0.7816164E-02  0.1186339E+00
        -11   -1    0    0    0    0  0.00000000000E+00  0.00000000000E+00  0.45593999997E+02  0.45594000000E+02  0.51100000000E-03 0. -1.
         11   -1    0    0    0    0 -0.00000000000E+00 -0.00000000000E+00 -0.45593999997E+02  0.45594000000E+02  0.51100000000E-03 0.  1.
    9900012    2    1    2    0    0  0.57077565155E+00  0.43278115033E+00 -0.93820484725E+00  0.90007613324E+02  0.89999873020E+02 0.  0.
         12    1    1    2    0    0 -0.57077565155E+00 -0.43278115033E+00  0.93820484725E+00  0.11803866756E+01  0.00000000000E+00 0. -1.
         11    1    3    3    0    0 -0.95641502072E+01  0.26101886409E+01  0.32372219707E+01  0.10429077633E+02  0.51100000000E-03 0. -1.
        -11    1    3    3    0    0 -0.92798664842E+01 -0.34272408695E+02  0.13660483960E+02  0.38043695168E+02  0.51100000000E-03 0.  1.
         12    1    3    3    0    0  0.19414792343E+02  0.32095001204E+02 -0.17835910778E+02  0.41534840524E+02  0.00000000000E+00 0. -1.
</event>
<event>
 7    1  0.1999542E-015  0.9000802E+02  0.7816164E-02  0.1186338E+00
        -11   -1    0    0    0    0  0.00000000000E+00  0.00000000000E+00  0.45593999997E+02  0.45594000000E+02  0.51100000000E-03 0. -1.
         11   -1    0    0    0    0 -0.00000000000E+00 -0.00000000000E+00 -0.45593999997E+02  0.45594000000E+02  0.51100000000E-03 0.  1.
    9900012    2    1    2    0    0  0.59680953052E+00  0.22391297547E-03 -0.10179279894E+01  0.90008017349E+02  0.90000282377E+02 0.  0.
         12    1    1    2    0    0 -0.59680953052E+00 -0.22391297547E-03  0.10179279894E+01  0.11799826513E+01  0.00000000000E+00 0. -1.
         11    1    3    3    0    0 -0.22806671408E+02 -0.19797553059E+02  0.26690060950E+02  0.40304425583E+02  0.51100000000E-03 0. -1.
        -11    1    3    3    0    0 -0.61075614759E+01  0.42322674675E+01 -0.81516197008E+01  0.11030108753E+02  0.51100000000E-03 0.  1.
        -12    1    3    3    0    0  0.29511042414E+02  0.15565509505E+02 -0.19556369238E+02  0.38673483012E+02  0.00000000000E+00 0.  1.
</event>
<event>
 7    1  0.1999542E-015  0.9000782E+02  0.7816164E-02  0.1186339E+00
        -11   -1    0    0    0    0  0.00000000000E+00  0.00000000000E+00  0.45593999997E+02  0.45594000000E+02  0.51100000000E-03 0.  1.
         11   -1    0    0    0    0 -0.00000000000E+00 -0.00000000000E+00 -0.45593999997E+02  0.45594000000E+02  0.51100000000E-03 0. -1.
    9900012    2    1    2    0    0 -0.57018123266E+00  0.84334498531E+00 -0.59706555616E+00  0.90007820064E+02  0.90000082489E+02 0.  0.
         12    1    1    2    0    0  0.57018123266E+00 -0.84334498531E+00  0.59706555616E+00  0.11801799357E+01  0.00000000000E+00 0. -1.
         11    1    3    3    0    0  0.17100083748E+02  0.16618854917E+02 -0.15557211568E+02  0.28471495131E+02  0.51100000000E-03 0. -1.
        -11    1    3    3    0    0  0.32080293989E+01  0.13709533054E+02 -0.10306696662E+02  0.17449090106E+02  0.51100000000E-03 0.  1.
        -12    1    3    3    0    0 -0.20878294380E+02 -0.29485042986E+02  0.25266842673E+02  0.44087234828E+02  0.00000000000E+00 0.  1.
</event>
<event>
 7    1  0.3010745E-015  0.9000818E+02  0.7816164E-02  0.1186338E+00
        -11   -1    0    0    0    0  0.00000000000E+00  0.00000000000E+00  0.45593999997E+02  0.45594000000E+02  0.51100000000E-03 0.  1.
         11   -1    0    0    0    0 -0.00000000000E+00 -0.00000000000E+00 -0.45593999997E+02  0.45594000000E+02  0.51100000000E-03 0. -1.
    9900012    2    1    2    0    0  0.95408884371E+00  0.66733194386E+00 -0.19065553414E+00  0.90008183498E+02  0.90000450719E+02 0.  0.
         12    1    1    2    0    0 -0.95408884371E+00 -0.66733194386E+00  0.19065553414E+00  0.11798165017E+01  0.00000000000E+00 0. -1.
         11    1    3    3    0    0  0.16280490173E+02  0.34672320384E+02 -0.12626147620E+02  0.40331671985E+02  0.51100000000E-03 0. -1.
        -11    1    3    3    0    0 -0.82137852975E+01  0.23893869360E+01 -0.35925381437E+01  0.92780261596E+01  0.51100000000E-03 0.  1.
        -12    1    3    3    0    0 -0.71126160320E+01 -0.36394375376E+02  0.16028030230E+02  0.40398485354E+02  0.00000000000E+00 0.  1.
</event>
<event>
 7    1  0.1999542E-015  0.9000808E+02  0.7816164E-02  0.1186338E+00
        -11   -1    0    0    0    0  0.00000000000E+00  0.00000000000E+00  0.45593999997E+02  0.45594000000E+02  0.51100000000E-03 0. -1.
         11   -1    0    0    0    0 -0.00000000000E+00 -0.00000000000E+00 -0.45593999997E+02  0.45594000000E+02  0.51100000000E-03 0.  1.
    9900012    2    1    2    0    0 -0.11718424789E+01 -0.72733091090E-01  0.11702382690E+00  0.90008084972E+02  0.90000350893E+02 0.  0.
         12    1    1    2    0    0  0.11718424789E+01  0.72733091090E-01 -0.11702382690E+00  0.11799150283E+01  0.00000000000E+00 0. -1.
         11    1    3    3    0    0 -0.21025790249E+00  0.12933571856E+01 -0.11234530507E+02  0.11310687741E+02  0.51100000000E-03 0. -1.
        -11    1    3    3    0    0 -0.36017338981E+02  0.15156707174E+02  0.70129444314E+01  0.39700829582E+02  0.51100000000E-03 0.  1.
         12    1    3    3    0    0  0.35055754405E+02 -0.16522797451E+02  0.43386099028E+01  0.38996567649E+02  0.00000000000E+00 0. -1.
</event>
<event>
 7    1  0.1999542E-015  0.9000754E+02  0.7816164E-02  0.1186339E+00
        -11   -1    0    0    0    0  0.00000000000E+00  0.00000000000E+00  0.45593999997E+02  0.45594000000E+02  0.51100000000E-03 0. -1.
         11   -1    0    0    0    0 -0.00000000000E+00 -0.00000000000E+00 -0.45593999997E+02  0.45594000000E+02  0.51100000000E-03 0.  1.
    9900012    2    1    2    0    0 -0.99758073283E-01  0.28041368572E+00 -0.11423222150E+01  0.90007540957E+02  0.89999799698E+02 0.  0.
         12    1    1    2    0    0  0.99758073283E-01 -0.28041368572E+00  0.11423222150E+01  0.11804590426E+01  0.00000000000E+00 0. -1.
         11    1    3    3    0    0  0.40540377203E+01  0.12207540669E+02  0.26001016070E+01  0.13123254156E+02  0.51100000000E-03 0. -1.
        -11    1    3    3    0    0  0.84931002004E+01  0.30938200167E+02 -0.23919745664E+01  0.32171828099E+02  0.51100000000E-03 0.  1.
         12    1    3    3    0    0 -0.12646895994E+02 -0.42865327151E+02 -0.13504492556E+01  0.44712458702E+02  0.00000000000E+00 0. -1.
</event>
<event>
 7    1  0.1999542E-015  0.9000779E+02  0.7816164E-02  0.1186339E+00
        -11   -1    0    0    0    0  0.00000000000E+00  0.00000000000E+00  0.45593999997E+02  0.45594000000E+02  0.51100000000E-03 0. -1.
         11   -1    0    0    0    0 -0.00000000000E+00 -0.00000000000E+00 -0.45593999997E+02  0.45594000000E+02  0.51100000000E-03 0.  1.
    9900012    2    1    2    0    0  0.24446757546E+00  0.80211872816E+00 -0.83050403421E+00  0.90007789934E+02  0.90000051961E+02 0.  0.
         12    1    1    2    0    0 -0.24446757546E+00 -0.80211872816E+00  0.83050403421E+00  0.11802100662E+01  0.00000000000E+00 0. -1.
         11    1    3    3    0    0 -0.22105451808E+02 -0.19432612804E+02  0.22103595051E+02  0.36808237590E+02  0.51100000000E-03 0. -1.
        -11    1    3    3    0    0 -0.81757779491E+01 -0.38901247049E+01 -0.51944681502E+01  0.10438338705E+02  0.51100000000E-03 0.  1.
        -12    1    3    3    0    0  0.30525697333E+02  0.24124856238E+02 -0.17739630935E+02  0.42761213639E+02  0.00000000000E+00 0.  1.
</event>
<event>
 7    1  0.1999542E-015  0.9000731E+02  0.7816164E-02  0.1186340E+00
        -11   -1    0    0    0    0  0.00000000000E+00  0.00000000000E+00  0.45593999997E+02  0.45594000000E+02  0.51100000000E-03 0.  1.
         11   -1    0    0    0    0 -0.00000000000E+00 -0.00000000000E+00 -0.45593999997E+02  0.45594000000E+02  0.51100000000E-03 0. -1.
    9900012    2    1    2    0    0 -0.46342723845E+00  0.83212125805E+00  0.69773694115E+00  0.90007310611E+02  0.89999566310E+02 0.  0.
         12    1    1    2    0    0  0.46342723845E+00 -0.83212125805E+00 -0.69773694115E+00  0.11806893887E+01  0.00000000000E+00 0. -1.
         11    1    3    3    0    0  0.14176308619E+02 -0.87715802199E+01  0.62841683015E+01  0.17815698614E+02  0.51100000000E-03 0. -1.
        -11    1    3    3    0    0  0.16242378657E+02  0.14717911550E+02  0.21569061488E+02  0.30751523516E+02  0.51100000000E-03 0.  1.
         12    1    3    3    0    0 -0.30882114514E+02 -0.51142100718E+01 -0.27155492849E+02  0.41440088481E+02  0.00000000000E+00 0. -1.
</event>
<event>
 7    1  0.2122556E-015  0.9000763E+02  0.7816164E-02  0.1186339E+00
        -11   -1    0    0    0    0  0.00000000000E+00  0.00000000000E+00  0.45593999997E+02  0.45594000000E+02  0.51100000000E-03 0. -1.
         11   -1    0    0    0    0 -0.00000000000E+00 -0.00000000000E+00 -0.45593999997E+02  0.45594000000E+02  0.51100000000E-03 0.  1.
    9900012    2    1    2    0    0 -0.76814831687E+00 -0.61836250865E+00 -0.64873763617E+00  0.90007625250E+02  0.89999885104E+02 0.  0.
         12    1    1    2    0    0  0.76814831687E+00  0.61836250865E+00  0.64873763617E+00  0.11803747496E+01  0.00000000000E+00 0. -1.
         11    1    3    3    0    0  0.29576047353E+02  0.45190430151E+01  0.21125823803E+02  0.36626012046E+02  0.51100000000E-03 0. -1.
        -11    1    3    3    0    0  0.53255959878E+01  0.72528833079E+01  0.13561565744E+01  0.90997499866E+01  0.51100000000E-03 0.  1.
        -12    1    3    3    0    0 -0.35669791657E+02 -0.12390288832E+02 -0.23130718014E+02  0.44281863218E+02  0.00000000000E+00 0.  1.
</event>
<event>
 7    1  0.1999542E-015  0.9000755E+02  0.7816164E-02  0.1186339E+00
        -11   -1    0    0    0    0  0.00000000000E+00  0.00000000000E+00  0.45593999997E+02  0.45594000000E+02  0.51100000000E-03 0.  1.
         11   -1    0    0    0    0 -0.00000000000E+00 -0.00000000000E+00 -0.45593999997E+02  0.45594000000E+02  0.51100000000E-03 0. -1.
    9900012    2    1    2    0    0  0.69102433624E+00 -0.81638255599E+00 -0.49947793873E+00  0.90007545290E+02  0.89999804088E+02 0.  0.
         12    1    1    2    0    0 -0.69102433624E+00  0.81638255599E+00  0.49947793873E+00  0.11804547100E+01  0.00000000000E+00 0. -1.
         11    1    3    3    0    0 -0.31483720361E+01 -0.45547210109E+01  0.90406676031E+01  0.10601481073E+02  0.51100000000E-03 0. -1.
        -11    1    3    3    0    0  0.22561112659E+02 -0.14816349922E+02  0.24432446964E+02  0.36407039077E+02  0.51100000000E-03 0.  1.
         12    1    3    3    0    0 -0.18721716287E+02  0.18554688377E+02 -0.33972592506E+02  0.42999025141E+02  0.00000000000E+00 0. -1.
</event>
<event>
 7    1  0.1999542E-015  0.9000780E+02  0.7816164E-02  0.1186339E+00
        -11   -1    0    0    0    0  0.00000000000E+00  0.00000000000E+00  0.45593999997E+02  0.45594000000E+02  0.51100000000E-03 0. -1.
         11   -1    0    0    0    0 -0.00000000000E+00 -0.00000000000E+00 -0.45593999997E+02  0.45594000000E+02  0.51100000000E-03 0.  1.
    9900012    2    1    2    0    0  0.52311502078E+00  0.92680138763E+00 -0.51016353581E+00  0.90007797911E+02  0.90000060044E+02 0.  0.
         12    1    1    2    0    0 -0.52311502078E+00 -0.92680138763E+00  0.51016353581E+00  0.11802020888E+01  0.00000000000E+00 0. -1.
         11    1    3    3    0    0  0.32619194427E+02 -0.28353236733E+02 -0.88896327205E+01  0.44124182128E+02  0.51100000000E-03 0. -1.
        -11    1    3    3    0    0 -0.58162083290E+01  0.49712105725E+01 -0.31496660418E+01  0.82741531481E+01  0.51100000000E-03 0.  1.
        -12    1    3    3    0    0 -0.26279871077E+02  0.24308827548E+02  0.11529135227E+02  0.37609462635E+02  0.00000000000E+00 0.  1.
</event>
<event>
 7    1  0.1999542E-015  0.9000770E+02  0.7816164E-02  0.1186339E+00
        -11   -1    0    0    0    0  0.00000000000E+00  0.00000000000E+00  0.45593999997E+02  0.45594000000E+02  0.51100000000E-03 0.  1.
         11   -1    0    0    0    0 -0.00000000000E+00 -0.00000000000E+00 -0.45593999997E+02  0.45594000000E+02  0.51100000000E-03 0. -1.
    9900012    2    1    2    0    0 -0.97626930389E-01 -0.10806532389E+01 -0.46449480535E+00  0.90007704332E+02  0.89999965229E+02 0.  0.
         12    1    1    2    0    0  0.97626930389E-01  0.10806532389E+01  0.46449480535E+00  0.11802956683E+01  0.00000000000E+00 0. -1.
         11    1    3    3    0    0 -0.12761466709E+02 -0.20580375379E+02 -0.30870163253E+02  0.39234855203E+02  0.51100000000E-03 0. -1.
        -11    1    3    3    0    0 -0.83522768967E+01 -0.26878856923E+00 -0.65104464060E+00  0.83819231706E+01  0.51100000000E-03 0.  1.
        -12    1    3    3    0    0  0.21016116675E+02  0.19768510709E+02  0.31056713088E+02  0.42390925958E+02  0.00000000000E+00 0.  1.
</event>
<event>
 7    1  0.1999542E-015  0.9000780E+02  0.7816164E-02  0.1186339E+00
        -11   -1    0    0    0    0  0.00000000000E+00  0.00000000000E+00  0.45593999997E+02  0.45594000000E+02  0.51100000000E-03 0.  1.
         11   -1    0    0    0    0 -0.00000000000E+00 -0.00000000000E+00 -0.45593999997E+02  0.45594000000E+02  0.51100000000E-03 0. -1.
    9900012    2    1    2    0    0 -0.10780637721E+01 -0.72611484609E-01  0.47473557517E+00  0.90007801800E+02  0.90000063984E+02 0.  0.
         12    1    1    2    0    0  0.10780637721E+01  0.72611484609E-01 -0.47473557517E+00  0.11801981998E+01  0.00000000000E+00 0. -1.
         11    1    3    3    0    0 -0.41389784747E+00  0.85032602437E+01  0.47318013013E+01  0.97399532862E+01  0.51100000000E-03 0. -1.
        -11    1    3    3    0    0 -0.99885551033E+01  0.29025439817E+02  0.18004830307E+02  0.35586813629E+02  0.51100000000E-03 0.  1.
         12    1    3    3    0    0  0.93243891787E+01 -0.37601311545E+02 -0.22261896033E+02  0.44681034885E+02  0.00000000000E+00 0. -1.
</event>
<event>
 7    1  0.1999542E-015  0.9000751E+02  0.7816164E-02  0.1186340E+00
        -11   -1    0    0    0    0  0.00000000000E+00  0.00000000000E+00  0.45593999997E+02  0.45594000000E+02  0.51100000000E-03 0.  1.
         11   -1    0    0    0    0 -0.00000000000E+00 -0.00000000000E+00 -0.45593999997E+02  0.45594000000E+02  0.51100000000E-03 0. -1.
    9900012    2    1    2    0    0 -0.18187420522E+00  0.91578564319E+00  0.72236803222E+00  0.90007509786E+02  0.89999768115E+02 0.  0.
         12    1    1    2    0    0  0.18187420522E+00 -0.91578564319E+00 -0.72236803222E+00  0.11804902138E+01  0.00000000000E+00 0. -1.
         11    1    3    3    0    0 -0.35532404258E+01 -0.20960651032E+02 -0.26042255817E+02  0.33618053149E+02  0.51100000000E-03 0. -1.
        -11    1    3    3    0    0  0.57357737024E+01 -0.10825238974E+01 -0.10814094419E+02  0.12288840316E+02  0.51100000000E-03 0.  1.
        -12    1    3    3    0    0 -0.23644074818E+01  0.22958960573E+02  0.37578718268E+02  0.44100616322E+02  0.00000000000E+00 0.  1.
</event>
<event>
 7    1  0.1999542E-015  0.9000775E+02  0.7816164E-02  0.1186339E+00
        -11   -1    0    0    0    0  0.00000000000E+00  0.00000000000E+00  0.45593999997E+02  0.45594000000E+02  0.51100000000E-03 0. -1.
         11   -1    0    0    0    0 -0.00000000000E+00 -0.00000000000E+00 -0.45593999997E+02  0.45594000000E+02  0.51100000000E-03 0.  1.
    9900012    2    1    2    0    0  0.95305398368E+00 -0.68537538226E+00  0.12222446197E+00  0.90007749972E+02  0.90000011471E+02 0.  0.
         12    1    1    2    0    0 -0.95305398368E+00  0.68537538226E+00 -0.12222446197E+00  0.11802500284E+01  0.00000000000E+00 0. -1.
         11    1    3    3    0    0 -0.69797163885E+01 -0.46035226838E+01  0.47861244343E+01  0.96340982622E+01  0.51100000000E-03 0. -1.
        -11    1    3    3    0    0  0.22725909080E+02 -0.31840564738E+02 -0.12141902532E+02  0.40959910934E+02  0.51100000000E-03 0.  1.
         12    1    3    3    0    0 -0.14793138708E+02  0.35758712040E+02  0.74780025600E+01  0.39413740775E+02  0.00000000000E+00 0. -1.
</event>
<event>
 7    1  0.1999542E-015  0.9000775E+02  0.7816164E-02  0.1186339E+00
        -11   -1    0    0    0    0  0.00000000000E+00  0.00000000000E+00  0.45593999997E+02  0.45594000000E+02  0.51100000000E-03 0.  1.
         11   -1    0    0    0    0 -0.00000000000E+00 -0.00000000000E+00 -0.45593999997E+02  0.45594000000E+02  0.51100000000E-03 0. -1.
    9900012    2    1    2    0    0 -0.11622797957E+01 -0.20383018338E-01  0.20413451413E+00  0.90007753970E+02  0.90000015523E+02 0.  0.
         12    1    1    2    0    0  0.11622797957E+01  0.20383018338E-01 -0.20413451413E+00  0.11802460297E+01  0.00000000000E+00 0. -1.
         11    1    3    3    0    0  0.33269746969E+02  0.10262616187E+02 -0.18436569876E+02  0.39396757017E+02  0.51100000000E-03 0. -1.
        -11    1    3    3    0    0  0.42299640093E+01 -0.63662201354E+01  0.60954157531E+01  0.97762696259E+01  0.51100000000E-03 0.  1.
        -12    1    3    3    0    0 -0.38661990774E+02 -0.39167790701E+01  0.12545288637E+02  0.40834727327E+02  0.00000000000E+00 0.  1.
</event>
<event>
 7    1  0.1999542E-015  0.9000785E+02  0.7816164E-02  0.1186339E+00
        -11   -1    0    0    0    0  0.00000000000E+00  0.00000000000E+00  0.45593999997E+02  0.45594000000E+02  0.51100000000E-03 0. -1.
         11   -1    0    0    0    0 -0.00000000000E+00 -0.00000000000E+00 -0.45593999997E+02  0.45594000000E+02  0.51100000000E-03 0.  1.
    9900012    2    1    2    0    0 -0.73923956856E+00  0.30228428459E+00 -0.86885699828E+00  0.90007846022E+02  0.90000108789E+02 0.  0.
         12    1    1    2    0    0  0.73923956856E+00 -0.30228428459E+00  0.86885699828E+00  0.11801539780E+01  0.00000000000E+00 0. -1.
         11    1    3    3    0    0 -0.38462755044E+01  0.29627138180E+01 -0.74405665398E+01  0.88844549140E+01  0.51100000000E-03 0. -1.
        -11    1    3    3    0    0 -0.23509182876E+02 -0.79180456823E+01 -0.27849337870E+02  0.37295612972E+02  0.51100000000E-03 0.  1.
         12    1    3    3    0    0  0.26616218812E+02  0.52576161489E+01  0.34421047411E+02  0.43827778136E+02  0.00000000000E+00 0. -1.
</event>
<event>
 7    1  0.1999542E-015  0.9000807E+02  0.7816164E-02  0.1186338E+00
        -11   -1    0    0    0    0  0.00000000000E+00  0.00000000000E+00  0.45593999997E+02  0.45594000000E+02  0.51100000000E-03 0.  1.
         11   -1    0    0    0    0 -0.00000000000E+00 -0.00000000000E+00 -0.45593999997E+02  0.45594000000E+02  0.51100000000E-03 0. -1.
    9900012    2    1    2    0    0  0.11206618740E+01 -0.19592814114E+00  0.31299569124E+00  0.90008068996E+02  0.90000334706E+02 0.  0.
         12    1    1    2    0    0 -0.11206618740E+01  0.19592814114E+00 -0.31299569124E+00  0.11799310043E+01  0.00000000000E+00 0. -1.
         11    1    3    3    0    0 -0.23826863838E+01 -0.12753958314E+02  0.67588545893E+01  0.14629516831E+02  0.51100000000E-03 0. -1.
        -11    1    3    3    0    0  0.37384030900E+02  0.10424105424E+01 -0.11755400342E+02  0.39202574195E+02  0.51100000000E-03 0.  1.
         12    1    3    3    0    0 -0.33880682642E+02  0.11515619630E+02  0.53095414443E+01  0.36175977970E+02  0.00000000000E+00 0. -1.
</event>
<event>
 7    1  0.1999542E-015  0.9000777E+02  0.7816164E-02  0.1186339E+00
        -11   -1    0    0    0    0  0.00000000000E+00  0.00000000000E+00  0.45593999997E+02  0.45594000000E+02  0.51100000000E-03 0.  1.
         11   -1    0    0    0    0 -0.00000000000E+00 -0.00000000000E+00 -0.45593999997E+02  0.45594000000E+02  0.51100000000E-03 0. -1.
    9900012    2    1    2    0    0 -0.42399748156E+00  0.77401443695E+00  0.78362031705E+00  0.90007774168E+02  0.90000035987E+02 0.  0.
         12    1    1    2    0    0  0.42399748156E+00 -0.77401443695E+00 -0.78362031705E+00  0.11802258319E+01  0.00000000000E+00 0. -1.
         11    1    3    3    0    0 -0.76342446538E+00  0.93031642548E+01  0.12536096004E+01  0.94182386548E+01  0.51100000000E-03 0. -1.
        -11    1    3    3    0    0 -0.25805663342E+02 -0.14333020078E+02  0.28573426326E+02  0.41082945577E+02  0.51100000000E-03 0.  1.
         12    1    3    3    0    0  0.26145090325E+02  0.58038702602E+01 -0.29043415609E+02  0.39506589936E+02  0.00000000000E+00 0. -1.
</event>
<event>
 7    1  0.1999542E-015  0.9000774E+02  0.7816164E-02  0.1186339E+00
        -11   -1    0    0    0    0  0.00000000000E+00  0.00000000000E+00  0.45593999997E+02  0.45594000000E+02  0.51100000000E-03 0. -1.
         11   -1    0    0    0    0 -0.00000000000E+00 -0.00000000000E+00 -0.45593999997E+02  0.45594000000E+02  0.51100000000E-03 0.  1.
    9900012    2    1    2    0    0 -0.24121845040E+00 -0.10251054978E+01 -0.53290342672E+00  0.90007739993E+02  0.90000001361E+02 0.  0.
         12    1    1    2    0    0  0.24121845040E+00  0.10251054978E+01  0.53290342672E+00  0.11802600072E+01  0.00000000000E+00 0. -1.
         11    1    3    3    0    0 -0.12164241363E+02 -0.47997954422E+01  0.35562648269E+01  0.13551893743E+02  0.51100000000E-03 0. -1.
        -11    1    3    3    0    0 -0.30182012758E+02 -0.10032270190E+02  0.12126583234E+01  0.31828774399E+02  0.51100000000E-03 0.  1.
         12    1    3    3    0    0  0.42105035671E+02  0.13806960134E+02 -0.53018265770E+01  0.44627071851E+02  0.00000000000E+00 0. -1.
</event>
<event>
 7    1  0.1999542E-015  0.9000773E+02  0.7816164E-02  0.1186339E+00
        -11   -1    0    0    0    0  0.00000000000E+00  0.00000000000E+00  0.45593999997E+02  0.45594000000E+02  0.51100000000E-03 0. -1.
         11   -1    0    0    0    0 -0.00000000000E+00 -0.00000000000E+00 -0.45593999997E+02  0.45594000000E+02  0.51100000000E-03 0.  1.
    9900012    2    1    2    0    0 -0.10697889002E+01  0.13337885587E+00 -0.48042527360E+00  0.90007726026E+02  0.89999987210E+02 0.  0.
         12    1    1    2    0    0  0.10697889002E+01 -0.13337885587E+00  0.48042527360E+00  0.11802739740E+01  0.00000000000E+00 0. -1.
         11    1    3    3    0    0  0.16292334576E+02 -0.32220664513E+02 -0.48922973280E+00  0.36108873336E+02  0.51100000000E-03 0. -1.
        -11    1    3    3    0    0  0.93603087070E+01 -0.17895163277E+01 -0.40439852314E+01  0.10352369999E+02  0.51100000000E-03 0.  1.
        -12    1    3    3    0    0 -0.26722432184E+02  0.34143559696E+02  0.40527896906E+01  0.43546482692E+02  0.00000000000E+00 0.  1.
</event>
<event>
 7    1  0.1999542E-015  0.9000777E+02  0.7816164E-02  0.1186339E+00
        -11   -1    0    0    0    0  0.00000000000E+00  0.00000000000E+00  0.45593999997E+02  0.45594000000E+02  0.51100000000E-03 0.  1.
         11   -1    0    0    0    0 -0.00000000000E+00 -0.00000000000E+00 -0.45593999997E+02  0.45594000000E+02  0.51100000000E-03 0. -1.
    9900012    2    1    2    0    0 -0.37858050774E+00  0.31990909026E+00  0.10711146512E+01  0.90007766285E+02  0.90000028000E+02 0.  0.
         12    1    1    2    0    0  0.37858050774E+00 -0.31990909026E+00 -0.10711146512E+01  0.11802337154E+01  0.00000000000E+00 0. -1.
         11    1    3    3    0    0  0.20584426933E+02  0.35628407081E+02 -0.25063568106E+01  0.41223583639E+02  0.51100000000E-03 0. -1.
        -11    1    3    3    0    0 -0.78524562551E+01  0.56932825490E+00 -0.53976988334E+01  0.95456983431E+01  0.51100000000E-03 0.  1.
        -12    1    3    3    0    0 -0.13110551186E+02 -0.35877826246E+02  0.89751702953E+01  0.39238484303E+02  0.00000000000E+00 0.  1.
</event>
<event>
 7    1  0.1999542E-015  0.9000775E+02  0.7816164E-02  0.1186339E+00
        -11   -1    0    0    0    0  0.00000000000E+00  0.00000000000E+00  0.45593999997E+02  0.45594000000E+02  0.51100000000E-03 0.  1.
         11   -1    0    0    0    0 -0.00000000000E+00 -0.00000000000E+00 -0.45593999997E+02  0.45594000000E+02  0.51100000000E-03 0. -1.
    9900012    2    1    2    0    0 -0.10654381795E+01  0.31052530707E+00  0.40175015062E+00  0.90007751016E+02  0.90000012529E+02 0.  0.
         12    1    1    2    0    0  0.10654381795E+01 -0.31052530707E+00 -0.40175015062E+00  0.11802489840E+01  0.00000000000E+00 0. -1.
         11    1    3    3    0    0 -0.30584942733E+02 -0.66442685286E+01  0.24018298829E+02  0.39452043105E+02  0.51100000000E-03 0. -1.
        -11    1    3    3    0    0 -0.73062486494E+01  0.11801777998E+01 -0.45344969201E+01  0.86796170160E+01  0.51100000000E-03 0.  1.
        -12    1    3    3    0    0  0.36825753203E+02  0.57746160358E+01 -0.19082051758E+02  0.41876090895E+02  0.00000000000E+00 0.  1.
</event>
<event>
 7    1  0.1999542E-015  0.9000771E+02  0.7816164E-02  0.1186339E+00
        -11   -1    0    0    0    0  0.00000000000E+00  0.00000000000E+00  0.45593999997E+02  0.45594000000E+02  0.51100000000E-03 0. -1.
         11   -1    0    0    0    0 -0.00000000000E+00 -0.00000000000E+00 -0.45593999997E+02  0.45594000000E+02  0.51100000000E-03 0.  1.
    9900012    2    1    2    0    0 -0.10867765993E+01 -0.26483141290E+00  0.37664321478E+00  0.90007712253E+02  0.89999973255E+02 0.  0.
         12    1    1    2    0    0  0.10867765993E+01  0.26483141290E+00 -0.37664321478E+00  0.11802877468E+01  0.00000000000E+00 0. -1.
         11    1    3    3    0    0  0.37410486128E+02 -0.23147601302E+01  0.10148383093E+02  0.38831588513E+02  0.51100000000E-03 0. -1.
        -11    1    3    3    0    0  0.54792588644E+00  0.83521674557E+01  0.40258334822E+01  0.92879631498E+01  0.51100000000E-03 0.  1.
        -12    1    3    3    0    0 -0.39045188614E+02 -0.63022387384E+01 -0.13797573360E+02  0.41888160590E+02  0.00000000000E+00 0.  1.
</event>
<event>
 7    1  0.1999542E-015  0.9000699E+02  0.7816164E-02  0.1186341E+00
        -11   -1    0    0    0    0  0.00000000000E+00  0.00000000000E+00  0.45593999997E+02  0.45594000000E+02  0.51100000000E-03 0. -1.
         11   -1    0    0    0    0 -0.00000000000E+00 -0.00000000000E+00 -0.45593999997E+02  0.45594000000E+02  0.51100000000E-03 0.  1.
    9900012    2    1    2    0    0  0.10397093336E+01  0.36137546686E+00 -0.42802512952E+00  0.90006986352E+02  0.89999237768E+02 0.  0.
         12    1    1    2    0    0 -0.10397093336E+01 -0.36137546686E+00  0.42802512952E+00  0.11810136485E+01  0.00000000000E+00 0. -1.
         11    1    3    3    0    0  0.53448933352E+01  0.31716922932E+01  0.73852803697E+01  0.96524547742E+01  0.51100000000E-03 0. -1.
        -11    1    3    3    0    0 -0.23955767331E+02  0.30086374414E+02 -0.15158097870E+02  0.41338077424E+02  0.51100000000E-03 0.  1.
         12    1    3    3    0    0  0.19650583330E+02 -0.32896691240E+02  0.73447923705E+01  0.39016454154E+02  0.00000000000E+00 0. -1.
</event>
<event>
 7    1  0.1999542E-015  0.9000777E+02  0.7816164E-02  0.1186339E+00
        -11   -1    0    0    0    0  0.00000000000E+00  0.00000000000E+00  0.45593999997E+02  0.45594000000E+02  0.51100000000E-03 0. -1.
         11   -1    0    0    0    0 -0.00000000000E+00 -0.00000000000E+00 -0.45593999997E+02  0.45594000000E+02  0.51100000000E-03 0.  1.
    9900012    2    1    2    0    0  0.11248202447E+01  0.28296757156E+00  0.21827749276E+00  0.90007772779E+02  0.90000034580E+02 0.  0.
         12    1    1    2    0    0 -0.11248202447E+01 -0.28296757156E+00 -0.21827749276E+00  0.11802272210E+01  0.00000000000E+00 0. -1.
         11    1    3    3    0    0  0.37037798300E+00  0.35420559257E+01 -0.90740737178E+01  0.97479307613E+01  0.51100000000E-03 0. -1.
        -11    1    3    3    0    0 -0.12093250661E+02  0.28097787761E+02 -0.19089529030E+02  0.36057488923E+02  0.51100000000E-03 0.  1.
         12    1    3    3    0    0  0.12847692922E+02 -0.31356876115E+02  0.28381880240E+02  0.44202353095E+02  0.00000000000E+00 0. -1.
</event>
<event>
 7    1  0.1999542E-015  0.9000783E+02  0.7816164E-02  0.1186339E+00
        -11   -1    0    0    0    0  0.00000000000E+00  0.00000000000E+00  0.45593999997E+02  0.45594000000E+02  0.51100000000E-03 0.  1.
         11   -1    0    0    0    0 -0.00000000000E+00 -0.00000000000E+00 -0.45593999997E+02  0.45594000000E+02  0.51100000000E-03 0. -1.
    9900012    2    1    2    0    0  0.50811137702E+00 -0.10444849001E+01  0.20900243941E+00  0.90007827175E+02  0.90000089693E+02 0.  0.
         12    1    1    2    0    0 -0.50811137702E+00  0.10444849001E+01 -0.20900243941E+00  0.11801728253E+01  0.00000000000E+00 0. -1.
         11    1    3    3    0    0 -0.24316552112E+01  0.89699831034E+01  0.40050557160E+01  0.10119981002E+02  0.51100000000E-03 0. -1.
        -11    1    3    3    0    0 -0.88627130425E+01  0.59570309246E+01  0.34843743172E+02  0.36443385386E+02  0.51100000000E-03 0.  1.
         12    1    3    3    0    0  0.11802479631E+02 -0.15971498928E+02 -0.38639796448E+02  0.43444460786E+02  0.00000000000E+00 0. -1.
</event>
<event>
 7    1  0.1999542E-015  0.9000727E+02  0.7816164E-02  0.1186340E+00
        -11   -1    0    0    0    0  0.00000000000E+00  0.00000000000E+00  0.45593999997E+02  0.45594000000E+02  0.51100000000E-03 0.  1.
         11   -1    0    0    0    0 -0.00000000000E+00 -0.00000000000E+00 -0.45593999997E+02  0.45594000000E+02  0.51100000000E-03 0. -1.
    9900012    2    1    2    0    0  0.21163383234E+00 -0.11615940053E+01  0.59388405426E-02  0.90007269386E+02  0.89999524541E+02 0.  0.
         12    1    1    2    0    0 -0.21163383234E+00  0.11615940053E+01 -0.59388405426E-02  0.11807306136E+01  0.00000000000E+00 0. -1.
         11    1    3    3    0    0 -0.41865557066E+01 -0.51954854287E+00 -0.59731331601E+01  0.73126943996E+01  0.51100000000E-03 0. -1.
        -11    1    3    3    0    0 -0.13889266989E+02 -0.37827885466E+02 -0.25833921660E+01  0.40379878301E+02  0.51100000000E-03 0.  1.
         12    1    3    3    0    0  0.18287456527E+02  0.37185840003E+02  0.85624641666E+01  0.42314696686E+02  0.00000000000E+00 0. -1.
</event>
<event>
 7    1  0.1999542E-015  0.9000774E+02  0.7816164E-02  0.1186339E+00
        -11   -1    0    0    0    0  0.00000000000E+00  0.00000000000E+00  0.45593999997E+02  0.45594000000E+02  0.51100000000E-03 0. -1.
         11   -1    0    0    0    0 -0.00000000000E+00 -0.00000000000E+00 -0.45593999997E+02  0.45594000000E+02  0.51100000000E-03 0.  1.
    9900012    2    1    2    0    0  0.20889071115E+00  0.10465895722E+01 -0.50400391702E+00  0.90007743668E+02  0.90000005084E+02 0.  0.
         12    1    1    2    0    0 -0.20889071115E+00 -0.10465895722E+01  0.50400391702E+00  0.11802563325E+01  0.00000000000E+00 0. -1.
         11    1    3    3    0    0 -0.61375865524E+01  0.67038146465E+01 -0.20037195124E+01  0.93073085072E+01  0.51100000000E-03 0. -1.
        -11    1    3    3    0    0 -0.35995556478E+02 -0.10684965847E+02 -0.37691252916E+01  0.37736651773E+02  0.51100000000E-03 0.  1.
         12    1    3    3    0    0  0.42342033742E+02  0.50277407732E+01  0.52688408870E+01  0.42963783387E+02  0.00000000000E+00 0. -1.
</event>
<event>
 7    1  0.1999542E-015  0.9000791E+02  0.7816164E-02  0.1186339E+00
        -11   -1    0    0    0    0  0.00000000000E+00  0.00000000000E+00  0.45593999997E+02  0.45594000000E+02  0.51100000000E-03 0.  1.
         11   -1    0    0    0    0 -0.00000000000E+00 -0.00000000000E+00 -0.45593999997E+02  0.45594000000E+02  0.51100000000E-03 0. -1.
    9900012    2    1    2    0    0  0.11412500644E+01  0.23243900674E+00  0.19006132670E+00  0.90007914025E+02  0.90000177690E+02 0.  0.
         12    1    1    2    0    0 -0.11412500644E+01 -0.23243900674E+00 -0.19006132670E+00  0.11800859754E+01  0.00000000000E+00 0. -1.
         11    1    3    3    0    0 -0.27224362359E+02  0.70696592230E+01 -0.28160274569E+02  0.39801344845E+02  0.51100000000E-03 0. -1.
        -11    1    3    3    0    0  0.71548563468E+01  0.58074743409E+01 -0.35413397867E+01  0.98721737885E+01  0.51100000000E-03 0.  1.
        -12    1    3    3    0    0  0.21210756076E+02 -0.12644694557E+02  0.31891675682E+02  0.40334395392E+02  0.00000000000E+00 0.  1.
</event>
<event>
 7    1  0.1999542E-015  0.9000770E+02  0.7816164E-02  0.1186339E+00
        -11   -1    0    0    0    0  0.00000000000E+00  0.00000000000E+00  0.45593999997E+02  0.45594000000E+02  0.51100000000E-03 0. -1.
         11   -1    0    0    0    0 -0.00000000000E+00 -0.00000000000E+00 -0.45593999997E+02  0.45594000000E+02  0.51100000000E-03 0.  1.
    9900012    2    1    2    0    0  0.11315003274E+01 -0.25280085968E+00 -0.22116810922E+00  0.90007696396E+02  0.89999957188E+02 0.  0.
         12    1    1    2    0    0 -0.11315003274E+01  0.25280085968E+00  0.22116810922E+00  0.11803036042E+01  0.00000000000E+00 0. -1.
         11    1    3    3    0    0  0.59563254143E+01 -0.65566526596E+01 -0.14311913519E+01  0.89730605418E+01  0.51100000000E-03 0. -1.
        -11    1    3    3    0    0  0.31762616105E+02  0.20592206669E+02  0.13001772469E+02  0.40024353148E+02  0.51100000000E-03 0.  1.
         12    1    3    3    0    0 -0.36587441192E+02 -0.14288354869E+02 -0.11791749227E+02  0.41010282706E+02  0.00000000000E+00 0. -1.
</event>
<event>
 7    1  0.1999542E-015  0.9000772E+02  0.7816164E-02  0.1186339E+00
        -11   -1    0    0    0    0  0.00000000000E+00  0.00000000000E+00  0.45593999997E+02  0.45594000000E+02  0.51100000000E-03 0.  1.
         11   -1    0    0    0    0 -0.00000000000E+00 -0.00000000000E+00 -0.45593999997E+02  0.45594000000E+02  0.51100000000E-03 0. -1.
    9900012    2    1    2    0    0 -0.51123583347E+00 -0.10199659225E+01  0.30225372997E+00  0.90007724660E+02  0.89999985826E+02 0.  0.
         12    1    1    2    0    0  0.51123583347E+00  0.10199659225E+01 -0.30225372997E+00  0.11802753398E+01  0.00000000000E+00 0. -1.
         11    1    3    3    0    0  0.74438782023E+01 -0.63482327361E+01  0.29304191340E+01  0.10212675366E+02  0.51100000000E-03 0. -1.
        -11    1    3    3    0    0 -0.23018795185E+02 -0.11667760801E+02 -0.32986362066E+02  0.41881996806E+02  0.51100000000E-03 0.  1.
         12    1    3    3    0    0  0.15063681149E+02  0.16996027614E+02  0.30358196662E+02  0.37913052488E+02  0.00000000000E+00 0. -1.
</event>
<event>
 7    1  0.1999542E-015  0.9000777E+02  0.7816164E-02  0.1186339E+00
        -11   -1    0    0    0    0  0.00000000000E+00  0.00000000000E+00  0.45593999997E+02  0.45594000000E+02  0.51100000000E-03 0. -1.
         11   -1    0    0    0    0 -0.00000000000E+00 -0.00000000000E+00 -0.45593999997E+02  0.45594000000E+02  0.51100000000E-03 0.  1.
    9900012    2    1    2    0    0  0.87074255431E+00 -0.36178047606E+00  0.70983173064E+00  0.90007771719E+02  0.90000033506E+02 0.  0.
         12    1    1    2    0    0 -0.87074255431E+00  0.36178047606E+00 -0.70983173064E+00  0.11802282807E+01  0.00000000000E+00 0. -1.
         11    1    3    3    0    0  0.11217220737E+01 -0.26773121477E+02  0.28613629511E+01  0.26948946032E+02  0.51100000000E-03 0. -1.
        -11    1    3    3    0    0  0.15913369511E+02  0.11489540625E+02 -0.24705229642E+02  0.31553022754E+02  0.51100000000E-03 0.  1.
         12    1    3    3    0    0 -0.16164349030E+02  0.14921800376E+02  0.22553698421E+02  0.31505802934E+02  0.00000000000E+00 0. -1.
</event>
<event>
 7    1  0.1999542E-015  0.9000809E+02  0.7816164E-02  0.1186338E+00
        -11   -1    0    0    0    0  0.00000000000E+00  0.00000000000E+00  0.45593999997E+02  0.45594000000E+02  0.51100000000E-03 0. -1.
         11   -1    0    0    0    0 -0.00000000000E+00 -0.00000000000E+00 -0.45593999997E+02  0.45594000000E+02  0.51100000000E-03 0.  1.
    9900012    2    1    2    0    0 -0.21195340556E+00 -0.97481229446E+00 -0.63007756927E+00  0.90008092801E+02  0.90000358825E+02 0.  0.
         12    1    1    2    0    0  0.21195340556E+00  0.97481229446E+00  0.63007756927E+00  0.11799071993E+01  0.00000000000E+00 0. -1.
         11    1    3    3    0    0  0.96489274956E+01 -0.74292336165E+01  0.98299668449E+01  0.15650033942E+02  0.51100000000E-03 0. -1.
        -11    1    3    3    0    0 -0.87424502460E+01 -0.32203338042E+02 -0.12492593121E+02  0.35630749368E+02  0.51100000000E-03 0.  1.
         12    1    3    3    0    0 -0.11184306551E+01  0.38657759364E+02  0.20325487064E+01  0.38727309491E+02  0.00000000000E+00 0. -1.
</event>
<event>
 7    1  0.1999542E-015  0.9000770E+02  0.7816164E-02  0.1186339E+00
        -11   -1    0    0    0    0  0.00000000000E+00  0.00000000000E+00  0.45593999997E+02  0.45594000000E+02  0.51100000000E-03 0.  1.
         11   -1    0    0    0    0 -0.00000000000E+00 -0.00000000000E+00 -0.45593999997E+02  0.45594000000E+02  0.51100000000E-03 0. -1.
    9900012    2    1    2    0    0  0.92597141888E+00  0.72703505752E+00 -0.84304680348E-01  0.90007699054E+02  0.89999959882E+02 0.  0.
         12    1    1    2    0    0 -0.92597141888E+00 -0.72703505752E+00  0.84304680348E-01  0.11803009458E+01  0.00000000000E+00 0. -1.
         11    1    3    3    0    0 -0.10669882476E+02 -0.92937740213E+01  0.75903098997E+00  0.14170277200E+02  0.51100000000E-03 0. -1.
        -11    1    3    3    0    0 -0.71127323033E+01 -0.29019953792E+02  0.94516971885E+01  0.31338207653E+02  0.51100000000E-03 0.  1.
         12    1    3    3    0    0  0.18708586198E+02  0.39040762870E+02 -0.10295032859E+02  0.44499214202E+02  0.00000000000E+00 0. -1.
</event>
<event>
 7    1  0.1999542E-015  0.9000773E+02  0.7816164E-02  0.1186339E+00
        -11   -1    0    0    0    0  0.00000000000E+00  0.00000000000E+00  0.45593999997E+02  0.45594000000E+02  0.51100000000E-03 0. -1.
         11   -1    0    0    0    0 -0.00000000000E+00 -0.00000000000E+00 -0.45593999997E+02  0.45594000000E+02  0.51100000000E-03 0.  1.
    9900012    2    1    2    0    0  0.47018931335E+00  0.20644459032E-01 -0.10823701556E+01  0.90007733362E+02  0.89999994642E+02 0.  0.
         12    1    1    2    0    0 -0.47018931335E+00 -0.20644459032E-01  0.10823701556E+01  0.11802666384E+01  0.00000000000E+00 0. -1.
         11    1    3    3    0    0  0.29530690608E+02 -0.27157510573E+02 -0.35907543872E+01  0.40280089196E+02  0.51100000000E-03 0. -1.
        -11    1    3    3    0    0 -0.94592900957E+00  0.33925093866E+01 -0.10183634606E+02  0.10775449674E+02  0.51100000000E-03 0.  1.
        -12    1    3    3    0    0 -0.28114572285E+02  0.23785645645E+02  0.12692018838E+02  0.38952194492E+02  0.00000000000E+00 0.  1.
</event>
<event>
 7    1  0.1999542E-015  0.9000780E+02  0.7816164E-02  0.1186339E+00
        -11   -1    0    0    0    0  0.00000000000E+00  0.00000000000E+00  0.45593999997E+02  0.45594000000E+02  0.51100000000E-03 0. -1.
         11   -1    0    0    0    0 -0.00000000000E+00 -0.00000000000E+00 -0.45593999997E+02  0.45594000000E+02  0.51100000000E-03 0.  1.
    9900012    2    1    2    0    0  0.69088872484E+00 -0.92358921988E+00 -0.25003356679E+00  0.90007804651E+02  0.90000066872E+02 0.  0.
         12    1    1    2    0    0 -0.69088872484E+00  0.92358921988E+00  0.25003356679E+00  0.11801953490E+01  0.00000000000E+00 0. -1.
         11    1    3    3    0    0  0.15186517267E+02 -0.22480273232E+02  0.23609430579E+02  0.35963845787E+02  0.51100000000E-03 0. -1.
        -11    1    3    3    0    0 -0.45389908315E+01 -0.10757587860E+02  0.15077352583E+01  0.11772909590E+02  0.51100000000E-03 0.  1.
        -12    1    3    3    0    0 -0.99566377105E+01  0.32314271872E+02 -0.25367199404E+02  0.42271049274E+02  0.00000000000E+00 0.  1.
</event>
<event>
 7    1  0.1999542E-015  0.9000720E+02  0.7816164E-02  0.1186340E+00
        -11   -1    0    0    0    0  0.00000000000E+00  0.00000000000E+00  0.45593999997E+02  0.45594000000E+02  0.51100000000E-03 0.  1.
         11   -1    0    0    0    0 -0.00000000000E+00 -0.00000000000E+00 -0.45593999997E+02  0.45594000000E+02  0.51100000000E-03 0. -1.
    9900012    2    1    2    0    0  0.48882527279E+00 -0.10698403366E+01 -0.10387444545E+00  0.90007195870E+02  0.89999450054E+02 0.  0.
         12    1    1    2    0    0 -0.48882527279E+00  0.10698403366E+01  0.10387444545E+00  0.11808041300E+01  0.00000000000E+00 0. -1.
         11    1    3    3    0    0 -0.11377821371E+01  0.86828945872E+01 -0.14379405455E+01  0.88743946204E+01  0.51100000000E-03 0. -1.
        -11    1    3    3    0    0 -0.34481936939E+02  0.78891352215E+01  0.15365237439E+02  0.38565955861E+02  0.51100000000E-03 0.  1.
         12    1    3    3    0    0  0.36108544349E+02 -0.17641870145E+02 -0.14031171339E+02  0.42566845389E+02  0.00000000000E+00 0. -1.
</event>
<event>
 7    1  0.1999542E-015  0.9000776E+02  0.7816164E-02  0.1186339E+00
        -11   -1    0    0    0    0  0.00000000000E+00  0.00000000000E+00  0.45593999997E+02  0.45594000000E+02  0.51100000000E-03 0.  1.
         11   -1    0    0    0    0 -0.00000000000E+00 -0.00000000000E+00 -0.45593999997E+02  0.45594000000E+02  0.51100000000E-03 0. -1.
    9900012    2    1    2    0    0 -0.13622705998E-01  0.46159206884E+00  0.10861499755E+01  0.90007756557E+02  0.90000018143E+02 0.  0.
         12    1    1    2    0    0  0.13622705998E-01 -0.46159206884E+00 -0.10861499755E+01  0.11802434433E+01  0.00000000000E+00 0. -1.
         11    1    3    3    0    0 -0.36180155949E+02  0.16683900890E+02  0.76592885965E+01  0.40571183560E+02  0.51100000000E-03 0. -1.
        -11    1    3    3    0    0  0.39118891703E+01  0.37880549019E+01  0.72264275026E+01  0.90483971803E+01  0.51100000000E-03 0.  1.
        -12    1    3    3    0    0  0.32254644073E+02 -0.20010363723E+02 -0.13799566124E+02  0.40388175816E+02  0.00000000000E+00 0.  1.
</event>
<event>
 7    1  0.1999542E-015  0.9000772E+02  0.7816164E-02  0.1186339E+00
        -11   -1    0    0    0    0  0.00000000000E+00  0.00000000000E+00  0.45593999997E+02  0.45594000000E+02  0.51100000000E-03 0. -1.
         11   -1    0    0    0    0 -0.00000000000E+00 -0.00000000000E+00 -0.45593999997E+02  0.45594000000E+02  0.51100000000E-03 0.  1.
    9900012    2    1    2    0    0 -0.88742580195E+00 -0.68010159023E+00  0.37815021181E+00  0.90007720241E+02  0.89999981348E+02 0.  0.
         12    1    1    2    0    0  0.88742580195E+00  0.68010159023E+00 -0.37815021181E+00  0.11802797591E+01  0.00000000000E+00 0. -1.
         11    1    3    3    0    0 -0.20673019257E+02 -0.21795494687E+02  0.26370372306E+02  0.39972663780E+02  0.51100000000E-03 0. -1.
        -11    1    3    3    0    0  0.75534570869E+01  0.17554394430E+01  0.66127445042E+01  0.10191401854E+02  0.51100000000E-03 0.  1.
        -12    1    3    3    0    0  0.12232136368E+02  0.19359953653E+02 -0.32604966599E+02  0.39843654607E+02  0.00000000000E+00 0.  1.
</event>
<event>
 7    1  0.1999542E-015  0.9000772E+02  0.7816164E-02  0.1186339E+00
        -11   -1    0    0    0    0  0.00000000000E+00  0.00000000000E+00  0.45593999997E+02  0.45594000000E+02  0.51100000000E-03 0.  1.
         11   -1    0    0    0    0 -0.00000000000E+00 -0.00000000000E+00 -0.45593999997E+02  0.45594000000E+02  0.51100000000E-03 0. -1.
    9900012    2    1    2    0    0 -0.34599108645E+00 -0.86746446906E+00  0.72169967412E+00  0.90007722551E+02  0.89999983689E+02 0.  0.
         12    1    1    2    0    0  0.34599108645E+00  0.86746446906E+00 -0.72169967412E+00  0.11802774490E+01  0.00000000000E+00 0. -1.
         11    1    3    3    0    0  0.76199883094E+00 -0.53407339306E+00  0.91790658354E+01  0.92261111243E+01  0.51100000000E-03 0. -1.
        -11    1    3    3    0    0 -0.17147823300E+02 -0.27329958552E+02  0.20368062493E+02  0.38155372471E+02  0.51100000000E-03 0.  1.
         12    1    3    3    0    0  0.16039833383E+02  0.26996567476E+02 -0.28825428654E+02  0.42626238956E+02  0.00000000000E+00 0. -1.
</event>
<event>
 7    1  0.1999542E-015  0.9000761E+02  0.7816164E-02  0.1186339E+00
        -11   -1    0    0    0    0  0.00000000000E+00  0.00000000000E+00  0.45593999997E+02  0.45594000000E+02  0.51100000000E-03 0.  1.
         11   -1    0    0    0    0 -0.00000000000E+00 -0.00000000000E+00 -0.45593999997E+02  0.45594000000E+02  0.51100000000E-03 0. -1.
    9900012    2    1    2    0    0 -0.69721272628E+00  0.82297431586E+00  0.47950463629E+00  0.90007611502E+02  0.89999871174E+02 0.  0.
         12    1    1    2    0    0  0.69721272628E+00 -0.82297431586E+00 -0.47950463629E+00  0.11803884981E+01  0.00000000000E+00 0. -1.
         11    1    3    3    0    0 -0.11119294600E+01  0.37055588959E+02  0.38147649829E+00  0.37074230738E+02  0.51100000000E-03 0. -1.
        -11    1    3    3    0    0  0.61782422937E+00  0.16030650344E+01  0.12881810334E+02  0.12995867113E+02  0.51100000000E-03 0.  1.
        -12    1    3    3    0    0 -0.20310749563E+00 -0.37835679678E+02 -0.12783782196E+02  0.39937513650E+02  0.00000000000E+00 0.  1.
</event>
<event>
 7    1  0.1999542E-015  0.9000769E+02  0.7816164E-02  0.1186339E+00
        -11   -1    0    0    0    0  0.00000000000E+00  0.00000000000E+00  0.45593999997E+02  0.45594000000E+02  0.51100000000E-03 0. -1.
         11   -1    0    0    0    0 -0.00000000000E+00 -0.00000000000E+00 -0.45593999997E+02  0.45594000000E+02  0.51100000000E-03 0.  1.
    9900012    2    1    2    0    0  0.41729728434E+00  0.67823498406E+00 -0.87120314882E+00  0.90007688751E+02  0.89999949443E+02 0.  0.
         12    1    1    2    0    0 -0.41729728434E+00 -0.67823498406E+00  0.87120314882E+00  0.11803112486E+01  0.00000000000E+00 0. -1.
         11    1    3    3    0    0 -0.11771245738E+01 -0.77016654673E+01 -0.42884375735E+01  0.88933666468E+01  0.51100000000E-03 0. -1.
        -11    1    3    3    0    0  0.93397117743E+00 -0.36259648796E+02  0.37827401768E+01  0.36468391197E+02  0.51100000000E-03 0.  1.
         12    1    3    3    0    0  0.66045068068E+00  0.44639549248E+02 -0.36550575217E+00  0.44645930907E+02  0.00000000000E+00 0. -1.
</event>
<event>
 7    1  0.1999542E-015  0.9000776E+02  0.7816164E-02  0.1186339E+00
        -11   -1    0    0    0    0  0.00000000000E+00  0.00000000000E+00  0.45593999997E+02  0.45594000000E+02  0.51100000000E-03 0.  1.
         11   -1    0    0    0    0 -0.00000000000E+00 -0.00000000000E+00 -0.45593999997E+02  0.45594000000E+02  0.51100000000E-03 0. -1.
    9900012    2    1    2    0    0 -0.11522014339E+01  0.23376704975E+00 -0.10365290071E+00  0.90007763116E+02  0.90000024789E+02 0.  0.
         12    1    1    2    0    0  0.11522014339E+01 -0.23376704975E+00  0.10365290071E+00  0.11802368837E+01  0.00000000000E+00 0. -1.
         11    1    3    3    0    0  0.59320634067E+01  0.40070000981E+02  0.31495047768E+01  0.40628976550E+02  0.51100000000E-03 0. -1.
        -11    1    3    3    0    0  0.56660028356E+01 -0.27866452285E+01 -0.76855889994E+01  0.99467209819E+01  0.51100000000E-03 0.  1.
        -12    1    3    3    0    0 -0.12750267676E+02 -0.37049588703E+02  0.44324313219E+01  0.39432065585E+02  0.00000000000E+00 0.  1.
</event>
<event>
 7    1  0.1999542E-015  0.9000744E+02  0.7816164E-02  0.1186340E+00
        -11   -1    0    0    0    0  0.00000000000E+00  0.00000000000E+00  0.45593999997E+02  0.45594000000E+02  0.51100000000E-03 0.  1.
         11   -1    0    0    0    0 -0.00000000000E+00 -0.00000000000E+00 -0.45593999997E+02  0.45594000000E+02  0.51100000000E-03 0. -1.
    9900012    2    1    2    0    0 -0.79015158336E+00 -0.40403406204E+00  0.77854486946E+00  0.90007442860E+02  0.89999700305E+02 0.  0.
         12    1    1    2    0    0  0.79015158336E+00  0.40403406204E+00 -0.77854486946E+00  0.11805571404E+01  0.00000000000E+00 0. -1.
         11    1    3    3    0    0 -0.47566051905E+00 -0.96053547004E+01 -0.12330633698E+01  0.96958515554E+01  0.51100000000E-03 0. -1.
        -11    1    3    3    0    0  0.36986447598E+02  0.49706721645E+01 -0.13510131670E+02  0.39689148967E+02  0.51100000000E-03 0.  1.
         12    1    3    3    0    0 -0.37300938663E+02  0.42306484739E+01  0.15521739909E+02  0.40622442337E+02  0.00000000000E+00 0. -1.
</event>
<event>
 7    1  0.1999542E-015  0.9000776E+02  0.7816164E-02  0.1186339E+00
        -11   -1    0    0    0    0  0.00000000000E+00  0.00000000000E+00  0.45593999997E+02  0.45594000000E+02  0.51100000000E-03 0. -1.
         11   -1    0    0    0    0 -0.00000000000E+00 -0.00000000000E+00 -0.45593999997E+02  0.45594000000E+02  0.51100000000E-03 0.  1.
    9900012    2    1    2    0    0  0.79283850611E+00 -0.84817198282E+00 -0.21210597988E+00  0.90007755298E+02  0.90000016868E+02 0.  0.
         12    1    1    2    0    0 -0.79283850611E+00  0.84817198282E+00  0.21210597988E+00  0.11802447017E+01  0.00000000000E+00 0. -1.
         11    1    3    3    0    0  0.90387304434E+01  0.28819526113E+01 -0.12807528971E+01  0.95731200309E+01  0.51100000000E-03 0. -1.
        -11    1    3    3    0    0  0.10086768401E+02  0.31641992083E+02 -0.16273100506E+02  0.36983406551E+02  0.51100000000E-03 0.  1.
         12    1    3    3    0    0 -0.18332660338E+02 -0.35372116677E+02  0.17341747423E+02  0.43451228717E+02  0.00000000000E+00 0. -1.
</event>
<event>
 7    1  0.1999542E-015  0.9000774E+02  0.7816164E-02  0.1186339E+00
        -11   -1    0    0    0    0  0.00000000000E+00  0.00000000000E+00  0.45593999997E+02  0.45594000000E+02  0.51100000000E-03 0.  1.
         11   -1    0    0    0    0 -0.00000000000E+00 -0.00000000000E+00 -0.45593999997E+02  0.45594000000E+02  0.51100000000E-03 0. -1.
    9900012    2    1    2    0    0  0.79866090620E+00 -0.12200521050E-01  0.86890796290E+00  0.90007741916E+02  0.90000003310E+02 0.  0.
         12    1    1    2    0    0 -0.79866090620E+00  0.12200521050E-01 -0.86890796290E+00  0.11802580836E+01  0.00000000000E+00 0. -1.
         11    1    3    3    0    0  0.17068071733E+02 -0.16517480684E+02 -0.23556831986E+02  0.33452512227E+02  0.51100000000E-03 0. -1.
        -11    1    3    3    0    0  0.11265123995E+02 -0.64067537843E+01  0.14368671900E+02  0.19349631653E+02  0.51100000000E-03 0.  1.
        -12    1    3    3    0    0 -0.27534534822E+02  0.22912033947E+02  0.10057068049E+02  0.37205598036E+02  0.00000000000E+00 0.  1.
</event>
<event>
 7    1  0.1999542E-015  0.9000767E+02  0.7816164E-02  0.1186339E+00
        -11   -1    0    0    0    0  0.00000000000E+00  0.00000000000E+00  0.45593999997E+02  0.45594000000E+02  0.51100000000E-03 0.  1.
         11   -1    0    0    0    0 -0.00000000000E+00 -0.00000000000E+00 -0.45593999997E+02  0.45594000000E+02  0.51100000000E-03 0. -1.
    9900012    2    1    2    0    0  0.78821082665E+00  0.30981218075E+00  0.82213609474E+00  0.90007674768E+02  0.89999935275E+02 0.  0.
         12    1    1    2    0    0 -0.78821082665E+00 -0.30981218075E+00 -0.82213609474E+00  0.11803252318E+01  0.00000000000E+00 0. -1.
         11    1    3    3    0    0  0.34128144686E+02 -0.24207369723E+02 -0.41774942411E+01  0.42049714232E+02  0.51100000000E-03 0. -1.
        -11    1    3    3    0    0 -0.41873099735E+01  0.37331792290E+00  0.89617629555E+01  0.98987942002E+01  0.51100000000E-03 0.  1.
        -12    1    3    3    0    0 -0.29152623886E+02  0.24143863980E+02 -0.39621326197E+01  0.38059166336E+02  0.00000000000E+00 0.  1.
</event>
<event>
 7    1  0.1999542E-015  0.9000771E+02  0.7816164E-02  0.1186339E+00
        -11   -1    0    0    0    0  0.00000000000E+00  0.00000000000E+00  0.45593999997E+02  0.45594000000E+02  0.51100000000E-03 0. -1.
         11   -1    0    0    0    0 -0.00000000000E+00 -0.00000000000E+00 -0.45593999997E+02  0.45594000000E+02  0.51100000000E-03 0.  1.
    9900012    2    1    2    0    0 -0.73493427186E+00 -0.49981041731E+00 -0.77662150973E+00  0.90007711982E+02  0.89999972980E+02 0.  0.
         12    1    1    2    0    0  0.73493427186E+00  0.49981041731E+00  0.77662150973E+00  0.11802880185E+01  0.00000000000E+00 0. -1.
         11    1    3    3    0    0 -0.19849910953E+02 -0.51520041203E+01  0.30805910660E+02  0.37007651144E+02  0.51100000000E-03 0. -1.
        -11    1    3    3    0    0  0.66353732137E+01 -0.11103086069E+02  0.27436359117E+01  0.13222489789E+02  0.51100000000E-03 0.  1.
        -12    1    3    3    0    0  0.12479603467E+02  0.15755279772E+02 -0.34326168082E+02  0.39777571049E+02  0.00000000000E+00 0.  1.
</event>
<event>
 7    1  0.2142632E-015  0.9000776E+02  0.7816164E-02  0.1186339E+00
        -11   -1    0    0    0    0  0.00000000000E+00  0.00000000000E+00  0.45593999997E+02  0.45594000000E+02  0.51100000000E-03 0. -1.
         11   -1    0    0    0    0 -0.00000000000E+00 -0.00000000000E+00 -0.45593999997E+02  0.45594000000E+02  0.51100000000E-03 0.  1.
    9900012    2    1    2    0    0 -0.59137877186E+00  0.41358538903E+00 -0.93390864204E+00  0.90007759737E+02  0.90000021366E+02 0.  0.
         12    1    1    2    0    0  0.59137877186E+00 -0.41358538903E+00  0.93390864204E+00  0.11802402626E+01  0.00000000000E+00 0. -1.
         11    1    3    3    0    0 -0.19005229718E+02  0.24634397776E+02  0.23519783636E+02  0.39002981078E+02  0.51100000000E-03 0. -1.
        -11    1    3    3    0    0  0.75679897240E+00 -0.53960291622E+01  0.79128644426E+01  0.96074606089E+01  0.51100000000E-03 0.  1.
        -12    1    3    3    0    0  0.17657051974E+02 -0.18824783225E+02 -0.32366556720E+02  0.41397318051E+02  0.00000000000E+00 0.  1.
</event>
<event>
 7    1  0.1999542E-015  0.9000773E+02  0.7816164E-02  0.1186339E+00
        -11   -1    0    0    0    0  0.00000000000E+00  0.00000000000E+00  0.45593999997E+02  0.45594000000E+02  0.51100000000E-03 0.  1.
         11   -1    0    0    0    0 -0.00000000000E+00 -0.00000000000E+00 -0.45593999997E+02  0.45594000000E+02  0.51100000000E-03 0. -1.
    9900012    2    1    2    0    0 -0.47355771740E-01  0.11086474847E+01  0.40212768742E+00  0.90007725247E+02  0.89999986421E+02 0.  0.
         12    1    1    2    0    0  0.47355771740E-01 -0.11086474847E+01 -0.40212768742E+00  0.11802747525E+01  0.00000000000E+00 0. -1.
         11    1    3    3    0    0 -0.80916614967E+01  0.22225309325E+01 -0.39438356052E+01  0.92719183056E+01  0.51100000000E-03 0. -1.
        -11    1    3    3    0    0 -0.26077229661E+02 -0.17421895958E+02  0.22684474921E+02  0.38705681343E+02  0.51100000000E-03 0.  1.
         12    1    3    3    0    0  0.34121535386E+02  0.16308012510E+02 -0.18338511628E+02  0.42030125599E+02  0.00000000000E+00 0. -1.
</event>
<event>
 7    1  0.1999542E-015  0.9000746E+02  0.7816164E-02  0.1186340E+00
        -11   -1    0    0    0    0  0.00000000000E+00  0.00000000000E+00  0.45593999997E+02  0.45594000000E+02  0.51100000000E-03 0.  1.
         11   -1    0    0    0    0 -0.00000000000E+00 -0.00000000000E+00 -0.45593999997E+02  0.45594000000E+02  0.51100000000E-03 0. -1.
    9900012    2    1    2    0    0 -0.66949772588E+00  0.62361388775E+00  0.74602299173E+00  0.90007461229E+02  0.89999718917E+02 0.  0.
         12    1    1    2    0    0  0.66949772588E+00 -0.62361388775E+00 -0.74602299173E+00  0.11805387711E+01  0.00000000000E+00 0. -1.
         11    1    3    3    0    0 -0.77233077923E+01  0.29978862370E+01 -0.13427602121E+02  0.15777747118E+02  0.51100000000E-03 0. -1.
        -11    1    3    3    0    0  0.30655536287E+02  0.21743637496E+02  0.15020523138E+02  0.40474236153E+02  0.51100000000E-03 0.  1.
         12    1    3    3    0    0 -0.23601726220E+02 -0.24117909845E+02 -0.84689802556E+00  0.33755477958E+02  0.00000000000E+00 0. -1.
</event>
<event>
 7    1  0.1999542E-015  0.9000775E+02  0.7816164E-02  0.1186339E+00
        -11   -1    0    0    0    0  0.00000000000E+00  0.00000000000E+00  0.45593999997E+02  0.45594000000E+02  0.51100000000E-03 0. -1.
         11   -1    0    0    0    0 -0.00000000000E+00 -0.00000000000E+00 -0.45593999997E+02  0.45594000000E+02  0.51100000000E-03 0.  1.
    9900012    2    1    2    0    0  0.91216555964E+00 -0.32950198982E+00 -0.67258916025E+00  0.90007748439E+02  0.90000009918E+02 0.  0.
         12    1    1    2    0    0 -0.91216555964E+00  0.32950198982E+00  0.67258916025E+00  0.11802515613E+01  0.00000000000E+00 0. -1.
         11    1    3    3    0    0 -0.54698994676E+01 -0.27017176363E+01 -0.77540839033E+01  0.98663516972E+01  0.51100000000E-03 0. -1.
        -11    1    3    3    0    0 -0.45632718256E+01 -0.25983661646E+02 -0.24718156432E+02  0.36151920833E+02  0.51100000000E-03 0.  1.
         12    1    3    3    0    0  0.10945336853E+02  0.28355877292E+02  0.31799651175E+02  0.43989475908E+02  0.00000000000E+00 0. -1.
</event>
<event>
 7    1  0.1999542E-015  0.9000778E+02  0.7816164E-02  0.1186339E+00
        -11   -1    0    0    0    0  0.00000000000E+00  0.00000000000E+00  0.45593999997E+02  0.45594000000E+02  0.51100000000E-03 0.  1.
         11   -1    0    0    0    0 -0.00000000000E+00 -0.00000000000E+00 -0.45593999997E+02  0.45594000000E+02  0.51100000000E-03 0. -1.
    9900012    2    1    2    0    0 -0.11626014424E+01  0.19256823861E+00  0.64807185992E-01  0.90007777728E+02  0.90000039594E+02 0.  0.
         12    1    1    2    0    0  0.11626014424E+01 -0.19256823861E+00 -0.64807185992E-01  0.11802222722E+01  0.00000000000E+00 0. -1.
         11    1    3    3    0    0 -0.14694388900E+01 -0.35536328719E+01 -0.77668905269E+01  0.86667263692E+01  0.51100000000E-03 0. -1.
        -11    1    3    3    0    0 -0.38631081114E+02  0.25809672136E+01  0.15381792457E+02  0.41660789230E+02  0.51100000000E-03 0.  1.
         12    1    3    3    0    0  0.38937918562E+02  0.11652338969E+01 -0.75500947445E+01  0.39680262129E+02  0.00000000000E+00 0. -1.
</event>
<event>
 7    1  0.1999542E-015  0.9000772E+02  0.7816164E-02  0.1186339E+00
        -11   -1    0    0    0    0  0.00000000000E+00  0.00000000000E+00  0.45593999997E+02  0.45594000000E+02  0.51100000000E-03 0. -1.
         11   -1    0    0    0    0 -0.00000000000E+00 -0.00000000000E+00 -0.45593999997E+02  0.45594000000E+02  0.51100000000E-03 0.  1.
    9900012    2    1    2    0    0 -0.85372027661E+00 -0.17885409072E+00 -0.79513463458E+00  0.90007717753E+02  0.89999978827E+02 0.  0.
         12    1    1    2    0    0  0.85372027661E+00  0.17885409072E+00  0.79513463458E+00  0.11802822474E+01  0.00000000000E+00 0. -1.
         11    1    3    3    0    0  0.40931688795E+01  0.47659549973E+01  0.39216559294E+02  0.39716581949E+02  0.51100000000E-03 0. -1.
        -11    1    3    3    0    0 -0.42961834376E+01  0.29312645268E+01  0.33688116160E+01  0.61966439160E+01  0.51100000000E-03 0.  1.
        -12    1    3    3    0    0 -0.65070571850E+00 -0.78760736149E+01 -0.43380505545E+02  0.44094491888E+02  0.00000000000E+00 0.  1.
</event>
<event>
 7    1  0.1999542E-015  0.9000769E+02  0.7816164E-02  0.1186339E+00
        -11   -1    0    0    0    0  0.00000000000E+00  0.00000000000E+00  0.45593999997E+02  0.45594000000E+02  0.51100000000E-03 0.  1.
         11   -1    0    0    0    0 -0.00000000000E+00 -0.00000000000E+00 -0.45593999997E+02  0.45594000000E+02  0.51100000000E-03 0. -1.
    9900012    2    1    2    0    0 -0.24455080401E+00 -0.10800538830E+01  0.40841914933E+00  0.90007691698E+02  0.89999952429E+02 0.  0.
         12    1    1    2    0    0  0.24455080401E+00  0.10800538830E+01 -0.40841914933E+00  0.11803083019E+01  0.00000000000E+00 0. -1.
         11    1    3    3    0    0 -0.73870072137E+01  0.32528477179E+00  0.73388083888E+01  0.10417859405E+02  0.51100000000E-03 0. -1.
        -11    1    3    3    0    0 -0.21311225273E+02  0.26338212169E+02  0.11506367168E+02  0.35780808104E+02  0.51100000000E-03 0.  1.
         12    1    3    3    0    0  0.28453681683E+02 -0.27743550824E+02 -0.18436756407E+02  0.43809024189E+02  0.00000000000E+00 0. -1.
</event>
<event>
 7    1  0.1999542E-015  0.9000769E+02  0.7816164E-02  0.1186339E+00
        -11   -1    0    0    0    0  0.00000000000E+00  0.00000000000E+00  0.45593999997E+02  0.45594000000E+02  0.51100000000E-03 0.  1.
         11   -1    0    0    0    0 -0.00000000000E+00 -0.00000000000E+00 -0.45593999997E+02  0.45594000000E+02  0.51100000000E-03 0. -1.
    9900012    2    1    2    0    0  0.46432117618E+00  0.10815718039E+01  0.88014873740E-01  0.90007687186E+02  0.89999947857E+02 0.  0.
         12    1    1    2    0    0 -0.46432117618E+00 -0.10815718039E+01 -0.88014873740E-01  0.11803128143E+01  0.00000000000E+00 0. -1.
         11    1    3    3    0    0 -0.28710788639E+02 -0.22021632552E+02 -0.79104103885E+01  0.37038308240E+02  0.51100000000E-03 0. -1.
        -11    1    3    3    0    0 -0.48119119408E+01  0.84029248202E+01 -0.80683877894E+01  0.12604067750E+02  0.51100000000E-03 0.  1.
        -12    1    3    3    0    0  0.33987021756E+02  0.14700279536E+02  0.16066813052E+02  0.40365311196E+02  0.00000000000E+00 0.  1.
</event>
<event>
 7    1  0.1999542E-015  0.9000779E+02  0.7816164E-02  0.1186339E+00
        -11   -1    0    0    0    0  0.00000000000E+00  0.00000000000E+00  0.45593999997E+02  0.45594000000E+02  0.51100000000E-03 0.  1.
         11   -1    0    0    0    0 -0.00000000000E+00 -0.00000000000E+00 -0.45593999997E+02  0.45594000000E+02  0.51100000000E-03 0. -1.
    9900012    2    1    2    0    0 -0.14151610486E+00  0.87713453285E+00  0.77685778598E+00  0.90007788232E+02  0.90000050237E+02 0.  0.
         12    1    1    2    0    0  0.14151610486E+00 -0.87713453285E+00 -0.77685778598E+00  0.11802117676E+01  0.00000000000E+00 0. -1.
         11    1    3    3    0    0 -0.14980805215E+02 -0.35474968341E+02 -0.12760043676E+02  0.40567432979E+02  0.51100000000E-03 0. -1.
        -11    1    3    3    0    0  0.11275120054E+01  0.28673029809E+00  0.10688222064E+02  0.10751352879E+02  0.51100000000E-03 0.  1.
        -12    1    3    3    0    0  0.13711777105E+02  0.36065372575E+02  0.28486793982E+01  0.38689002374E+02  0.00000000000E+00 0.  1.
</event>
<event>
 7    1  0.1999542E-015  0.9000762E+02  0.7816164E-02  0.1186339E+00
        -11   -1    0    0    0    0  0.00000000000E+00  0.00000000000E+00  0.45593999997E+02  0.45594000000E+02  0.51100000000E-03 0.  1.
         11   -1    0    0    0    0 -0.00000000000E+00 -0.00000000000E+00 -0.45593999997E+02  0.45594000000E+02  0.51100000000E-03 0. -1.
    9900012    2    1    2    0    0 -0.54688082994E+00  0.83289336911E+00  0.63285080157E+00  0.90007622881E+02  0.89999882703E+02 0.  0.
         12    1    1    2    0    0  0.54688082994E+00 -0.83289336911E+00 -0.63285080157E+00  0.11803771192E+01  0.00000000000E+00 0. -1.
         11    1    3    3    0    0 -0.93888445778E+01 -0.56785667140E+01 -0.54828124052E+01  0.12266122230E+02  0.51100000000E-03 0. -1.
        -11    1    3    3    0    0  0.35864229978E+02 -0.11886536428E+01 -0.18512540734E+02  0.40377841127E+02  0.51100000000E-03 0.  1.
         12    1    3    3    0    0 -0.27022266231E+02  0.77001137259E+01  0.24628203941E+02  0.37363659523E+02  0.00000000000E+00 0. -1.
</event>
<event>
 7    1  0.1999542E-015  0.9000773E+02  0.7816164E-02  0.1186339E+00
        -11   -1    0    0    0    0  0.00000000000E+00  0.00000000000E+00  0.45593999997E+02  0.45594000000E+02  0.51100000000E-03 0. -1.
         11   -1    0    0    0    0 -0.00000000000E+00 -0.00000000000E+00 -0.45593999997E+02  0.45594000000E+02  0.51100000000E-03 0.  1.
    9900012    2    1    2    0    0 -0.26548150664E+00 -0.75948272978E+00 -0.86356165156E+00  0.90007731737E+02  0.89999992996E+02 0.  0.
         12    1    1    2    0    0  0.26548150664E+00  0.75948272978E+00  0.86356165156E+00  0.11802682633E+01  0.00000000000E+00 0. -1.
         11    1    3    3    0    0 -0.15952899723E+02  0.25829261949E+02 -0.24068363759E+02  0.38741862586E+02  0.51100000000E-03 0. -1.
        -11    1    3    3    0    0 -0.63437182743E+01  0.43599631394E+01  0.32637309779E+01  0.83608600202E+01  0.51100000000E-03 0.  1.
        -12    1    3    3    0    0  0.22031136491E+02 -0.30948707818E+02  0.19941071129E+02  0.42905009130E+02  0.00000000000E+00 0.  1.
</event>
<event>
 7    1  0.1999542E-015  0.9000732E+02  0.7816164E-02  0.1186340E+00
        -11   -1    0    0    0    0  0.00000000000E+00  0.00000000000E+00  0.45593999997E+02  0.45594000000E+02  0.51100000000E-03 0. -1.
         11   -1    0    0    0    0 -0.00000000000E+00 -0.00000000000E+00 -0.45593999997E+02  0.45594000000E+02  0.51100000000E-03 0.  1.
    9900012    2    1    2    0    0  0.36361484256E-01  0.23383733293E+00 -0.11567177370E+01  0.90007323084E+02  0.89999578948E+02 0.  0.
         12    1    1    2    0    0 -0.36361484256E-01 -0.23383733293E+00  0.11567177370E+01  0.11806769156E+01  0.00000000000E+00 0. -1.
         11    1    3    3    0    0 -0.11185995955E+02  0.34098158260E+02 -0.11798144675E+02  0.37775747779E+02  0.51100000000E-03 0. -1.
        -11    1    3    3    0    0  0.79787150994E+01  0.46387932656E+01 -0.50581501243E+01  0.10524408798E+02  0.51100000000E-03 0.  1.
        -12    1    3    3    0    0  0.32436423401E+01 -0.38503114193E+02  0.15699577063E+02  0.41707166508E+02  0.00000000000E+00 0.  1.
</event>
<event>
 7    1  0.1999542E-015  0.9000759E+02  0.7816164E-02  0.1186339E+00
        -11   -1    0    0    0    0  0.00000000000E+00  0.00000000000E+00  0.45593999997E+02  0.45594000000E+02  0.51100000000E-03 0. -1.
         11   -1    0    0    0    0 -0.00000000000E+00 -0.00000000000E+00 -0.45593999997E+02  0.45594000000E+02  0.51100000000E-03 0.  1.
    9900012    2    1    2    0    0 -0.61201705465E+00  0.99345259082E+00  0.17851092773E+00  0.90007585210E+02  0.89999844535E+02 0.  0.
         12    1    1    2    0    0  0.61201705465E+00 -0.99345259082E+00 -0.17851092773E+00  0.11804147901E+01  0.00000000000E+00 0. -1.
         11    1    3    3    0    0  0.56263224450E+01 -0.77161016145E+01 -0.13127801466E+01  0.96393526938E+01  0.51100000000E-03 0. -1.
        -11    1    3    3    0    0  0.29063092040E+02  0.19540072423E+02  0.18620038079E+02  0.39663378167E+02  0.51100000000E-03 0.  1.
         12    1    3    3    0    0 -0.35301431540E+02 -0.10830518218E+02 -0.17128747005E+02  0.40704854349E+02  0.00000000000E+00 0. -1.
</event>
<event>
 7    1  0.1999542E-015  0.9000770E+02  0.7816164E-02  0.1186339E+00
        -11   -1    0    0    0    0  0.00000000000E+00  0.00000000000E+00  0.45593999997E+02  0.45594000000E+02  0.51100000000E-03 0.  1.
         11   -1    0    0    0    0 -0.00000000000E+00 -0.00000000000E+00 -0.45593999997E+02  0.45594000000E+02  0.51100000000E-03 0. -1.
    9900012    2    1    2    0    0  0.86454756180E+00 -0.44986206592E+00  0.66579583018E+00  0.90007702388E+02  0.89999963260E+02 0.  0.
         12    1    1    2    0    0 -0.86454756180E+00  0.44986206592E+00 -0.66579583018E+00  0.11802976118E+01  0.00000000000E+00 0. -1.
         11    1    3    3    0    0 -0.27260616577E+02 -0.25025172767E+02  0.20310195387E+02  0.42212610972E+02  0.51100000000E-03 0. -1.
        -11    1    3    3    0    0  0.10219487118E+02 -0.28769835815E+01 -0.29839786824E+01  0.11028104122E+02  0.51100000000E-03 0.  1.
        -12    1    3    3    0    0  0.17905677021E+02  0.27452294283E+02 -0.16660420874E+02  0.36766987294E+02  0.00000000000E+00 0.  1.
</event>
<event>
 7    1  0.1999542E-015  0.9000774E+02  0.7816164E-02  0.1186339E+00
        -11   -1    0    0    0    0  0.00000000000E+00  0.00000000000E+00  0.45593999997E+02  0.45594000000E+02  0.51100000000E-03 0.  1.
         11   -1    0    0    0    0 -0.00000000000E+00 -0.00000000000E+00 -0.45593999997E+02  0.45594000000E+02  0.51100000000E-03 0. -1.
    9900012    2    1    2    0    0 -0.10233569942E+01 -0.48676882324E+00  0.32986216372E+00  0.90007740507E+02  0.90000001881E+02 0.  0.
         12    1    1    2    0    0  0.10233569942E+01  0.48676882324E+00 -0.32986216372E+00  0.11802594935E+01  0.00000000000E+00 0. -1.
         11    1    3    3    0    0  0.21280686180E+01 -0.22796365211E+02 -0.15016687673E+02  0.27380720440E+02  0.51100000000E-03 0. -1.
        -11    1    3    3    0    0 -0.80081731652E+00 -0.15964927761E+02  0.18140831734E+02  0.24178709706E+02  0.51100000000E-03 0.  1.
        -12    1    3    3    0    0 -0.23506082957E+01  0.38274524149E+02 -0.27942818972E+01  0.38448310360E+02  0.00000000000E+00 0.  1.
</event>
<event>
 7    1  0.1999542E-015  0.9000771E+02  0.7816164E-02  0.1186339E+00
        -11   -1    0    0    0    0  0.00000000000E+00  0.00000000000E+00  0.45593999997E+02  0.45594000000E+02  0.51100000000E-03 0. -1.
         11   -1    0    0    0    0 -0.00000000000E+00 -0.00000000000E+00 -0.45593999997E+02  0.45594000000E+02  0.51100000000E-03 0.  1.
    9900012    2    1    2    0    0  0.84351871194E+00 -0.72570513572E+00 -0.39360439480E+00  0.90007705045E+02  0.89999965951E+02 0.  0.
         12    1    1    2    0    0 -0.84351871194E+00  0.72570513572E+00  0.39360439480E+00  0.11802949551E+01  0.00000000000E+00 0. -1.
         11    1    3    3    0    0  0.16681148778E+01 -0.75571172293E+01 -0.49351409571E+01  0.91786842516E+01  0.51100000000E-03 0. -1.
        -11    1    3    3    0    0  0.17960527357E+02 -0.29880730649E+02 -0.11304793105E+02  0.36650197196E+02  0.51100000000E-03 0.  1.
         12    1    3    3    0    0 -0.18785123523E+02  0.36712142743E+02  0.15846329667E+02  0.44178823598E+02  0.00000000000E+00 0. -1.
</event>
<event>
 7    1  0.1999542E-015  0.9000812E+02  0.7816164E-02  0.1186338E+00
        -11   -1    0    0    0    0  0.00000000000E+00  0.00000000000E+00  0.45593999997E+02  0.45594000000E+02  0.51100000000E-03 0.  1.
         11   -1    0    0    0    0 -0.00000000000E+00 -0.00000000000E+00 -0.45593999997E+02  0.45594000000E+02  0.51100000000E-03 0. -1.
    9900012    2    1    2    0    0  0.96420344498E+00 -0.47440605998E+00  0.48721386263E+00  0.90008115793E+02  0.90000382121E+02 0.  0.
         12    1    1    2    0    0 -0.96420344498E+00  0.47440605998E+00 -0.48721386263E+00  0.11798842066E+01  0.00000000000E+00 0. -1.
         11    1    3    3    0    0  0.31715435566E+02  0.21045994765E+02  0.89834910069E+01  0.39108897450E+02  0.51100000000E-03 0. -1.
        -11    1    3    3    0    0  0.49795963334E+01 -0.74994908636E+01  0.48950526866E+01  0.10246964620E+02  0.51100000000E-03 0.  1.
        -12    1    3    3    0    0 -0.35730828455E+02 -0.14020909961E+02 -0.13391329831E+02  0.40652253724E+02  0.00000000000E+00 0.  1.
</event>
<event>
 7    1  0.1999542E-015  0.9000774E+02  0.7816164E-02  0.1186339E+00
        -11   -1    0    0    0    0  0.00000000000E+00  0.00000000000E+00  0.45593999997E+02  0.45594000000E+02  0.51100000000E-03 0.  1.
         11   -1    0    0    0    0 -0.00000000000E+00 -0.00000000000E+00 -0.45593999997E+02  0.45594000000E+02  0.51100000000E-03 0. -1.
    9900012    2    1    2    0    0  0.60980635614E+00 -0.76744374575E+00  0.65740689368E+00  0.90007738369E+02  0.89999999715E+02 0.  0.
         12    1    1    2    0    0 -0.60980635614E+00  0.76744374575E+00 -0.65740689368E+00  0.11802616315E+01  0.00000000000E+00 0. -1.
         11    1    3    3    0    0  0.22478763100E+02 -0.22104435342E+02  0.15020751562E+02  0.34921681375E+02  0.51100000000E-03 0. -1.
        -11    1    3    3    0    0  0.64265797615E+01 -0.87239640546E+01  0.13380660557E+01  0.10917824751E+02  0.51100000000E-03 0.  1.
        -12    1    3    3    0    0 -0.28295536505E+02  0.30060955651E+02 -0.15701410724E+02  0.44168232243E+02  0.00000000000E+00 0.  1.
</event>
<event>
 7    1  0.1999542E-015  0.9000787E+02  0.7816164E-02  0.1186339E+00
        -11   -1    0    0    0    0  0.00000000000E+00  0.00000000000E+00  0.45593999997E+02  0.45594000000E+02  0.51100000000E-03 0.  1.
         11   -1    0    0    0    0 -0.00000000000E+00 -0.00000000000E+00 -0.45593999997E+02  0.45594000000E+02  0.51100000000E-03 0. -1.
    9900012    2    1    2    0    0 -0.80574378693E+00  0.37737886399E+00  0.77528439327E+00  0.90007871300E+02  0.90000134401E+02 0.  0.
         12    1    1    2    0    0  0.80574378693E+00 -0.37737886399E+00 -0.77528439327E+00  0.11801286996E+01  0.00000000000E+00 0. -1.
         11    1    3    3    0    0 -0.24232917619E+02  0.22551295648E+02  0.11631764909E+01  0.33123227674E+02  0.51100000000E-03 0. -1.
        -11    1    3    3    0    0 -0.14025249916E+02 -0.80866668767E+01 -0.40940553312E+01  0.16699194762E+02  0.51100000000E-03 0.  1.
        -12    1    3    3    0    0  0.37452423748E+02 -0.14087249908E+02  0.37061632336E+01  0.40185448865E+02  0.00000000000E+00 0.  1.
</event>
<event>
 7    1  0.1999542E-015  0.9000779E+02  0.7816164E-02  0.1186339E+00
        -11   -1    0    0    0    0  0.00000000000E+00  0.00000000000E+00  0.45593999997E+02  0.45594000000E+02  0.51100000000E-03 0.  1.
         11   -1    0    0    0    0 -0.00000000000E+00 -0.00000000000E+00 -0.45593999997E+02  0.45594000000E+02  0.51100000000E-03 0. -1.
    9900012    2    1    2    0    0  0.20814198345E+00  0.77652080594E+00  0.86405004469E+00  0.90007792337E+02  0.90000054396E+02 0.  0.
         12    1    1    2    0    0 -0.20814198345E+00 -0.77652080594E+00 -0.86405004469E+00  0.11802076627E+01  0.00000000000E+00 0. -1.
         11    1    3    3    0    0 -0.17922500914E+02  0.23612837114E+02 -0.10812843003E+02  0.31554709469E+02  0.51100000000E-03 0. -1.
        -11    1    3    3    0    0 -0.15816286876E+02 -0.12789391440E+01 -0.19642750668E+01  0.15989027259E+02  0.51100000000E-03 0.  1.
        -12    1    3    3    0    0  0.33946929774E+02 -0.21557377164E+02  0.13641168115E+02  0.42464055610E+02  0.00000000000E+00 0.  1.
</event>
<event>
 7    1  0.1999542E-015  0.9000770E+02  0.7816164E-02  0.1186339E+00
        -11   -1    0    0    0    0  0.00000000000E+00  0.00000000000E+00  0.45593999997E+02  0.45594000000E+02  0.51100000000E-03 0. -1.
         11   -1    0    0    0    0 -0.00000000000E+00 -0.00000000000E+00 -0.45593999997E+02  0.45594000000E+02  0.51100000000E-03 0.  1.
    9900012    2    1    2    0    0 -0.21906390558E+00 -0.97882852940E+00 -0.62210616587E+00  0.90007699036E+02  0.89999959863E+02 0.  0.
         12    1    1    2    0    0  0.21906390558E+00  0.97882852940E+00  0.62210616587E+00  0.11803009643E+01  0.00000000000E+00 0. -1.
         11    1    3    3    0    0  0.21833710766E+02 -0.28107447734E+02  0.67943032091E+01  0.36233990952E+02  0.51100000000E-03 0. -1.
        -11    1    3    3    0    0  0.10674126543E+02  0.14827265471E+01  0.24258902171E+01  0.11046284401E+02  0.51100000000E-03 0.  1.
        -12    1    3    3    0    0 -0.32726901214E+02  0.25645892658E+02 -0.98422995921E+01  0.42727423683E+02  0.00000000000E+00 0.  1.
</event>
<event>
 7    1  0.1999542E-015  0.9000784E+02  0.7816164E-02  0.1186339E+00
        -11   -1    0    0    0    0  0.00000000000E+00  0.00000000000E+00  0.45593999997E+02  0.45594000000E+02  0.51100000000E-03 0.  1.
         11   -1    0    0    0    0 -0.00000000000E+00 -0.00000000000E+00 -0.45593999997E+02  0.45594000000E+02  0.51100000000E-03 0. -1.
    9900012    2    1    2    0    0  0.48442819294E+00 -0.10002844529E+01 -0.39690128657E+00  0.90007843107E+02  0.90000105836E+02 0.  0.
         12    1    1    2    0    0 -0.48442819294E+00  0.10002844529E+01  0.39690128657E+00  0.11801568930E+01  0.00000000000E+00 0. -1.
         11    1    3    3    0    0 -0.91721058491E+01  0.20799267546E+00 -0.36979703293E+02  0.38100777453E+02  0.51100000000E-03 0. -1.
        -11    1    3    3    0    0  0.46614708841E+01 -0.71581290372E+01 -0.48020500120E+01  0.97993778728E+01  0.51100000000E-03 0.  1.
        -12    1    3    3    0    0  0.49950631579E+01  0.59498519088E+01  0.41384852018E+02  0.42107687781E+02  0.00000000000E+00 0.  1.
</event>
<event>
 7    1  0.1999542E-015  0.9000771E+02  0.7816164E-02  0.1186339E+00
        -11   -1    0    0    0    0  0.00000000000E+00  0.00000000000E+00  0.45593999997E+02  0.45594000000E+02  0.51100000000E-03 0. -1.
         11   -1    0    0    0    0 -0.00000000000E+00 -0.00000000000E+00 -0.45593999997E+02  0.45594000000E+02  0.51100000000E-03 0.  1.
    9900012    2    1    2    0    0 -0.82083726873E+00  0.56975706083E+00 -0.62823818699E+00  0.90007711836E+02  0.89999972832E+02 0.  0.
         12    1    1    2    0    0  0.82083726873E+00 -0.56975706083E+00  0.62823818699E+00  0.11802881638E+01  0.00000000000E+00 0. -1.
         11    1    3    3    0    0 -0.33518675176E+02  0.13509416294E+02  0.58731376681E+01  0.36612834642E+02  0.51100000000E-03 0. -1.
        -11    1    3    3    0    0 -0.70400673141E+01 -0.15551073843E+01  0.68606456778E+01  0.99523548038E+01  0.51100000000E-03 0.  1.
        -12    1    3    3    0    0  0.39737905222E+02 -0.11384551849E+02 -0.13362021533E+02  0.43442522391E+02  0.00000000000E+00 0.  1.
</event>
<event>
 7    1  0.1999542E-015  0.9000775E+02  0.7816164E-02  0.1186339E+00
        -11   -1    0    0    0    0  0.00000000000E+00  0.00000000000E+00  0.45593999997E+02  0.45594000000E+02  0.51100000000E-03 0. -1.
         11   -1    0    0    0    0 -0.00000000000E+00 -0.00000000000E+00 -0.45593999997E+02  0.45594000000E+02  0.51100000000E-03 0.  1.
    9900012    2    1    2    0    0 -0.20452459910E+00 -0.10080942810E+01  0.57870911649E+00  0.90007750606E+02  0.90000012114E+02 0.  0.
         12    1    1    2    0    0  0.20452459910E+00  0.10080942810E+01 -0.57870911649E+00  0.11802493942E+01  0.00000000000E+00 0. -1.
         11    1    3    3    0    0 -0.23335784640E+00 -0.89863691603E+01 -0.10824561295E+02  0.14070551306E+02  0.51100000000E-03 0. -1.
        -11    1    3    3    0    0  0.17628781037E+02 -0.24303905508E+02 -0.12021134771E+02  0.32341326893E+02  0.51100000000E-03 0.  1.
         12    1    3    3    0    0 -0.17599947790E+02  0.32282180387E+02  0.23424405182E+02  0.43595872407E+02  0.00000000000E+00 0. -1.
</event>
<event>
 7    1  0.1999542E-015  0.9000757E+02  0.7816164E-02  0.1186339E+00
        -11   -1    0    0    0    0  0.00000000000E+00  0.00000000000E+00  0.45593999997E+02  0.45594000000E+02  0.51100000000E-03 0. -1.
         11   -1    0    0    0    0 -0.00000000000E+00 -0.00000000000E+00 -0.45593999997E+02  0.45594000000E+02  0.51100000000E-03 0.  1.
    9900012    2    1    2    0    0  0.85292078130E+00  0.81571706494E+00  0.23336767514E-01  0.90007570928E+02  0.89999830064E+02 0.  0.
         12    1    1    2    0    0 -0.85292078130E+00 -0.81571706494E+00 -0.23336767514E-01  0.11804290720E+01  0.00000000000E+00 0. -1.
         11    1    3    3    0    0 -0.10105888910E+02 -0.30510519536E+02  0.27671016726E+02  0.42411153721E+02  0.51100000000E-03 0. -1.
        -11    1    3    3    0    0 -0.32349298074E+01  0.10038167444E+02 -0.90483785200E+00  0.10585287350E+02  0.51100000000E-03 0.  1.
        -12    1    3    3    0    0  0.14193739498E+02  0.21288069157E+02 -0.26742842106E+02  0.37011129857E+02  0.00000000000E+00 0.  1.
</event>
<event>
 7    1  0.1999542E-015  0.9000769E+02  0.7816164E-02  0.1186339E+00
        -11   -1    0    0    0    0  0.00000000000E+00  0.00000000000E+00  0.45593999997E+02  0.45594000000E+02  0.51100000000E-03 0. -1.
         11   -1    0    0    0    0 -0.00000000000E+00 -0.00000000000E+00 -0.45593999997E+02  0.45594000000E+02  0.51100000000E-03 0.  1.
    9900012    2    1    2    0    0 -0.33564340852E+00  0.71932078093E+00 -0.87353201095E+00  0.90007687729E+02  0.89999948407E+02 0.  0.
         12    1    1    2    0    0  0.33564340852E+00 -0.71932078093E+00  0.87353201095E+00  0.11803122713E+01  0.00000000000E+00 0. -1.
         11    1    3    3    0    0 -0.33795505474E+01  0.13435124858E+02  0.55880740275E+01  0.14938223236E+02  0.51100000000E-03 0. -1.
        -11    1    3    3    0    0 -0.13134709685E+02 -0.31535007210E+02  0.19351393197E+02  0.39261351189E+02  0.51100000000E-03 0.  1.
         12    1    3    3    0    0  0.16178616824E+02  0.18819203133E+02 -0.25812999236E+02  0.35808113305E+02  0.00000000000E+00 0. -1.
</event>
<event>
 7    1  0.1999542E-015  0.9000769E+02  0.7816164E-02  0.1186339E+00
        -11   -1    0    0    0    0  0.00000000000E+00  0.00000000000E+00  0.45593999997E+02  0.45594000000E+02  0.51100000000E-03 0.  1.
         11   -1    0    0    0    0 -0.00000000000E+00 -0.00000000000E+00 -0.45593999997E+02  0.45594000000E+02  0.51100000000E-03 0. -1.
    9900012    2    1    2    0    0 -0.34770989560E+00  0.75672565548E+00  0.83641986738E+00  0.90007688989E+02  0.89999949683E+02 0.  0.
         12    1    1    2    0    0  0.34770989560E+00 -0.75672565548E+00 -0.83641986738E+00  0.11803110114E+01  0.00000000000E+00 0. -1.
         11    1    3    3    0    0  0.29492327703E+01 -0.63510995032E+01 -0.73311270900E+01  0.10138040417E+02  0.51100000000E-03 0. -1.
        -11    1    3    3    0    0 -0.10181102397E+01 -0.16398166005E+02  0.38247280851E+02  0.41626804941E+02  0.51100000000E-03 0.  1.
         12    1    3    3    0    0 -0.22788324262E+01  0.23505991164E+02 -0.30079733894E+02  0.38242843631E+02  0.00000000000E+00 0. -1.
</event>
<event>
 7    1  0.1999542E-015  0.9000749E+02  0.7816164E-02  0.1186340E+00
        -11   -1    0    0    0    0  0.00000000000E+00  0.00000000000E+00  0.45593999997E+02  0.45594000000E+02  0.51100000000E-03 0.  1.
         11   -1    0    0    0    0 -0.00000000000E+00 -0.00000000000E+00 -0.45593999997E+02  0.45594000000E+02  0.51100000000E-03 0. -1.
    9900012    2    1    2    0    0  0.36054366544E+00  0.11228478932E+01 -0.53195775753E-01  0.90007487858E+02  0.89999745898E+02 0.  0.
         12    1    1    2    0    0 -0.36054366544E+00 -0.11228478932E+01  0.53195775753E-01  0.11805121417E+01  0.00000000000E+00 0. -1.
         11    1    3    3    0    0  0.23738824788E+02  0.29079272390E+02 -0.76884514980E+01  0.38317726599E+02  0.51100000000E-03 0. -1.
        -11    1    3    3    0    0  0.52735299442E+01  0.18674481015E+01  0.86719721579E+01  0.10319911911E+02  0.51100000000E-03 0.  1.
        -12    1    3    3    0    0 -0.28651811066E+02 -0.29823872598E+02 -0.10367164356E+01  0.41369849348E+02  0.00000000000E+00 0.  1.
</event>
<event>
 7    1  0.1999542E-015  0.9000761E+02  0.7816164E-02  0.1186339E+00
        -11   -1    0    0    0    0  0.00000000000E+00  0.00000000000E+00  0.45593999997E+02  0.45594000000E+02  0.51100000000E-03 0. -1.
         11   -1    0    0    0    0 -0.00000000000E+00 -0.00000000000E+00 -0.45593999997E+02  0.45594000000E+02  0.51100000000E-03 0.  1.
    9900012    2    1    2    0    0 -0.44673053759E+00  0.46420672011E+00 -0.98907455797E+00  0.90007608314E+02  0.89999867943E+02 0.  0.
         12    1    1    2    0    0  0.44673053759E+00 -0.46420672011E+00  0.98907455797E+00  0.11803916865E+01  0.00000000000E+00 0. -1.
         11    1    3    3    0    0  0.20472044021E+01 -0.70972206087E+01 -0.59331832631E+01  0.94743997238E+01  0.51100000000E-03 0. -1.
        -11    1    3    3    0    0  0.37356198821E+02  0.98838309791E+00 -0.78139791251E+01  0.38177490247E+02  0.51100000000E-03 0.  1.
         12    1    3    3    0    0 -0.39850133761E+02  0.65730442309E+01  0.12758087830E+02  0.42355718343E+02  0.00000000000E+00 0. -1.
</event>
<event>
 7    1  0.1999542E-015  0.9000774E+02  0.7816164E-02  0.1186339E+00
        -11   -1    0    0    0    0  0.00000000000E+00  0.00000000000E+00  0.45593999997E+02  0.45594000000E+02  0.51100000000E-03 0.  1.
         11   -1    0    0    0    0 -0.00000000000E+00 -0.00000000000E+00 -0.45593999997E+02  0.45594000000E+02  0.51100000000E-03 0. -1.
    9900012    2    1    2    0    0  0.16785167613E+00  0.94288642359E+00  0.68978696250E+00  0.90007739416E+02  0.90000000776E+02 0.  0.
         12    1    1    2    0    0 -0.16785167613E+00 -0.94288642359E+00 -0.68978696250E+00  0.11802605842E+01  0.00000000000E+00 0. -1.
         11    1    3    3    0    0 -0.54303109359E+01 -0.83814637446E+01 -0.30670099022E+00  0.99915602946E+01  0.51100000000E-03 0. -1.
        -11    1    3    3    0    0  0.37945423511E+02 -0.93689587274E+01  0.12314888249E+02  0.40979129151E+02  0.51100000000E-03 0.  1.
         12    1    3    3    0    0 -0.32347260899E+02  0.18693308896E+02 -0.11318400297E+02  0.39037049971E+02  0.00000000000E+00 0. -1.
</event>
<event>
 7    1  0.2069494E-015  0.9000772E+02  0.7816164E-02  0.1186339E+00
        -11   -1    0    0    0    0  0.00000000000E+00  0.00000000000E+00  0.45593999997E+02  0.45594000000E+02  0.51100000000E-03 0.  1.
         11   -1    0    0    0    0 -0.00000000000E+00 -0.00000000000E+00 -0.45593999997E+02  0.45594000000E+02  0.51100000000E-03 0. -1.
    9900012    2    1    2    0    0  0.14701430090E+00  0.11321824518E+01  0.29935637568E+00  0.90007718445E+02  0.89999979529E+02 0.  0.
         12    1    1    2    0    0 -0.14701430090E+00 -0.11321824518E+01 -0.29935637568E+00  0.11802815547E+01  0.00000000000E+00 0. -1.
         11    1    3    3    0    0  0.26234709135E+02  0.23547823065E+02 -0.23797591716E+02  0.42533343464E+02  0.51100000000E-03 0. -1.
        -11    1    3    3    0    0 -0.57661502563E+00 -0.94467535069E+01 -0.85901287115E+00  0.95032383997E+01  0.51100000000E-03 0.  1.
        -12    1    3    3    0    0 -0.25511079808E+02 -0.12968887106E+02  0.24955960963E+02  0.37971136582E+02  0.00000000000E+00 0.  1.
</event>
<event>
 7    1  0.1999542E-015  0.9000775E+02  0.7816164E-02  0.1186339E+00
        -11   -1    0    0    0    0  0.00000000000E+00  0.00000000000E+00  0.45593999997E+02  0.45594000000E+02  0.51100000000E-03 0.  1.
         11   -1    0    0    0    0 -0.00000000000E+00 -0.00000000000E+00 -0.45593999997E+02  0.45594000000E+02  0.51100000000E-03 0. -1.
    9900012    2    1    2    0    0  0.75082428590E+00 -0.91016003333E+00 -0.29198944069E-01  0.90007753851E+02  0.90000015402E+02 0.  0.
         12    1    1    2    0    0 -0.75082428590E+00  0.91016003333E+00  0.29198944069E-01  0.11802461493E+01  0.00000000000E+00 0. -1.
         11    1    3    3    0    0  0.56462038928E+00  0.77755164668E+01  0.52323516004E+01  0.93890870717E+01  0.51100000000E-03 0. -1.
        -11    1    3    3    0    0  0.10537581946E+02  0.31844662798E+02  0.11635443421E+02  0.35503615673E+02  0.51100000000E-03 0.  1.
         12    1    3    3    0    0 -0.10351378050E+02 -0.40530339298E+02 -0.16896993966E+02  0.45115051106E+02  0.00000000000E+00 0. -1.
</event>
<event>
 7    1  0.1999542E-015  0.9000779E+02  0.7816164E-02  0.1186339E+00
        -11   -1    0    0    0    0  0.00000000000E+00  0.00000000000E+00  0.45593999997E+02  0.45594000000E+02  0.51100000000E-03 0.  1.
         11   -1    0    0    0    0 -0.00000000000E+00 -0.00000000000E+00 -0.45593999997E+02  0.45594000000E+02  0.51100000000E-03 0. -1.
    9900012    2    1    2    0    0 -0.84814004958E+00  0.31805890829E+00  0.75656405167E+00  0.90007791469E+02  0.90000053516E+02 0.  0.
         12    1    1    2    0    0  0.84814004958E+00 -0.31805890829E+00 -0.75656405167E+00  0.11802085312E+01  0.00000000000E+00 0. -1.
         11    1    3    3    0    0  0.52041960668E+01  0.28188576661E+02  0.12628420691E+02  0.31323418081E+02  0.51100000000E-03 0. -1.
        -11    1    3    3    0    0  0.73566362857E+01  0.87512528678E+01  0.89089397724E+01  0.14493920530E+02  0.51100000000E-03 0.  1.
        -12    1    3    3    0    0 -0.13408972402E+02 -0.36621770621E+02 -0.20780796412E+02  0.44190452858E+02  0.00000000000E+00 0.  1.
</event>
<event>
 7    1  0.1999542E-015  0.9000778E+02  0.7816164E-02  0.1186339E+00
        -11   -1    0    0    0    0  0.00000000000E+00  0.00000000000E+00  0.45593999997E+02  0.45594000000E+02  0.51100000000E-03 0.  1.
         11   -1    0    0    0    0 -0.00000000000E+00 -0.00000000000E+00 -0.45593999997E+02  0.45594000000E+02  0.51100000000E-03 0. -1.
    9900012    2    1    2    0    0 -0.33462337482E+00 -0.79120732804E+00  0.80928813861E+00  0.90007775814E+02  0.90000037654E+02 0.  0.
         12    1    1    2    0    0  0.33462337482E+00  0.79120732804E+00 -0.80928813861E+00  0.11802241864E+01  0.00000000000E+00 0. -1.
         11    1    3    3    0    0  0.51417354749E+01  0.94667833641E+01 -0.16261212004E+02  0.19506010537E+02  0.51100000000E-03 0. -1.
        -11    1    3    3    0    0 -0.35353786589E+02  0.24143107990E+01  0.45953260110E+01  0.35732844054E+02  0.51100000000E-03 0.  1.
         12    1    3    3    0    0  0.29877427739E+02 -0.12672301491E+02  0.12475174132E+02  0.34768921223E+02  0.00000000000E+00 0. -1.
</event>
<event>
 7    1  0.1999542E-015  0.9000775E+02  0.7816164E-02  0.1186339E+00
        -11   -1    0    0    0    0  0.00000000000E+00  0.00000000000E+00  0.45593999997E+02  0.45594000000E+02  0.51100000000E-03 0.  1.
         11   -1    0    0    0    0 -0.00000000000E+00 -0.00000000000E+00 -0.45593999997E+02  0.45594000000E+02  0.51100000000E-03 0. -1.
    9900012    2    1    2    0    0  0.60794580443E+00  0.33111457817E+00  0.95589984498E+00  0.90007754484E+02  0.90000016043E+02 0.  0.
         12    1    1    2    0    0 -0.60794580443E+00 -0.33111457817E+00 -0.95589984498E+00  0.11802455163E+01  0.00000000000E+00 0. -1.
         11    1    3    3    0    0 -0.34443829318E+02 -0.22007161085E+01  0.57231952152E+01  0.34985361127E+02  0.51100000000E-03 0. -1.
        -11    1    3    3    0    0 -0.78760875796E+01 -0.46365294031E+00  0.68512246513E+01  0.10449258782E+02  0.51100000000E-03 0.  1.
        -12    1    3    3    0    0  0.42927862702E+02  0.29954836270E+01 -0.11618520022E+02  0.44573134575E+02  0.00000000000E+00 0.  1.
</event>
<event>
 7    1  0.1999542E-015  0.9000772E+02  0.7816164E-02  0.1186339E+00
        -11   -1    0    0    0    0  0.00000000000E+00  0.00000000000E+00  0.45593999997E+02  0.45594000000E+02  0.51100000000E-03 0. -1.
         11   -1    0    0    0    0 -0.00000000000E+00 -0.00000000000E+00 -0.45593999997E+02  0.45594000000E+02  0.51100000000E-03 0.  1.
    9900012    2    1    2    0    0  0.89062075359E+00 -0.77011513720E+00 -0.82378313238E-01  0.90007716628E+02  0.89999977688E+02 0.  0.
         12    1    1    2    0    0 -0.89062075359E+00  0.77011513720E+00  0.82378313238E-01  0.11802833718E+01  0.00000000000E+00 0. -1.
         11    1    3    3    0    0 -0.17482073420E+01  0.88219735475E+01  0.30489663532E+02  0.31788410290E+02  0.51100000000E-03 0. -1.
        -11    1    3    3    0    0 -0.24106311390E+00  0.98631071660E+01  0.94275469776E+01  0.13646158312E+02  0.51100000000E-03 0.  1.
        -12    1    3    3    0    0  0.28798912094E+01 -0.19455195851E+02 -0.39999588823E+02  0.44573148027E+02  0.00000000000E+00 0.  1.
</event>
<event>
 7    1  0.1999542E-015  0.9000771E+02  0.7816164E-02  0.1186339E+00
        -11   -1    0    0    0    0  0.00000000000E+00  0.00000000000E+00  0.45593999997E+02  0.45594000000E+02  0.51100000000E-03 0.  1.
         11   -1    0    0    0    0 -0.00000000000E+00 -0.00000000000E+00 -0.45593999997E+02  0.45594000000E+02  0.51100000000E-03 0. -1.
    9900012    2    1    2    0    0  0.53771065533E+00  0.56359918034E+00  0.88674231780E+00  0.90007708204E+02  0.89999969153E+02 0.  0.
         12    1    1    2    0    0 -0.53771065533E+00 -0.56359918034E+00 -0.88674231780E+00  0.11802917957E+01  0.00000000000E+00 0. -1.
         11    1    3    3    0    0 -0.15162963208E+01 -0.52687227324E+01  0.74434129407E+01  0.92446195287E+01  0.51100000000E-03 0. -1.
        -11    1    3    3    0    0  0.22090357695E+02  0.37111219479E+02 -0.96862213081E+00  0.43199128966E+02  0.51100000000E-03 0.  1.
         12    1    3    3    0    0 -0.20036350719E+02 -0.31278897567E+02 -0.55880484921E+01  0.37563959709E+02  0.00000000000E+00 0. -1.
</event>
<event>
 7    1  0.1999542E-015  0.9000832E+02  0.7816164E-02  0.1186338E+00
        -11   -1    0    0    0    0  0.00000000000E+00  0.00000000000E+00  0.45593999997E+02  0.45594000000E+02  0.51100000000E-03 0.  1.
         11   -1    0    0    0    0 -0.00000000000E+00 -0.00000000000E+00 -0.45593999997E+02  0.45594000000E+02  0.51100000000E-03 0. -1.
    9900012    2    1    2    0    0 -0.29014741536E+00  0.11356112292E+01  0.13355024271E+00  0.90008324598E+02  0.90000593681E+02 0.  0.
         12    1    1    2    0    0  0.29014741536E+00 -0.11356112292E+01 -0.13355024271E+00  0.11796754019E+01  0.00000000000E+00 0. -1.
         11    1    3    3    0    0 -0.17230260355E+02 -0.90248355967E+01 -0.33475259742E+02  0.38715921073E+02  0.51100000000E-03 0. -1.
        -11    1    3    3    0    0  0.25063954772E+01  0.96087037935E+01 -0.42275773074E+01  0.10792664964E+02  0.51100000000E-03 0.  1.
        -12    1    3    3    0    0  0.14433717463E+02  0.55174303240E+00  0.37836387292E+02  0.40499738561E+02  0.00000000000E+00 0.  1.
</event>
<event>
 7    1  0.1999542E-015  0.9000780E+02  0.7816164E-02  0.1186339E+00
        -11   -1    0    0    0    0  0.00000000000E+00  0.00000000000E+00  0.45593999997E+02  0.45594000000E+02  0.51100000000E-03 0.  1.
         11   -1    0    0    0    0 -0.00000000000E+00 -0.00000000000E+00 -0.45593999997E+02  0.45594000000E+02  0.51100000000E-03 0. -1.
    9900012    2    1    2    0    0 -0.82035836468E+00 -0.25079044865E+00  0.81055212189E+00  0.90007797289E+02  0.90000059414E+02 0.  0.
         12    1    1    2    0    0  0.82035836468E+00  0.25079044865E+00 -0.81055212189E+00  0.11802027105E+01  0.00000000000E+00 0. -1.
         11    1    3    3    0    0  0.34190236912E+01  0.54811961381E+01 -0.28475162055E+00  0.64663991411E+01  0.51100000000E-03 0. -1.
        -11    1    3    3    0    0  0.56872765881E+01  0.20140873068E+02  0.34368719641E+02  0.40239393297E+02  0.51100000000E-03 0.  1.
         12    1    3    3    0    0 -0.99266586440E+01 -0.25872859655E+02 -0.33273415898E+02  0.43302004851E+02  0.00000000000E+00 0. -1.
</event>
<event>
 7    1  0.1999542E-015  0.9000776E+02  0.7816164E-02  0.1186339E+00
        -11   -1    0    0    0    0  0.00000000000E+00  0.00000000000E+00  0.45593999997E+02  0.45594000000E+02  0.51100000000E-03 0.  1.
         11   -1    0    0    0    0 -0.00000000000E+00 -0.00000000000E+00 -0.45593999997E+02  0.45594000000E+02  0.51100000000E-03 0. -1.
    9900012    2    1    2    0    0 -0.38084776884E+00  0.74468177529E+00  0.83268585178E+00  0.90007762017E+02  0.90000023675E+02 0.  0.
         12    1    1    2    0    0  0.38084776884E+00 -0.74468177529E+00 -0.83268585178E+00  0.11802379833E+01  0.00000000000E+00 0. -1.
         11    1    3    3    0    0  0.78005095122E+01 -0.22831814544E+01  0.64713732573E+01  0.10389395473E+02  0.51100000000E-03 0. -1.
        -11    1    3    3    0    0 -0.93412965494E+00 -0.36605036098E+02 -0.12614459590E+02  0.38728876268E+02  0.51100000000E-03 0.  1.
         12    1    3    3    0    0 -0.72472276261E+01  0.39632899328E+02  0.69757721849E+01  0.40889490275E+02  0.00000000000E+00 0. -1.
</event>
<event>
 7    1  0.1999542E-015  0.9000769E+02  0.7816164E-02  0.1186339E+00
        -11   -1    0    0    0    0  0.00000000000E+00  0.00000000000E+00  0.45593999997E+02  0.45594000000E+02  0.51100000000E-03 0. -1.
         11   -1    0    0    0    0 -0.00000000000E+00 -0.00000000000E+00 -0.45593999997E+02  0.45594000000E+02  0.51100000000E-03 0.  1.
    9900012    2    1    2    0    0 -0.10875689219E+01  0.42796565010E+00 -0.16483737142E+00  0.90007689822E+02  0.89999950528E+02 0.  0.
         12    1    1    2    0    0  0.10875689219E+01 -0.42796565010E+00  0.16483737142E+00  0.11803101781E+01  0.00000000000E+00 0. -1.
         11    1    3    3    0    0 -0.35700000825E+02 -0.49193718638E+01 -0.98483029173E+01  0.37358792125E+02  0.51100000000E-03 0. -1.
        -11    1    3    3    0    0 -0.69006226844E+01  0.70647928095E+01 -0.43744703543E+00  0.98854059626E+01  0.51100000000E-03 0.  1.
        -12    1    3    3    0    0  0.41513054587E+02 -0.17174552956E+01  0.10120912581E+02  0.42763491735E+02  0.00000000000E+00 0.  1.
</event>
<event>
 7    1  0.1999542E-015  0.9000760E+02  0.7816164E-02  0.1186339E+00
        -11   -1    0    0    0    0  0.00000000000E+00  0.00000000000E+00  0.45593999997E+02  0.45594000000E+02  0.51100000000E-03 0.  1.
         11   -1    0    0    0    0 -0.00000000000E+00 -0.00000000000E+00 -0.45593999997E+02  0.45594000000E+02  0.51100000000E-03 0. -1.
    9900012    2    1    2    0    0 -0.35796756452E+00  0.70669425657E+00  0.87508971136E+00  0.90007601952E+02  0.89999861497E+02 0.  0.
         12    1    1    2    0    0  0.35796756452E+00 -0.70669425657E+00 -0.87508971136E+00  0.11803980483E+01  0.00000000000E+00 0. -1.
         11    1    3    3    0    0  0.27702511234E+01 -0.85180317666E+01 -0.30398292823E+00  0.89623413428E+01  0.51100000000E-03 0. -1.
        -11    1    3    3    0    0  0.25737742966E+02 -0.13910463900E+02  0.23773777390E+02  0.37697810421E+02  0.51100000000E-03 0.  1.
         12    1    3    3    0    0 -0.28865961654E+02  0.23135189924E+02 -0.22594704750E+02  0.43347450188E+02  0.00000000000E+00 0. -1.
</event>
<event>
 7    1  0.1999542E-015  0.9000773E+02  0.7816164E-02  0.1186339E+00
        -11   -1    0    0    0    0  0.00000000000E+00  0.00000000000E+00  0.45593999997E+02  0.45594000000E+02  0.51100000000E-03 0.  1.
         11   -1    0    0    0    0 -0.00000000000E+00 -0.00000000000E+00 -0.45593999997E+02  0.45594000000E+02  0.51100000000E-03 0. -1.
    9900012    2    1    2    0    0  0.15423546803E+00 -0.94783080963E+00 -0.68619369727E+00  0.90007731550E+02  0.89999992807E+02 0.  0.
         12    1    1    2    0    0 -0.15423546803E+00  0.94783080963E+00  0.68619369727E+00  0.11802684497E+01  0.00000000000E+00 0. -1.
         11    1    3    3    0    0  0.43483493415E+02  0.51974443899E+00 -0.77774879718E+01  0.44176618853E+02  0.51100000000E-03 0. -1.
        -11    1    3    3    0    0 -0.10357958958E+00 -0.15314770214E+01 -0.10307522613E+01  0.18489459386E+01  0.51100000000E-03 0.  1.
        -12    1    3    3    0    0 -0.43225678357E+02  0.63901772787E-01  0.81220465358E+01  0.43982166759E+02  0.00000000000E+00 0.  1.
</event>
<event>
 7    1  0.1999542E-015  0.9000775E+02  0.7816164E-02  0.1186339E+00
        -11   -1    0    0    0    0  0.00000000000E+00  0.00000000000E+00  0.45593999997E+02  0.45594000000E+02  0.51100000000E-03 0.  1.
         11   -1    0    0    0    0 -0.00000000000E+00 -0.00000000000E+00 -0.45593999997E+02  0.45594000000E+02  0.51100000000E-03 0. -1.
    9900012    2    1    2    0    0  0.33029853416E+00  0.86943805223E+00  0.72661341723E+00  0.90007751422E+02  0.90000012941E+02 0.  0.
         12    1    1    2    0    0 -0.33029853416E+00 -0.86943805223E+00 -0.72661341723E+00  0.11802485782E+01  0.00000000000E+00 0. -1.
         11    1    3    3    0    0  0.14452342096E+02  0.27086111815E+02 -0.18561156458E+02  0.35875397902E+02  0.51100000000E-03 0. -1.
        -11    1    3    3    0    0  0.61949880785E+01  0.81083468792E+01  0.10010736506E+01  0.10253063694E+02  0.51100000000E-03 0.  1.
        -12    1    3    3    0    0 -0.20317031641E+02 -0.34325020642E+02  0.18286696225E+02  0.43879289825E+02  0.00000000000E+00 0.  1.
</event>
<event>
 7    1  0.1999542E-015  0.9000769E+02  0.7816164E-02  0.1186339E+00
        -11   -1    0    0    0    0  0.00000000000E+00  0.00000000000E+00  0.45593999997E+02  0.45594000000E+02  0.51100000000E-03 0.  1.
         11   -1    0    0    0    0 -0.00000000000E+00 -0.00000000000E+00 -0.45593999997E+02  0.45594000000E+02  0.51100000000E-03 0. -1.
    9900012    2    1    2    0    0 -0.90391700721E+00 -0.19961013999E-01  0.75872201115E+00  0.90007693477E+02  0.89999954231E+02 0.  0.
         12    1    1    2    0    0  0.90391700721E+00  0.19961013999E-01 -0.75872201115E+00  0.11803065230E+01  0.00000000000E+00 0. -1.
         11    1    3    3    0    0 -0.40576299031E+02 -0.75436750908E+01  0.11395754222E+02  0.42815958374E+02  0.51100000000E-03 0. -1.
        -11    1    3    3    0    0  0.31013479110E+01  0.59085696357E+01  0.39854746681E+01  0.77726162003E+01  0.51100000000E-03 0.  1.
        -12    1    3    3    0    0  0.36571034113E+02  0.16151444411E+01 -0.14622506879E+02  0.39419118903E+02  0.00000000000E+00 0.  1.
</event>
<event>
 7    1  0.1999542E-015  0.9000769E+02  0.7816164E-02  0.1186339E+00
        -11   -1    0    0    0    0  0.00000000000E+00  0.00000000000E+00  0.45593999997E+02  0.45594000000E+02  0.51100000000E-03 0.  1.
         11   -1    0    0    0    0 -0.00000000000E+00 -0.00000000000E+00 -0.45593999997E+02  0.45594000000E+02  0.51100000000E-03 0. -1.
    9900012    2    1    2    0    0  0.47574777804E+00  0.10876798276E+00  0.10746942973E+01  0.90007688916E+02  0.89999949610E+02 0.  0.
         12    1    1    2    0    0 -0.47574777804E+00 -0.10876798276E+00 -0.10746942973E+01  0.11803110840E+01  0.00000000000E+00 0. -1.
         11    1    3    3    0    0  0.85966555177E+01  0.21515769275E+02 -0.27894611743E+02  0.36262103885E+02  0.51100000000E-03 0. -1.
        -11    1    3    3    0    0  0.72386163570E+01  0.40263047483E+01 -0.41397145543E+01  0.92599100181E+01  0.51100000000E-03 0.  1.
        -12    1    3    3    0    0 -0.15359524097E+02 -0.25433306041E+02  0.33109020595E+02  0.44485675013E+02  0.00000000000E+00 0.  1.
</event>
<event>
 7    1  0.1999542E-015  0.9000768E+02  0.7816164E-02  0.1186339E+00
        -11   -1    0    0    0    0  0.00000000000E+00  0.00000000000E+00  0.45593999997E+02  0.45594000000E+02  0.51100000000E-03 0. -1.
         11   -1    0    0    0    0 -0.00000000000E+00 -0.00000000000E+00 -0.45593999997E+02  0.45594000000E+02  0.51100000000E-03 0.  1.
    9900012    2    1    2    0    0  0.73358742106E+00 -0.87912030320E+00 -0.28662913813E+00  0.90007678317E+02  0.89999938871E+02 0.  0.
         12    1    1    2    0    0 -0.73358742106E+00  0.87912030320E+00  0.28662913813E+00  0.11803216827E+01  0.00000000000E+00 0. -1.
         11    1    3    3    0    0  0.59375448115E+01 -0.67547199128E+01  0.27099706610E+01  0.93927962148E+01  0.51100000000E-03 0. -1.
        -11    1    3    3    0    0 -0.27514960944E+02 -0.13083801640E+02 -0.28549853866E+02  0.41753480060E+02  0.51100000000E-03 0.  1.
         12    1    3    3    0    0  0.22311003553E+02  0.18959401250E+02  0.25553254067E+02  0.38861402042E+02  0.00000000000E+00 0. -1.
</event>
<event>
 7    1  0.1999542E-015  0.9000791E+02  0.7816164E-02  0.1186339E+00
        -11   -1    0    0    0    0  0.00000000000E+00  0.00000000000E+00  0.45593999997E+02  0.45594000000E+02  0.51100000000E-03 0. -1.
         11   -1    0    0    0    0 -0.00000000000E+00 -0.00000000000E+00 -0.45593999997E+02  0.45594000000E+02  0.51100000000E-03 0.  1.
    9900012    2    1    2    0    0  0.52248430549E+00  0.83327230008E+00 -0.65212886190E+00  0.90007913296E+02  0.90000176952E+02 0.  0.
         12    1    1    2    0    0 -0.52248430549E+00 -0.83327230008E+00  0.65212886190E+00  0.11800867036E+01  0.00000000000E+00 0. -1.
         11    1    3    3    0    0  0.42252673785E+01 -0.16130584158E+00 -0.93930686267E+01  0.10300904935E+02  0.51100000000E-03 0. -1.
        -11    1    3    3    0    0  0.33986252352E+02 -0.11867983567E+02  0.15711557551E+02  0.39278078159E+02  0.51100000000E-03 0.  1.
         12    1    3    3    0    0 -0.37689035425E+02  0.12862561708E+02 -0.69706177863E+01  0.40428930203E+02  0.00000000000E+00 0. -1.
</event>
<event>
 7    1  0.1999542E-015  0.9000770E+02  0.7816164E-02  0.1186339E+00
        -11   -1    0    0    0    0  0.00000000000E+00  0.00000000000E+00  0.45593999997E+02  0.45594000000E+02  0.51100000000E-03 0.  1.
         11   -1    0    0    0    0 -0.00000000000E+00 -0.00000000000E+00 -0.45593999997E+02  0.45594000000E+02  0.51100000000E-03 0. -1.
    9900012    2    1    2    0    0 -0.35858164685E+00 -0.84585686489E+00  0.74097979865E+00  0.90007701014E+02  0.89999961868E+02 0.  0.
         12    1    1    2    0    0  0.35858164685E+00  0.84585686489E+00 -0.74097979865E+00  0.11802989856E+01  0.00000000000E+00 0. -1.
         11    1    3    3    0    0 -0.23230781185E+02 -0.13448299203E+02 -0.25120657623E+02  0.36763750973E+02  0.51100000000E-03 0. -1.
        -11    1    3    3    0    0  0.11826431277E+02 -0.24935129184E+01 -0.80455193237E+01  0.14519382386E+02  0.51100000000E-03 0.  1.
        -12    1    3    3    0    0  0.11045768261E+02  0.15095955256E+02  0.33907156745E+02  0.38724567656E+02  0.00000000000E+00 0.  1.
</event>
<event>
 7    1  0.1999542E-015  0.9000780E+02  0.7816164E-02  0.1186339E+00
        -11   -1    0    0    0    0  0.00000000000E+00  0.00000000000E+00  0.45593999997E+02  0.45594000000E+02  0.51100000000E-03 0.  1.
         11   -1    0    0    0    0 -0.00000000000E+00 -0.00000000000E+00 -0.45593999997E+02  0.45594000000E+02  0.51100000000E-03 0. -1.
    9900012    2    1    2    0    0  0.10943499760E+01  0.30915273028E+00  0.31575594281E+00  0.90007797011E+02  0.90000059131E+02 0.  0.
         12    1    1    2    0    0 -0.10943499760E+01 -0.30915273028E+00 -0.31575594281E+00  0.11802029893E+01  0.00000000000E+00 0. -1.
         11    1    3    3    0    0 -0.37546677104E+01 -0.92861867742E+01  0.57050156780E+01  0.11527271948E+02  0.51100000000E-03 0. -1.
        -11    1    3    3    0    0  0.14146607901E+02 -0.12899205310E+02  0.29964401404E+02  0.35558140621E+02  0.51100000000E-03 0.  1.
         12    1    3    3    0    0 -0.92975902145E+01  0.22494544814E+02 -0.35353661139E+02  0.42922384441E+02  0.00000000000E+00 0. -1.
</event>
<event>
 7    1  0.1999542E-015  0.9000779E+02  0.7816164E-02  0.1186339E+00
        -11   -1    0    0    0    0  0.00000000000E+00  0.00000000000E+00  0.45593999997E+02  0.45594000000E+02  0.51100000000E-03 0.  1.
         11   -1    0    0    0    0 -0.00000000000E+00 -0.00000000000E+00 -0.45593999997E+02  0.45594000000E+02  0.51100000000E-03 0. -1.
    9900012    2    1    2    0    0 -0.38673706750E+00  0.93136217072E+00 -0.61311149873E+00  0.90007785290E+02  0.90000047256E+02 0.  0.
         12    1    1    2    0    0  0.38673706750E+00 -0.93136217072E+00  0.61311149873E+00  0.11802147103E+01  0.00000000000E+00 0. -1.
         11    1    3    3    0    0 -0.48828281886E+01 -0.33415579795E+02  0.13272046168E+02  0.36284847994E+02  0.51100000000E-03 0. -1.
        -11    1    3    3    0    0 -0.37528639897E+00  0.47154440989E-01  0.11038601576E+02  0.11045079829E+02  0.51100000000E-03 0.  1.
        -12    1    3    3    0    0  0.48713775200E+01  0.34299787525E+02 -0.24923759242E+02  0.42677857467E+02  0.00000000000E+00 0.  1.
</event>
<event>
 7    1  0.1999542E-015  0.9000777E+02  0.7816164E-02  0.1186339E+00
        -11   -1    0    0    0    0  0.00000000000E+00  0.00000000000E+00  0.45593999997E+02  0.45594000000E+02  0.51100000000E-03 0. -1.
         11   -1    0    0    0    0 -0.00000000000E+00 -0.00000000000E+00 -0.45593999997E+02  0.45594000000E+02  0.51100000000E-03 0.  1.
    9900012    2    1    2    0    0 -0.63905375901E+00 -0.50968185320E+00 -0.85134433637E+00  0.90007765923E+02  0.90000027633E+02 0.  0.
         12    1    1    2    0    0  0.63905375901E+00  0.50968185320E+00  0.85134433637E+00  0.11802340774E+01  0.00000000000E+00 0. -1.
         11    1    3    3    0    0  0.14651608119E+02 -0.36848742888E+02  0.26824847944E+01  0.39745379578E+02  0.51100000000E-03 0. -1.
        -11    1    3    3    0    0  0.62040136531E+01  0.80303457852E+00 -0.59868537667E+01  0.86589299701E+01  0.51100000000E-03 0.  1.
        -12    1    3    3    0    0 -0.21494675531E+02  0.35536026456E+02  0.24530246359E+01  0.41603456375E+02  0.00000000000E+00 0.  1.
</event>
<event>
 7    1  0.1999542E-015  0.9000763E+02  0.7816164E-02  0.1186339E+00
        -11   -1    0    0    0    0  0.00000000000E+00  0.00000000000E+00  0.45593999997E+02  0.45594000000E+02  0.51100000000E-03 0. -1.
         11   -1    0    0    0    0 -0.00000000000E+00 -0.00000000000E+00 -0.45593999997E+02  0.45594000000E+02  0.51100000000E-03 0.  1.
    9900012    2    1    2    0    0  0.43264780104E+00  0.60379567281E+00 -0.91734813168E+00  0.90007626784E+02  0.89999886658E+02 0.  0.
         12    1    1    2    0    0 -0.43264780104E+00 -0.60379567281E+00  0.91734813168E+00  0.11803732159E+01  0.00000000000E+00 0. -1.
         11    1    3    3    0    0  0.14940685399E+01  0.44311574578E+01  0.18773562036E+01  0.50390340140E+01  0.51100000000E-03 0. -1.
        -11    1    3    3    0    0  0.35289959226E+02  0.16950259752E+02 -0.14079028558E+02  0.41604225425E+02  0.51100000000E-03 0.  1.
         12    1    3    3    0    0 -0.36351379965E+02 -0.20777621537E+02  0.11284324223E+02  0.43364367345E+02  0.00000000000E+00 0. -1.
</event>
<event>
 7    1  0.1999542E-015  0.9000650E+02  0.7816164E-02  0.1186342E+00
        -11   -1    0    0    0    0  0.00000000000E+00  0.00000000000E+00  0.45593999997E+02  0.45594000000E+02  0.51100000000E-03 0.  1.
         11   -1    0    0    0    0 -0.00000000000E+00 -0.00000000000E+00 -0.45593999997E+02  0.45594000000E+02  0.51100000000E-03 0. -1.
    9900012    2    1    2    0    0 -0.54782504513E+00 -0.76917588124E+00  0.71007055460E+00  0.90006499256E+02  0.89998744237E+02 0.  0.
         12    1    1    2    0    0  0.54782504513E+00  0.76917588124E+00 -0.71007055460E+00  0.11815007443E+01  0.00000000000E+00 0. -1.
         11    1    3    3    0    0 -0.49449872255E+01  0.82863562918E+01 -0.36699290887E+01  0.10324000147E+02  0.51100000000E-03 0. -1.
        -11    1    3    3    0    0 -0.19693857169E+02 -0.18592255952E+02  0.31925594782E+02  0.41866019563E+02  0.51100000000E-03 0.  1.
         12    1    3    3    0    0  0.24091019350E+02  0.95367237792E+01 -0.27545595138E+02  0.37816479546E+02  0.00000000000E+00 0. -1.
</event>
<event>
 7    1  0.1999542E-015  0.9000738E+02  0.7816164E-02  0.1186340E+00
        -11   -1    0    0    0    0  0.00000000000E+00  0.00000000000E+00  0.45593999997E+02  0.45594000000E+02  0.51100000000E-03 0. -1.
         11   -1    0    0    0    0 -0.00000000000E+00 -0.00000000000E+00 -0.45593999997E+02  0.45594000000E+02  0.51100000000E-03 0.  1.
    9900012    2    1    2    0    0 -0.10441715335E+01  0.39179279213E+00 -0.38739287217E+00  0.90007377698E+02  0.89999634283E+02 0.  0.
         12    1    1    2    0    0  0.10441715335E+01 -0.39179279213E+00  0.38739287217E+00  0.11806223024E+01  0.00000000000E+00 0. -1.
         11    1    3    3    0    0  0.36530979143E+00  0.98874530699E+01 -0.66019232378E+01  0.11894560528E+02  0.51100000000E-03 0. -1.
        -11    1    3    3    0    0  0.26338610926E+02 -0.30793488978E+02 -0.62063339423E+01  0.40993657682E+02  0.51100000000E-03 0.  1.
         12    1    3    3    0    0 -0.27748092251E+02  0.21297828700E+02  0.12420864308E+02  0.37119159487E+02  0.00000000000E+00 0. -1.
</event>
<event>
 7    1  0.1999542E-015  0.9000759E+02  0.7816164E-02  0.1186339E+00
        -11   -1    0    0    0    0  0.00000000000E+00  0.00000000000E+00  0.45593999997E+02  0.45594000000E+02  0.51100000000E-03 0. -1.
         11   -1    0    0    0    0 -0.00000000000E+00 -0.00000000000E+00 -0.45593999997E+02  0.45594000000E+02  0.51100000000E-03 0.  1.
    9900012    2    1    2    0    0  0.45618743741E+00  0.42305560361E+00 -0.10031322183E+01  0.90007594447E+02  0.89999853894E+02 0.  0.
         12    1    1    2    0    0 -0.45618743741E+00 -0.42305560361E+00  0.10031322183E+01  0.11804055529E+01  0.00000000000E+00 0. -1.
         11    1    3    3    0    0  0.69327329829E+01  0.67717166056E+01  0.13186180108E+01  0.97804747389E+01  0.51100000000E-03 0. -1.
        -11    1    3    3    0    0  0.34789749342E+02  0.32933339729E+01  0.95334057905E+01  0.36222348546E+02  0.51100000000E-03 0.  1.
         12    1    3    3    0    0 -0.41266294887E+02 -0.96419949748E+01 -0.11855156020E+02  0.44004771163E+02  0.00000000000E+00 0. -1.
</event>
<event>
 7    1  0.1999542E-015  0.9000777E+02  0.7816164E-02  0.1186339E+00
        -11   -1    0    0    0    0  0.00000000000E+00  0.00000000000E+00  0.45593999997E+02  0.45594000000E+02  0.51100000000E-03 0.  1.
         11   -1    0    0    0    0 -0.00000000000E+00 -0.00000000000E+00 -0.45593999997E+02  0.45594000000E+02  0.51100000000E-03 0. -1.
    9900012    2    1    2    0    0  0.95689516649E+00 -0.65743564919E+00  0.21229912950E+00  0.90007770822E+02  0.90000032597E+02 0.  0.
         12    1    1    2    0    0 -0.95689516649E+00  0.65743564919E+00 -0.21229912950E+00  0.11802291781E+01  0.00000000000E+00 0. -1.
         11    1    3    3    0    0 -0.62595158699E+01 -0.91113157084E+00 -0.72017013709E+01  0.95852074866E+01  0.51100000000E-03 0. -1.
        -11    1    3    3    0    0 -0.26673164055E+02 -0.88223225233E+01 -0.21162732357E+02  0.35173175809E+02  0.51100000000E-03 0.  1.
         12    1    3    3    0    0  0.33889575092E+02  0.90760184449E+01  0.28576732857E+02  0.45249387526E+02  0.00000000000E+00 0. -1.
</event>
<event>
 7    1  0.1999542E-015  0.9000776E+02  0.7816164E-02  0.1186339E+00
        -11   -1    0    0    0    0  0.00000000000E+00  0.00000000000E+00  0.45593999997E+02  0.45594000000E+02  0.51100000000E-03 0. -1.
         11   -1    0    0    0    0 -0.00000000000E+00 -0.00000000000E+00 -0.45593999997E+02  0.45594000000E+02  0.51100000000E-03 0.  1.
    9900012    2    1    2    0    0  0.11609159352E+01  0.14194376145E+00  0.15840858467E+00  0.90007759720E+02  0.90000021348E+02 0.  0.
         12    1    1    2    0    0 -0.11609159352E+01 -0.14194376145E+00 -0.15840858467E+00  0.11802402805E+01  0.00000000000E+00 0. -1.
         11    1    3    3    0    0  0.28991640773E+01  0.17444645970E+01 -0.97181373387E+01  0.10290311107E+02  0.51100000000E-03 0. -1.
        -11    1    3    3    0    0 -0.14385705698E+02 -0.28540725446E+02 -0.19874923102E+02  0.37636871628E+02  0.51100000000E-03 0.  1.
         12    1    3    3    0    0  0.12647457556E+02  0.26938204610E+02  0.29751469025E+02  0.42080576985E+02  0.00000000000E+00 0. -1.
</event>
<event>
 7    1  0.1999542E-015  0.9000773E+02  0.7816164E-02  0.1186339E+00
        -11   -1    0    0    0    0  0.00000000000E+00  0.00000000000E+00  0.45593999997E+02  0.45594000000E+02  0.51100000000E-03 0.  1.
         11   -1    0    0    0    0 -0.00000000000E+00 -0.00000000000E+00 -0.45593999997E+02  0.45594000000E+02  0.51100000000E-03 0. -1.
    9900012    2    1    2    0    0 -0.11311227332E+01  0.32826760992E+00  0.76446863149E-01  0.90007727835E+02  0.89999989042E+02 0.  0.
         12    1    1    2    0    0  0.11311227332E+01 -0.32826760992E+00 -0.76446863149E-01  0.11802721653E+01  0.00000000000E+00 0. -1.
         11    1    3    3    0    0 -0.56103910157E+01 -0.86055156313E+01  0.64888332674E+01  0.12150569701E+02  0.51100000000E-03 0. -1.
        -11    1    3    3    0    0 -0.25632029759E+02 -0.72818005308E+00  0.23165729490E+02  0.34556941688E+02  0.51100000000E-03 0.  1.
         12    1    3    3    0    0  0.30111298041E+02  0.96619632943E+01 -0.29578115894E+02  0.43300216446E+02  0.00000000000E+00 0. -1.
</event>
<event>
 7    1  0.1999542E-015  0.9000774E+02  0.7816164E-02  0.1186339E+00
        -11   -1    0    0    0    0  0.00000000000E+00  0.00000000000E+00  0.45593999997E+02  0.45594000000E+02  0.51100000000E-03 0. -1.
         11   -1    0    0    0    0 -0.00000000000E+00 -0.00000000000E+00 -0.45593999997E+02  0.45594000000E+02  0.51100000000E-03 0.  1.
    9900012    2    1    2    0    0  0.14292309611E+00  0.21914721032E+00 -0.11509000616E+01  0.90007735850E+02  0.89999997164E+02 0.  0.
         12    1    1    2    0    0 -0.14292309611E+00 -0.21914721032E+00  0.11509000616E+01  0.11802641496E+01  0.00000000000E+00 0. -1.
         11    1    3    3    0    0 -0.82573210310E+01 -0.32837947204E+01 -0.10182231886E+02  0.13514603391E+02  0.51100000000E-03 0. -1.
        -11    1    3    3    0    0 -0.28843700651E+02  0.19228035765E+02 -0.15630260816E+01  0.34700424744E+02  0.51100000000E-03 0.  1.
         12    1    3    3    0    0  0.37243944778E+02 -0.15725093835E+02  0.10594357906E+02  0.41792707715E+02  0.00000000000E+00 0. -1.
</event>
<event>
 7    1  0.1999542E-015  0.9000776E+02  0.7816164E-02  0.1186339E+00
        -11   -1    0    0    0    0  0.00000000000E+00  0.00000000000E+00  0.45593999997E+02  0.45594000000E+02  0.51100000000E-03 0.  1.
         11   -1    0    0    0    0 -0.00000000000E+00 -0.00000000000E+00 -0.45593999997E+02  0.45594000000E+02  0.51100000000E-03 0. -1.
    9900012    2    1    2    0    0 -0.78986651004E+00 -0.71102371794E+00 -0.51333520965E+00  0.90007764062E+02  0.90000025748E+02 0.  0.
         12    1    1    2    0    0  0.78986651004E+00  0.71102371794E+00  0.51333520965E+00  0.11802359377E+01  0.00000000000E+00 0. -1.
         11    1    3    3    0    0  0.11685627686E+02  0.16739059932E+02 -0.31681362469E+02  0.37688973852E+02  0.51100000000E-03 0. -1.
        -11    1    3    3    0    0 -0.71142483075E+01  0.10792715354E+01 -0.66929924625E+01  0.98271819151E+01  0.51100000000E-03 0.  1.
        -12    1    3    3    0    0 -0.53612458890E+01 -0.18529355186E+02  0.37861019722E+02  0.42491608295E+02  0.00000000000E+00 0.  1.
</event>
<event>
 7    1  0.1999542E-015  0.9000819E+02  0.7816164E-02  0.1186338E+00
        -11   -1    0    0    0    0  0.00000000000E+00  0.00000000000E+00  0.45593999997E+02  0.45594000000E+02  0.51100000000E-03 0. -1.
         11   -1    0    0    0    0 -0.00000000000E+00 -0.00000000000E+00 -0.45593999997E+02  0.45594000000E+02  0.51100000000E-03 0.  1.
    9900012    2    1    2    0    0 -0.75957797683E+00 -0.60808786200E+00  0.66725377464E+00  0.90008187663E+02  0.90000454939E+02 0.  0.
         12    1    1    2    0    0  0.75957797683E+00  0.60808786200E+00 -0.66725377464E+00  0.11798123370E+01  0.00000000000E+00 0. -1.
         11    1    3    3    0    0  0.32518546822E+02  0.18207712373E+01  0.14578653090E+02  0.35683444642E+02  0.51100000000E-03 0. -1.
        -11    1    3    3    0    0  0.94679739452E+01  0.12616134946E+01 -0.15690575089E+01  0.96796766973E+01  0.51100000000E-03 0.  1.
        -12    1    3    3    0    0 -0.42746098744E+02 -0.36904725939E+01 -0.12342341806E+02  0.44645066324E+02  0.00000000000E+00 0.  1.
</event>
<event>
 7    1  0.1999542E-015  0.9000773E+02  0.7816164E-02  0.1186339E+00
        -11   -1    0    0    0    0  0.00000000000E+00  0.00000000000E+00  0.45593999997E+02  0.45594000000E+02  0.51100000000E-03 0. -1.
         11   -1    0    0    0    0 -0.00000000000E+00 -0.00000000000E+00 -0.45593999997E+02  0.45594000000E+02  0.51100000000E-03 0.  1.
    9900012    2    1    2    0    0 -0.13391174769E+00 -0.10330891009E+01 -0.55481794817E+00  0.90007733758E+02  0.89999995044E+02 0.  0.
         12    1    1    2    0    0  0.13391174769E+00  0.10330891009E+01  0.55481794817E+00  0.11802662420E+01  0.00000000000E+00 0. -1.
         11    1    3    3    0    0 -0.14174678241E+02 -0.16904044210E+02  0.31993434925E+02  0.38861910561E+02  0.51100000000E-03 0. -1.
        -11    1    3    3    0    0  0.73810976168E+01  0.30489334306E+01  0.59934822741E+01  0.99849099708E+01  0.51100000000E-03 0.  1.
        -12    1    3    3    0    0  0.66596688766E+01  0.12822021678E+02 -0.38541735147E+02  0.41160913226E+02  0.00000000000E+00 0.  1.
</event>
<event>
 7    1  0.1999542E-015  0.9000769E+02  0.7816164E-02  0.1186339E+00
        -11   -1    0    0    0    0  0.00000000000E+00  0.00000000000E+00  0.45593999997E+02  0.45594000000E+02  0.51100000000E-03 0. -1.
         11   -1    0    0    0    0 -0.00000000000E+00 -0.00000000000E+00 -0.45593999997E+02  0.45594000000E+02  0.51100000000E-03 0.  1.
    9900012    2    1    2    0    0  0.47363131832E+00 -0.17061145635E+00 -0.10675694327E+01  0.90007686741E+02  0.89999947406E+02 0.  0.
         12    1    1    2    0    0 -0.47363131832E+00  0.17061145635E+00  0.10675694327E+01  0.11803132586E+01  0.00000000000E+00 0. -1.
         11    1    3    3    0    0  0.55724618924E+01  0.11789270607E+02 -0.25386795037E+01  0.13284732849E+02  0.51100000000E-03 0. -1.
        -11    1    3    3    0    0  0.10453390561E+02 -0.41124479868E+02 -0.59514717586E+01  0.42847593106E+02  0.51100000000E-03 0.  1.
         12    1    3    3    0    0 -0.15552221135E+02  0.29164597805E+02  0.74225818295E+01  0.33875360786E+02  0.00000000000E+00 0. -1.
</event>
<event>
 7    1  0.1999542E-015  0.9000772E+02  0.7816164E-02  0.1186339E+00
        -11   -1    0    0    0    0  0.00000000000E+00  0.00000000000E+00  0.45593999997E+02  0.45594000000E+02  0.51100000000E-03 0. -1.
         11   -1    0    0    0    0 -0.00000000000E+00 -0.00000000000E+00 -0.45593999997E+02  0.45594000000E+02  0.51100000000E-03 0.  1.
    9900012    2    1    2    0    0  0.30876704209E+00 -0.11202135889E+01  0.20698046698E+00  0.90007721861E+02  0.89999982990E+02 0.  0.
         12    1    1    2    0    0 -0.30876704209E+00  0.11202135889E+01 -0.20698046698E+00  0.11802781387E+01  0.00000000000E+00 0. -1.
         11    1    3    3    0    0  0.27816580380E+00 -0.10828019824E+02  0.34732566224E+01  0.11374836322E+02  0.51100000000E-03 0. -1.
        -11    1    3    3    0    0  0.37471035521E+01  0.38610354923E+02  0.17794501753E+02  0.42678385457E+02  0.51100000000E-03 0.  1.
         12    1    3    3    0    0 -0.37165023138E+01 -0.28902548687E+02 -0.21060777909E+02  0.35954500082E+02  0.00000000000E+00 0. -1.
</event>
<event>
 7    1  0.1999542E-015  0.9000773E+02  0.7816164E-02  0.1186339E+00
        -11   -1    0    0    0    0  0.00000000000E+00  0.00000000000E+00  0.45593999997E+02  0.45594000000E+02  0.51100000000E-03 0.  1.
         11   -1    0    0    0    0 -0.00000000000E+00 -0.00000000000E+00 -0.45593999997E+02  0.45594000000E+02  0.51100000000E-03 0. -1.
    9900012    2    1    2    0    0 -0.24652985105E+00 -0.10141045356E+01  0.55123681595E+00  0.90007725878E+02  0.89999987059E+02 0.  0.
         12    1    1    2    0    0  0.24652985105E+00  0.10141045356E+01 -0.55123681595E+00  0.11802741223E+01  0.00000000000E+00 0. -1.
         11    1    3    3    0    0  0.98008507453E+01 -0.11303256548E+02 -0.31670387134E+02  0.35026185995E+02  0.51100000000E-03 0. -1.
        -11    1    3    3    0    0  0.54486621647E+01 -0.23372091518E+01 -0.80643419582E+01  0.10009199642E+02  0.51100000000E-03 0.  1.
        -12    1    3    3    0    0 -0.15496042761E+02  0.12626361164E+02  0.40285965908E+02  0.44972340240E+02  0.00000000000E+00 0.  1.
</event>
<event>
 7    1  0.1999542E-015  0.9000772E+02  0.7816164E-02  0.1186339E+00
        -11   -1    0    0    0    0  0.00000000000E+00  0.00000000000E+00  0.45593999997E+02  0.45594000000E+02  0.51100000000E-03 0.  1.
         11   -1    0    0    0    0 -0.00000000000E+00 -0.00000000000E+00 -0.45593999997E+02  0.45594000000E+02  0.51100000000E-03 0. -1.
    9900012    2    1    2    0    0  0.10800671617E+01  0.34931891487E+00  0.32326849656E+00  0.90007715586E+02  0.89999976631E+02 0.  0.
         12    1    1    2    0    0 -0.10800671617E+01 -0.34931891487E+00 -0.32326849656E+00  0.11802844144E+01  0.00000000000E+00 0. -1.
         11    1    3    3    0    0  0.18673591323E+00 -0.34513921530E+02 -0.62545883826E+01  0.35076566619E+02  0.51100000000E-03 0. -1.
        -11    1    3    3    0    0 -0.15532626951E+02 -0.50200503714E+00  0.20520857951E+01  0.15675636045E+02  0.51100000000E-03 0.  1.
        -12    1    3    3    0    0  0.16425958199E+02  0.35365245482E+02  0.45257710841E+01  0.39255512921E+02  0.00000000000E+00 0.  1.
</event>
<event>
 7    1  0.1999542E-015  0.9000772E+02  0.7816164E-02  0.1186339E+00
        -11   -1    0    0    0    0  0.00000000000E+00  0.00000000000E+00  0.45593999997E+02  0.45594000000E+02  0.51100000000E-03 0.  1.
         11   -1    0    0    0    0 -0.00000000000E+00 -0.00000000000E+00 -0.45593999997E+02  0.45594000000E+02  0.51100000000E-03 0. -1.
    9900012    2    1    2    0    0 -0.46800807787E+00  0.18048789636E-01  0.10833710576E+01  0.90007724537E+02  0.89999985701E+02 0.  0.
         12    1    1    2    0    0  0.46800807787E+00 -0.18048789636E-01 -0.10833710576E+01  0.11802754629E+01  0.00000000000E+00 0. -1.
         11    1    3    3    0    0 -0.29325517748E+00  0.16528266038E+02 -0.85628757182E+01  0.18616992712E+02  0.51100000000E-03 0. -1.
        -11    1    3    3    0    0 -0.30172857777E+02  0.86854102239E+01  0.66987132707E+01  0.32104679673E+02  0.51100000000E-03 0.  1.
         12    1    3    3    0    0  0.29998104876E+02 -0.25195627472E+02  0.29475335051E+01  0.39286052152E+02  0.00000000000E+00 0. -1.
</event>
<event>
 7    1  0.1999542E-015  0.9000770E+02  0.7816164E-02  0.1186339E+00
        -11   -1    0    0    0    0  0.00000000000E+00  0.00000000000E+00  0.45593999997E+02  0.45594000000E+02  0.51100000000E-03 0.  1.
         11   -1    0    0    0    0 -0.00000000000E+00 -0.00000000000E+00 -0.45593999997E+02  0.45594000000E+02  0.51100000000E-03 0. -1.
    9900012    2    1    2    0    0 -0.99843963113E+00 -0.24194289490E+00  0.58110929732E+00  0.90007700853E+02  0.89999961704E+02 0.  0.
         12    1    1    2    0    0  0.99843963113E+00  0.24194289490E+00 -0.58110929732E+00  0.11802991472E+01  0.00000000000E+00 0. -1.
         11    1    3    3    0    0 -0.13989020412E+02  0.33549484028E+02 -0.78518148050E+01  0.37187518963E+02  0.51100000000E-03 0. -1.
        -11    1    3    3    0    0 -0.64659224585E+01  0.53759899320E+01  0.13472497746E+01  0.85161319391E+01  0.51100000000E-03 0.  1.
        -12    1    3    3    0    0  0.19456503240E+02 -0.39167416855E+02  0.70856743277E+01  0.44304049951E+02  0.00000000000E+00 0.  1.
</event>
<event>
 7    1  0.1999542E-015  0.9000776E+02  0.7816164E-02  0.1186339E+00
        -11   -1    0    0    0    0  0.00000000000E+00  0.00000000000E+00  0.45593999997E+02  0.45594000000E+02  0.51100000000E-03 0.  1.
         11   -1    0    0    0    0 -0.00000000000E+00 -0.00000000000E+00 -0.45593999997E+02  0.45594000000E+02  0.51100000000E-03 0. -1.
    9900012    2    1    2    0    0  0.13738143732E+00 -0.10784113283E+01  0.45948397212E+00  0.90007758426E+02  0.90000020037E+02 0.  0.
         12    1    1    2    0    0 -0.13738143732E+00  0.10784113283E+01 -0.45948397212E+00  0.11802415740E+01  0.00000000000E+00 0. -1.
         11    1    3    3    0    0  0.10826882704E+01 -0.37035615763E+02  0.57370115861E+01  0.37492964020E+02  0.51100000000E-03 0. -1.
        -11    1    3    3    0    0 -0.63996491129E+01 -0.58367868125E+01 -0.56917799869E+01  0.10364359543E+02  0.51100000000E-03 0.  1.
        -12    1    3    3    0    0  0.54543422799E+01  0.41793991247E+02  0.41425237297E+00  0.42150434862E+02  0.00000000000E+00 0.  1.
</event>
<event>
 7    1  0.1999542E-015  0.9000779E+02  0.7816164E-02  0.1186339E+00
        -11   -1    0    0    0    0  0.00000000000E+00  0.00000000000E+00  0.45593999997E+02  0.45594000000E+02  0.51100000000E-03 0.  1.
         11   -1    0    0    0    0 -0.00000000000E+00 -0.00000000000E+00 -0.45593999997E+02  0.45594000000E+02  0.51100000000E-03 0. -1.
    9900012    2    1    2    0    0  0.80589858499E+00 -0.84937854250E+00  0.14828179744E+00  0.90007786490E+02  0.90000048472E+02 0.  0.
         12    1    1    2    0    0 -0.80589858499E+00  0.84937854250E+00 -0.14828179744E+00  0.11802135100E+01  0.00000000000E+00 0. -1.
         11    1    3    3    0    0  0.11636733093E+02  0.11887086491E+02 -0.30722683148E+01  0.16916122936E+02  0.51100000000E-03 0. -1.
        -11    1    3    3    0    0  0.22115610420E+02  0.10523001046E+02  0.17725634097E+02  0.30232960154E+02  0.51100000000E-03 0.  1.
         12    1    3    3    0    0 -0.32946444928E+02 -0.23259466080E+02 -0.14505083985E+02  0.42858703400E+02  0.00000000000E+00 0. -1.
</event>
<event>
 7    1  0.1999542E-015  0.9000775E+02  0.7816164E-02  0.1186339E+00
        -11   -1    0    0    0    0  0.00000000000E+00  0.00000000000E+00  0.45593999997E+02  0.45594000000E+02  0.51100000000E-03 0.  1.
         11   -1    0    0    0    0 -0.00000000000E+00 -0.00000000000E+00 -0.45593999997E+02  0.45594000000E+02  0.51100000000E-03 0. -1.
    9900012    2    1    2    0    0 -0.71704371410E+00  0.49659900785E+00  0.79512188030E+00  0.90007753811E+02  0.90000015361E+02 0.  0.
         12    1    1    2    0    0  0.71704371410E+00 -0.49659900785E+00 -0.79512188030E+00  0.11802461892E+01  0.00000000000E+00 0. -1.
         11    1    3    3    0    0  0.18199295977E+02 -0.29662538247E+02 -0.10226710526E+02  0.36272112673E+02  0.51100000000E-03 0. -1.
        -11    1    3    3    0    0  0.90082100162E+01  0.17917806918E+01 -0.54237712224E+01  0.10666565533E+02  0.51100000000E-03 0.  1.
        -12    1    3    3    0    0 -0.27924549707E+02  0.28367356563E+02  0.16445603628E+02  0.43069075605E+02  0.00000000000E+00 0.  1.
</event>
<event>
 7    1  0.1999542E-015  0.9000771E+02  0.7816164E-02  0.1186339E+00
        -11   -1    0    0    0    0  0.00000000000E+00  0.00000000000E+00  0.45593999997E+02  0.45594000000E+02  0.51100000000E-03 0. -1.
         11   -1    0    0    0    0 -0.00000000000E+00 -0.00000000000E+00 -0.45593999997E+02  0.45594000000E+02  0.51100000000E-03 0.  1.
    9900012    2    1    2    0    0  0.93783350407E+00  0.58907043013E+00 -0.40810067404E+00  0.90007711131E+02  0.89999972118E+02 0.  0.
         12    1    1    2    0    0 -0.93783350407E+00 -0.58907043013E+00  0.40810067404E+00  0.11802888685E+01  0.00000000000E+00 0. -1.
         11    1    3    3    0    0 -0.17758389067E+01  0.78639673796E+01 -0.53913399160E+01  0.96985634566E+01  0.51100000000E-03 0. -1.
        -11    1    3    3    0    0 -0.24683419287E+02 -0.29857941161E+02 -0.12535597656E+02  0.40717429277E+02  0.51100000000E-03 0.  1.
         12    1    3    3    0    0  0.27397091698E+02  0.22583044212E+02  0.17518836898E+02  0.39591718397E+02  0.00000000000E+00 0. -1.
</event>
<event>
 7    1  0.1999542E-015  0.9000771E+02  0.7816164E-02  0.1186339E+00
        -11   -1    0    0    0    0  0.00000000000E+00  0.00000000000E+00  0.45593999997E+02  0.45594000000E+02  0.51100000000E-03 0. -1.
         11   -1    0    0    0    0 -0.00000000000E+00 -0.00000000000E+00 -0.45593999997E+02  0.45594000000E+02  0.51100000000E-03 0.  1.
    9900012    2    1    2    0    0 -0.78537430475E+00  0.77373002409E+00  0.42145553296E+00  0.90007705242E+02  0.89999966152E+02 0.  0.
         12    1    1    2    0    0  0.78537430475E+00 -0.77373002409E+00 -0.42145553296E+00  0.11802947577E+01  0.00000000000E+00 0. -1.
         11    1    3    3    0    0 -0.24910131262E+01  0.19491204718E+02  0.31025499703E+02  0.36724567252E+02  0.51100000000E-03 0. -1.
        -11    1    3    3    0    0 -0.37815590390E+00 -0.17232673672E+01  0.95077481813E+01  0.96700531563E+01  0.51100000000E-03 0.  1.
        -12    1    3    3    0    0  0.20837947254E+01 -0.16994207326E+02 -0.40111792351E+02  0.43613084834E+02  0.00000000000E+00 0.  1.
</event>
<event>
 7    1  0.1999542E-015  0.9000774E+02  0.7816164E-02  0.1186339E+00
        -11   -1    0    0    0    0  0.00000000000E+00  0.00000000000E+00  0.45593999997E+02  0.45594000000E+02  0.51100000000E-03 0. -1.
         11   -1    0    0    0    0 -0.00000000000E+00 -0.00000000000E+00 -0.45593999997E+02  0.45594000000E+02  0.51100000000E-03 0.  1.
    9900012    2    1    2    0    0 -0.39234860010E-01 -0.20718638785E+00 -0.11612685980E+01  0.90007741414E+02  0.90000002801E+02 0.  0.
         12    1    1    2    0    0  0.39234860010E-01  0.20718638785E+00  0.11612685980E+01  0.11802585862E+01  0.00000000000E+00 0. -1.
         11    1    3    3    0    0  0.34627938101E+02  0.44144581767E+01  0.13656617466E+02  0.37484459966E+02  0.51100000000E-03 0. -1.
        -11    1    3    3    0    0  0.14980874822E+01 -0.10734689430E+02 -0.11330075512E+02  0.15679554670E+02  0.51100000000E-03 0.  1.
        -12    1    3    3    0    0 -0.36165260443E+02  0.61130448656E+01 -0.34878105520E+01  0.36843726778E+02  0.00000000000E+00 0.  1.
</event>
<event>
 7    1  0.1999542E-015  0.9000774E+02  0.7816164E-02  0.1186339E+00
        -11   -1    0    0    0    0  0.00000000000E+00  0.00000000000E+00  0.45593999997E+02  0.45594000000E+02  0.51100000000E-03 0.  1.
         11   -1    0    0    0    0 -0.00000000000E+00 -0.00000000000E+00 -0.45593999997E+02  0.45594000000E+02  0.51100000000E-03 0. -1.
    9900012    2    1    2    0    0  0.10981189979E+01  0.29916127100E+00  0.31247353097E+00  0.90007744728E+02  0.90000006158E+02 0.  0.
         12    1    1    2    0    0 -0.10981189979E+01 -0.29916127100E+00 -0.31247353097E+00  0.11802552720E+01  0.00000000000E+00 0. -1.
         11    1    3    3    0    0 -0.11683558600E+01  0.12909628070E+02 -0.34742920699E+02  0.37082261141E+02  0.51100000000E-03 0. -1.
        -11    1    3    3    0    0  0.33513639841E+01  0.74094254672E+01 -0.39713203143E+01  0.90500061662E+01  0.51100000000E-03 0.  1.
        -12    1    3    3    0    0 -0.10848891262E+01 -0.20019892266E+02  0.39026714545E+02  0.43875477421E+02  0.00000000000E+00 0.  1.
</event>
<event>
 7    1  0.1999542E-015  0.9000799E+02  0.7816164E-02  0.1186339E+00
        -11   -1    0    0    0    0  0.00000000000E+00  0.00000000000E+00  0.45593999997E+02  0.45594000000E+02  0.51100000000E-03 0.  1.
         11   -1    0    0    0    0 -0.00000000000E+00 -0.00000000000E+00 -0.45593999997E+02  0.45594000000E+02  0.51100000000E-03 0. -1.
    9900012    2    1    2    0    0  0.90358235759E+00  0.68457924309E+00  0.32760237164E+00  0.90007985962E+02  0.90000250576E+02 0.  0.
         12    1    1    2    0    0 -0.90358235759E+00 -0.68457924309E+00 -0.32760237164E+00  0.11800140384E+01  0.00000000000E+00 0. -1.
         11    1    3    3    0    0  0.14213295021E+01 -0.12427879677E+02 -0.33232238793E+02  0.35508506957E+02  0.51100000000E-03 0. -1.
        -11    1    3    3    0    0 -0.67246584167E+01  0.17958054378E+02 -0.85537822161E+00  0.19194906096E+02  0.51100000000E-03 0.  1.
        -12    1    3    3    0    0  0.62069112722E+01 -0.48455954578E+01  0.34415219386E+02  0.35304572909E+02  0.00000000000E+00 0.  1.
</event>
<event>
 7    1  0.1999542E-015  0.9000773E+02  0.7816164E-02  0.1186339E+00
        -11   -1    0    0    0    0  0.00000000000E+00  0.00000000000E+00  0.45593999997E+02  0.45594000000E+02  0.51100000000E-03 0. -1.
         11   -1    0    0    0    0 -0.00000000000E+00 -0.00000000000E+00 -0.45593999997E+02  0.45594000000E+02  0.51100000000E-03 0.  1.
    9900012    2    1    2    0    0  0.78060251139E+00 -0.16197381261E+00 -0.87031607539E+00  0.90007734832E+02  0.89999996131E+02 0.  0.
         12    1    1    2    0    0 -0.78060251139E+00  0.16197381261E+00  0.87031607539E+00  0.11802651684E+01  0.00000000000E+00 0. -1.
         11    1    3    3    0    0 -0.34444754070E+00 -0.36462816166E+01 -0.90772755719E+01  0.97883065852E+01  0.51100000000E-03 0. -1.
        -11    1    3    3    0    0  0.12035478377E+02 -0.28777187988E+02 -0.19092558892E+02  0.36571916734E+02  0.51100000000E-03 0.  1.
         12    1    3    3    0    0 -0.10910428325E+02  0.32261495792E+02  0.27299518389E+02  0.43647511513E+02  0.00000000000E+00 0. -1.
</event>
<event>
 7    1  0.1999542E-015  0.9000784E+02  0.7816164E-02  0.1186339E+00
        -11   -1    0    0    0    0  0.00000000000E+00  0.00000000000E+00  0.45593999997E+02  0.45594000000E+02  0.51100000000E-03 0.  1.
         11   -1    0    0    0    0 -0.00000000000E+00 -0.00000000000E+00 -0.45593999997E+02  0.45594000000E+02  0.51100000000E-03 0. -1.
    9900012    2    1    2    0    0  0.10396158811E+01 -0.55397369528E+00 -0.71319709821E-01  0.90007841309E+02  0.90000104014E+02 0.  0.
         12    1    1    2    0    0 -0.10396158811E+01  0.55397369528E+00  0.71319709821E-01  0.11801586912E+01  0.00000000000E+00 0. -1.
         11    1    3    3    0    0  0.49437393853E+01  0.25211661980E+01  0.83529084564E+01  0.10028355700E+02  0.51100000000E-03 0. -1.
        -11    1    3    3    0    0  0.32182036012E+02 -0.20944944967E+02 -0.10006597142E+02  0.39680047230E+02  0.51100000000E-03 0.  1.
         12    1    3    3    0    0 -0.36086159516E+02  0.17869805074E+02  0.15823689754E+01  0.40299438378E+02  0.00000000000E+00 0. -1.
</event>
<event>
 7    1  0.1999542E-015  0.9000774E+02  0.7816164E-02  0.1186339E+00
        -11   -1    0    0    0    0  0.00000000000E+00  0.00000000000E+00  0.45593999997E+02  0.45594000000E+02  0.51100000000E-03 0.  1.
         11   -1    0    0    0    0 -0.00000000000E+00 -0.00000000000E+00 -0.45593999997E+02  0.45594000000E+02  0.51100000000E-03 0. -1.
    9900012    2    1    2    0    0  0.99619569673E+00 -0.58299002412E+00  0.24641527936E+00  0.90007744212E+02  0.90000005636E+02 0.  0.
         12    1    1    2    0    0 -0.99619569673E+00  0.58299002412E+00 -0.24641527936E+00  0.11802557877E+01  0.00000000000E+00 0. -1.
         11    1    3    3    0    0  0.65420033399E+01  0.28742713347E+01 -0.66182269330E+01  0.97396186477E+01  0.51100000000E-03 0. -1.
        -11    1    3    3    0    0  0.31845475209E+01  0.20323085826E+02  0.36121348744E+02  0.41568269097E+02  0.51100000000E-03 0.  1.
         12    1    3    3    0    0 -0.87303551641E+01 -0.23780347185E+02 -0.29256706531E+02  0.38699856467E+02  0.00000000000E+00 0. -1.
</event>
<event>
 7    1  0.1999542E-015  0.9000777E+02  0.7816164E-02  0.1186339E+00
        -11   -1    0    0    0    0  0.00000000000E+00  0.00000000000E+00  0.45593999997E+02  0.45594000000E+02  0.51100000000E-03 0.  1.
         11   -1    0    0    0    0 -0.00000000000E+00 -0.00000000000E+00 -0.45593999997E+02  0.45594000000E+02  0.51100000000E-03 0. -1.
    9900012    2    1    2    0    0 -0.17812880986E+00  0.18165504062E+00  0.11524865185E+01  0.90007765446E+02  0.90000027150E+02 0.  0.
         12    1    1    2    0    0  0.17812880986E+00 -0.18165504062E+00 -0.11524865185E+01  0.11802345538E+01  0.00000000000E+00 0. -1.
         11    1    3    3    0    0 -0.20355806354E+02  0.28535362080E+02 -0.10369119038E+02  0.36553308622E+02  0.51100000000E-03 0. -1.
        -11    1    3    3    0    0 -0.44327526861E+01  0.74299056378E+01  0.32621923815E+01  0.92463340604E+01  0.51100000000E-03 0.  1.
        -12    1    3    3    0    0  0.24610430230E+02 -0.35783612677E+02  0.82594131752E+01  0.44208122764E+02  0.00000000000E+00 0.  1.
</event>
<event>
 7    1  0.1999542E-015  0.9000785E+02  0.7816164E-02  0.1186339E+00
        -11   -1    0    0    0    0  0.00000000000E+00  0.00000000000E+00  0.45593999997E+02  0.45594000000E+02  0.51100000000E-03 0.  1.
         11   -1    0    0    0    0 -0.00000000000E+00 -0.00000000000E+00 -0.45593999997E+02  0.45594000000E+02  0.51100000000E-03 0. -1.
    9900012    2    1    2    0    0 -0.98010768876E+00  0.55756322403E+00  0.34823731695E+00  0.90007848713E+02  0.90000111516E+02 0.  0.
         12    1    1    2    0    0  0.98010768876E+00 -0.55756322403E+00 -0.34823731695E+00  0.11801512866E+01  0.00000000000E+00 0. -1.
         11    1    3    3    0    0 -0.10388046416E+02  0.34597912921E+02  0.10302808922E+02  0.37564277696E+02  0.51100000000E-03 0. -1.
        -11    1    3    3    0    0 -0.81770429714E+01 -0.90891126932E+00  0.74446020225E+01  0.11095596018E+02  0.51100000000E-03 0.  1.
        -12    1    3    3    0    0  0.17584981699E+02 -0.33131438428E+02 -0.17399173628E+02  0.41347975000E+02  0.00000000000E+00 0.  1.
</event>
<event>
 7    1  0.1999542E-015  0.9000774E+02  0.7816164E-02  0.1186339E+00
        -11   -1    0    0    0    0  0.00000000000E+00  0.00000000000E+00  0.45593999997E+02  0.45594000000E+02  0.51100000000E-03 0.  1.
         11   -1    0    0    0    0 -0.00000000000E+00 -0.00000000000E+00 -0.45593999997E+02  0.45594000000E+02  0.51100000000E-03 0. -1.
    9900012    2    1    2    0    0 -0.69368598612E+00  0.86434377989E-01  0.95096395740E+00  0.90007744266E+02  0.90000005690E+02 0.  0.
         12    1    1    2    0    0  0.69368598612E+00 -0.86434377989E-01 -0.95096395740E+00  0.11802557339E+01  0.00000000000E+00 0. -1.
         11    1    3    3    0    0 -0.64485765561E+01  0.51185177009E-01 -0.41225523342E+01  0.76539008049E+01  0.51100000000E-03 0. -1.
        -11    1    3    3    0    0  0.12149622932E+02 -0.36626928394E+02 -0.13342376345E+02  0.40830922446E+02  0.51100000000E-03 0.  1.
         12    1    3    3    0    0 -0.63947323623E+01  0.36662177595E+02  0.18415892637E+02  0.41522921015E+02  0.00000000000E+00 0. -1.
</event>
<event>
 7    1  0.1999542E-015  0.9000775E+02  0.7816164E-02  0.1186339E+00
        -11   -1    0    0    0    0  0.00000000000E+00  0.00000000000E+00  0.45593999997E+02  0.45594000000E+02  0.51100000000E-03 0.  1.
         11   -1    0    0    0    0 -0.00000000000E+00 -0.00000000000E+00 -0.45593999997E+02  0.45594000000E+02  0.51100000000E-03 0. -1.
    9900012    2    1    2    0    0  0.10278931277E+00  0.27614692767E+00  0.11428735612E+01  0.90007753100E+02  0.90000014641E+02 0.  0.
         12    1    1    2    0    0 -0.10278931277E+00 -0.27614692767E+00 -0.11428735612E+01  0.11802469001E+01  0.00000000000E+00 0. -1.
         11    1    3    3    0    0  0.70330089884E+01 -0.39941325749E+01 -0.57565284286E+01  0.99274332164E+01  0.51100000000E-03 0. -1.
        -11    1    3    3    0    0  0.85713716225E+01 -0.35115449145E+02 -0.40164390950E+01  0.36368873551E+02  0.51100000000E-03 0.  1.
         12    1    3    3    0    0 -0.15501591298E+02  0.39385728647E+02  0.10915841085E+02  0.43711446332E+02  0.00000000000E+00 0. -1.
</event>
<event>
 7    1  0.1999542E-015  0.9000792E+02  0.7816164E-02  0.1186339E+00
        -11   -1    0    0    0    0  0.00000000000E+00  0.00000000000E+00  0.45593999997E+02  0.45594000000E+02  0.51100000000E-03 0. -1.
         11   -1    0    0    0    0 -0.00000000000E+00 -0.00000000000E+00 -0.45593999997E+02  0.45594000000E+02  0.51100000000E-03 0.  1.
    9900012    2    1    2    0    0 -0.46895401626E-01 -0.11587642856E+01  0.21832291924E+00  0.90007915789E+02  0.90000179477E+02 0.  0.
         12    1    1    2    0    0  0.46895401626E-01  0.11587642856E+01 -0.21832291924E+00  0.11800842111E+01  0.00000000000E+00 0. -1.
         11    1    3    3    0    0  0.77641629063E+01 -0.33793405882E+01  0.36808358230E+02  0.37769794867E+02  0.51100000000E-03 0. -1.
        -11    1    3    3    0    0 -0.64936386986E+01 -0.12150919474E+01  0.63366229253E+01  0.91540473206E+01  0.51100000000E-03 0.  1.
        -12    1    3    3    0    0 -0.13174196093E+01  0.34356682500E+01 -0.42926658236E+02  0.43084073601E+02  0.00000000000E+00 0.  1.
</event>
<event>
 7    1  0.2275574E-015  0.9000771E+02  0.7816164E-02  0.1186339E+00
        -11   -1    0    0    0    0  0.00000000000E+00  0.00000000000E+00  0.45593999997E+02  0.45594000000E+02  0.51100000000E-03 0.  1.
         11   -1    0    0    0    0 -0.00000000000E+00 -0.00000000000E+00 -0.45593999997E+02  0.45594000000E+02  0.51100000000E-03 0. -1.
    9900012    2    1    2    0    0 -0.45004566640E-01  0.11728858049E+01  0.12404704468E+00  0.90007714360E+02  0.89999975390E+02 0.  0.
         12    1    1    2    0    0  0.45004566640E-01 -0.11728858049E+01 -0.12404704468E+00  0.11802856399E+01  0.00000000000E+00 0. -1.
         11    1    3    3    0    0  0.39919921084E+01  0.19884359474E+02 -0.34682570874E+02  0.40177163606E+02  0.51100000000E-03 0. -1.
        -11    1    3    3    0    0  0.11339298350E+01  0.79763793315E+01  0.49656408993E+01  0.94639322648E+01  0.51100000000E-03 0.  1.
        -12    1    3    3    0    0 -0.51709265100E+01 -0.26687853001E+02  0.29840977020E+02  0.40366618489E+02  0.00000000000E+00 0.  1.
</event>
<event>
 7    1  0.1999542E-015  0.9000774E+02  0.7816164E-02  0.1186339E+00
        -11   -1    0    0    0    0  0.00000000000E+00  0.00000000000E+00  0.45593999997E+02  0.45594000000E+02  0.51100000000E-03 0.  1.
         11   -1    0    0    0    0 -0.00000000000E+00 -0.00000000000E+00 -0.45593999997E+02  0.45594000000E+02  0.51100000000E-03 0. -1.
    9900012    2    1    2    0    0 -0.67962027698E+00 -0.26527972242E+00  0.92777130597E+00  0.90007738737E+02  0.90000000089E+02 0.  0.
         12    1    1    2    0    0  0.67962027698E+00  0.26527972242E+00 -0.92777130597E+00  0.11802612627E+01  0.00000000000E+00 0. -1.
         11    1    3    3    0    0  0.54331603654E+01 -0.11292973159E+02  0.82221477293E+01  0.14988468497E+02  0.51100000000E-03 0. -1.
        -11    1    3    3    0    0 -0.65467520855E+01 -0.10918714600E+02  0.29525215331E+02  0.32153019018E+02  0.51100000000E-03 0.  1.
         12    1    3    3    0    0  0.43397144315E+00  0.21946408037E+02 -0.36819591754E+02  0.42866251223E+02  0.00000000000E+00 0. -1.
</event>
<event>
 7    1  0.1999542E-015  0.9000775E+02  0.7816164E-02  0.1186339E+00
        -11   -1    0    0    0    0  0.00000000000E+00  0.00000000000E+00  0.45593999997E+02  0.45594000000E+02  0.51100000000E-03 0.  1.
         11   -1    0    0    0    0 -0.00000000000E+00 -0.00000000000E+00 -0.45593999997E+02  0.45594000000E+02  0.51100000000E-03 0. -1.
    9900012    2    1    2    0    0 -0.10559009336E+01  0.33593944622E+00  0.40644660126E+00  0.90007753868E+02  0.90000015419E+02 0.  0.
         12    1    1    2    0    0  0.10559009336E+01 -0.33593944622E+00 -0.40644660126E+00  0.11802461322E+01  0.00000000000E+00 0. -1.
         11    1    3    3    0    0  0.15694774400E+02  0.24923550156E+02 -0.25065392376E+02  0.38675356379E+02  0.51100000000E-03 0. -1.
        -11    1    3    3    0    0  0.83304761725E+01  0.11649870238E+01  0.29594326765E+01  0.89169652940E+01  0.51100000000E-03 0.  1.
        -12    1    3    3    0    0 -0.25081151506E+02 -0.25752597733E+02  0.22512406300E+02  0.42415432195E+02  0.00000000000E+00 0.  1.
</event>
<event>
 7    1  0.1999542E-015  0.9000823E+02  0.7816164E-02  0.1186338E+00
        -11   -1    0    0    0    0  0.00000000000E+00  0.00000000000E+00  0.45593999997E+02  0.45594000000E+02  0.51100000000E-03 0.  1.
         11   -1    0    0    0    0 -0.00000000000E+00 -0.00000000000E+00 -0.45593999997E+02  0.45594000000E+02  0.51100000000E-03 0. -1.
    9900012    2    1    2    0    0 -0.29487600851E+00 -0.11317431226E+01  0.15515480845E+00  0.90008225712E+02  0.90000493490E+02 0.  0.
         12    1    1    2    0    0  0.29487600851E+00  0.11317431226E+01 -0.15515480845E+00  0.11797742880E+01  0.00000000000E+00 0. -1.
         11    1    3    3    0    0  0.31803442186E+00  0.13398581345E+01 -0.98133476917E+01  0.99094984178E+01  0.51100000000E-03 0. -1.
        -11    1    3    3    0    0 -0.17211050454E+02 -0.48434738757E+01 -0.31025352149E+02  0.35808546091E+02  0.51100000000E-03 0.  1.
         12    1    3    3    0    0  0.16598140024E+02  0.23718726186E+01  0.40993854649E+02  0.44290181203E+02  0.00000000000E+00 0. -1.
</event>
<event>
 7    1  0.1999542E-015  0.9000793E+02  0.7816164E-02  0.1186339E+00
        -11   -1    0    0    0    0  0.00000000000E+00  0.00000000000E+00  0.45593999997E+02  0.45594000000E+02  0.51100000000E-03 0.  1.
         11   -1    0    0    0    0 -0.00000000000E+00 -0.00000000000E+00 -0.45593999997E+02  0.45594000000E+02  0.51100000000E-03 0. -1.
    9900012    2    1    2    0    0  0.71464688453E+00 -0.89340371581E+00  0.28926313283E+00  0.90007930710E+02  0.90000194595E+02 0.  0.
         12    1    1    2    0    0 -0.71464688453E+00  0.89340371581E+00 -0.28926313283E+00  0.11800692899E+01  0.00000000000E+00 0. -1.
         11    1    3    3    0    0 -0.15638509018E+02 -0.19431396274E+02 -0.31750162563E+02  0.40375920404E+02  0.51100000000E-03 0. -1.
        -11    1    3    3    0    0 -0.42496792383E+01 -0.49874566688E+01  0.68249587403E+01  0.94612134380E+01  0.51100000000E-03 0.  1.
        -12    1    3    3    0    0  0.20602835141E+02  0.23525449227E+02  0.25214466955E+02  0.40170796868E+02  0.00000000000E+00 0.  1.
</event>
<event>
 7    1  0.1999542E-015  0.9000776E+02  0.7816164E-02  0.1186339E+00
        -11   -1    0    0    0    0  0.00000000000E+00  0.00000000000E+00  0.45593999997E+02  0.45594000000E+02  0.51100000000E-03 0. -1.
         11   -1    0    0    0    0 -0.00000000000E+00 -0.00000000000E+00 -0.45593999997E+02  0.45594000000E+02  0.51100000000E-03 0.  1.
    9900012    2    1    2    0    0 -0.94472690597E+00 -0.54817167063E+00 -0.44716524138E+00  0.90007763642E+02  0.90000025322E+02 0.  0.
         12    1    1    2    0    0  0.94472690597E+00  0.54817167063E+00  0.44716524138E+00  0.11802363579E+01  0.00000000000E+00 0. -1.
         11    1    3    3    0    0  0.87775157657E+01  0.45251183646E+01  0.33624574526E+01  0.10432046760E+02  0.51100000000E-03 0. -1.
        -11    1    3    3    0    0  0.27205408973E+02 -0.24272417658E+02  0.56481396990E+01  0.36894254548E+02  0.51100000000E-03 0.  1.
         12    1    3    3    0    0 -0.36927651645E+02  0.19199127623E+02 -0.94577623930E+01  0.42681462334E+02  0.00000000000E+00 0. -1.
</event>
<event>
 7    1  0.1999542E-015  0.9000773E+02  0.7816164E-02  0.1186339E+00
        -11   -1    0    0    0    0  0.00000000000E+00  0.00000000000E+00  0.45593999997E+02  0.45594000000E+02  0.51100000000E-03 0. -1.
         11   -1    0    0    0    0 -0.00000000000E+00 -0.00000000000E+00 -0.45593999997E+02  0.45594000000E+02  0.51100000000E-03 0.  1.
    9900012    2    1    2    0    0  0.74606495603E+00 -0.15308103148E+00  0.90166048837E+00  0.90007729541E+02  0.89999990771E+02 0.  0.
         12    1    1    2    0    0 -0.74606495603E+00  0.15308103148E+00 -0.90166048837E+00  0.11802704593E+01  0.00000000000E+00 0. -1.
         11    1    3    3    0    0  0.23561292675E+01  0.72505723645E+01 -0.66814315751E+01  0.10137241878E+02  0.51100000000E-03 0. -1.
        -11    1    3    3    0    0 -0.21560772983E+02 -0.12963911736E+02 -0.28654750275E+02  0.38131675189E+02  0.51100000000E-03 0.  1.
         12    1    3    3    0    0  0.19950708672E+02  0.55602583404E+01  0.36237842339E+02  0.41738812473E+02  0.00000000000E+00 0. -1.
</event>
<event>
 7    1  0.1999542E-015  0.9000757E+02  0.7816164E-02  0.1186339E+00
        -11   -1    0    0    0    0  0.00000000000E+00  0.00000000000E+00  0.45593999997E+02  0.45594000000E+02  0.51100000000E-03 0. -1.
         11   -1    0    0    0    0 -0.00000000000E+00 -0.00000000000E+00 -0.45593999997E+02  0.45594000000E+02  0.51100000000E-03 0.  1.
    9900012    2    1    2    0    0  0.93742219286E+00 -0.18366644372E+00 -0.69349239160E+00  0.90007565577E+02  0.89999824642E+02 0.  0.
         12    1    1    2    0    0 -0.93742219286E+00  0.18366644372E+00  0.69349239160E+00  0.11804344232E+01  0.00000000000E+00 0. -1.
         11    1    3    3    0    0  0.19524176395E+01  0.84847053959E+01  0.37323733369E+01  0.94727383202E+01  0.51100000000E-03 0. -1.
        -11    1    3    3    0    0  0.29787468019E+02  0.16642431001E+02 -0.17798212784E+02  0.38484284314E+02  0.51100000000E-03 0.  1.
         12    1    3    3    0    0 -0.30802463466E+02 -0.25310802841E+02  0.13372347056E+02  0.42050542943E+02  0.00000000000E+00 0. -1.
</event>
<event>
 7    1  0.1999542E-015  0.9000773E+02  0.7816164E-02  0.1186339E+00
        -11   -1    0    0    0    0  0.00000000000E+00  0.00000000000E+00  0.45593999997E+02  0.45594000000E+02  0.51100000000E-03 0.  1.
         11   -1    0    0    0    0 -0.00000000000E+00 -0.00000000000E+00 -0.45593999997E+02  0.45594000000E+02  0.51100000000E-03 0. -1.
    9900012    2    1    2    0    0 -0.71575003292E+00 -0.93847200020E+00 -0.33439121679E-02  0.90007729274E+02  0.89999990500E+02 0.  0.
         12    1    1    2    0    0  0.71575003292E+00  0.93847200020E+00  0.33439121679E-02  0.11802707259E+01  0.00000000000E+00 0. -1.
         11    1    3    3    0    0  0.25502197471E+02 -0.27657313107E+02 -0.58228215485E+00  0.37624833513E+02  0.51100000000E-03 0. -1.
        -11    1    3    3    0    0 -0.72175686301E+01  0.94309739033E+01 -0.17372520763E+02  0.21043788718E+02  0.51100000000E-03 0.  1.
        -12    1    3    3    0    0 -0.19000378874E+02  0.17287867203E+02  0.17951459006E+02  0.31339107043E+02  0.00000000000E+00 0.  1.
</event>
<event>
 7    1  0.1999542E-015  0.9000771E+02  0.7816164E-02  0.1186339E+00
        -11   -1    0    0    0    0  0.00000000000E+00  0.00000000000E+00  0.45593999997E+02  0.45594000000E+02  0.51100000000E-03 0.  1.
         11   -1    0    0    0    0 -0.00000000000E+00 -0.00000000000E+00 -0.45593999997E+02  0.45594000000E+02  0.51100000000E-03 0. -1.
    9900012    2    1    2    0    0  0.27753825200E+00 -0.11053226303E+01 -0.30711552076E+00  0.90007709552E+02  0.89999970518E+02 0.  0.
         12    1    1    2    0    0 -0.27753825200E+00  0.11053226303E+01  0.30711552076E+00  0.11802904479E+01  0.00000000000E+00 0. -1.
         11    1    3    3    0    0 -0.40818257288E+02 -0.43279356921E+01 -0.14247365054E+02  0.43449379359E+02  0.51100000000E-03 0. -1.
        -11    1    3    3    0    0  0.35041432042E+01 -0.40828945313E+01  0.47474372536E+01  0.71754587371E+01  0.51100000000E-03 0.  1.
        -12    1    3    3    0    0  0.37591652336E+02  0.73055075931E+01  0.91928122793E+01  0.39382871456E+02  0.00000000000E+00 0.  1.
</event>
<event>
 7    1  0.1999542E-015  0.9000771E+02  0.7816164E-02  0.1186339E+00
        -11   -1    0    0    0    0  0.00000000000E+00  0.00000000000E+00  0.45593999997E+02  0.45594000000E+02  0.51100000000E-03 0. -1.
         11   -1    0    0    0    0 -0.00000000000E+00 -0.00000000000E+00 -0.45593999997E+02  0.45594000000E+02  0.51100000000E-03 0.  1.
    9900012    2    1    2    0    0 -0.14053143776E-01 -0.11752936260E+01 -0.10759255259E+00  0.90007708191E+02  0.89999969139E+02 0.  0.
         12    1    1    2    0    0  0.14053143776E-01  0.11752936260E+01  0.10759255259E+00  0.11802918094E+01  0.00000000000E+00 0. -1.
         11    1    3    3    0    0  0.53052093844E+01  0.39127998165E+01  0.20586437166E+01  0.69060309316E+01  0.51100000000E-03 0. -1.
        -11    1    3    3    0    0 -0.10507754635E+02  0.22787744180E+02 -0.32840154004E+02  0.41330012189E+02  0.51100000000E-03 0.  1.
         12    1    3    3    0    0  0.51884921072E+01 -0.27875837622E+02  0.30673917735E+02  0.41771665070E+02  0.00000000000E+00 0. -1.
</event>
<event>
 7    1  0.1999542E-015  0.9000781E+02  0.7816164E-02  0.1186339E+00
        -11   -1    0    0    0    0  0.00000000000E+00  0.00000000000E+00  0.45593999997E+02  0.45594000000E+02  0.51100000000E-03 0.  1.
         11   -1    0    0    0    0 -0.00000000000E+00 -0.00000000000E+00 -0.45593999997E+02  0.45594000000E+02  0.51100000000E-03 0. -1.
    9900012    2    1    2    0    0  0.75961537694E+00 -0.25918018271E+00  0.86525675541E+00  0.90007805465E+02  0.90000067697E+02 0.  0.
         12    1    1    2    0    0 -0.75961537694E+00  0.25918018271E+00 -0.86525675541E+00  0.11801945351E+01  0.00000000000E+00 0. -1.
         11    1    3    3    0    0  0.12812589910E+02 -0.25530925001E+02  0.22782074547E+02  0.36537836725E+02  0.51100000000E-03 0. -1.
        -11    1    3    3    0    0 -0.39506396326E+01 -0.32225459453E+01  0.91929119596E+01  0.10511992505E+02  0.51100000000E-03 0.  1.
        -12    1    3    3    0    0 -0.81023349008E+01  0.28494290763E+02 -0.31109729751E+02  0.42957976234E+02  0.00000000000E+00 0.  1.
</event>
<event>
 7    1  0.1999542E-015  0.9000751E+02  0.7816164E-02  0.1186339E+00
        -11   -1    0    0    0    0  0.00000000000E+00  0.00000000000E+00  0.45593999997E+02  0.45594000000E+02  0.51100000000E-03 0. -1.
         11   -1    0    0    0    0 -0.00000000000E+00 -0.00000000000E+00 -0.45593999997E+02  0.45594000000E+02  0.51100000000E-03 0.  1.
    9900012    2    1    2    0    0  0.96177001987E+00 -0.68404797255E+00  0.25078133292E-01  0.90007511918E+02  0.89999770275E+02 0.  0.
         12    1    1    2    0    0 -0.96177001987E+00  0.68404797255E+00 -0.25078133292E-01  0.11804880824E+01  0.00000000000E+00 0. -1.
         11    1    3    3    0    0 -0.18902502366E+01  0.24957245432E+01  0.41685542816E+02  0.41802944478E+02  0.51100000000E-03 0. -1.
        -11    1    3    3    0    0 -0.66931679721E+01 -0.60083432381E+01 -0.51570256223E+01  0.10367912013E+02  0.51100000000E-03 0.  1.
        -12    1    3    3    0    0  0.95451882285E+01  0.28285707224E+01 -0.36503439060E+02  0.37836655427E+02  0.00000000000E+00 0.  1.
</event>
<event>
 7    1  0.1999542E-015  0.9000776E+02  0.7816164E-02  0.1186339E+00
        -11   -1    0    0    0    0  0.00000000000E+00  0.00000000000E+00  0.45593999997E+02  0.45594000000E+02  0.51100000000E-03 0.  1.
         11   -1    0    0    0    0 -0.00000000000E+00 -0.00000000000E+00 -0.45593999997E+02  0.45594000000E+02  0.51100000000E-03 0. -1.
    9900012    2    1    2    0    0  0.11750501858E+01 -0.87705978899E-01 -0.67399416168E-01  0.90007755127E+02  0.90000016695E+02 0.  0.
         12    1    1    2    0    0 -0.11750501858E+01  0.87705978899E-01  0.67399416168E-01  0.11802448726E+01  0.00000000000E+00 0. -1.
         11    1    3    3    0    0  0.25395110160E+01 -0.21000578618E+02 -0.30160768296E+02  0.36839453891E+02  0.51100000000E-03 0. -1.
        -11    1    3    3    0    0  0.94537353076E+01 -0.58485338171E+01 -0.47287424608E+00  0.11126637830E+02  0.51100000000E-03 0.  1.
        -12    1    3    3    0    0 -0.10818196138E+02  0.26761406456E+02  0.30566243126E+02  0.42041663407E+02  0.00000000000E+00 0.  1.
</event>
<event>
 7    1  0.1999542E-015  0.9000771E+02  0.7816164E-02  0.1186339E+00
        -11   -1    0    0    0    0  0.00000000000E+00  0.00000000000E+00  0.45593999997E+02  0.45594000000E+02  0.51100000000E-03 0. -1.
         11   -1    0    0    0    0 -0.00000000000E+00 -0.00000000000E+00 -0.45593999997E+02  0.45594000000E+02  0.51100000000E-03 0.  1.
    9900012    2    1    2    0    0 -0.63591572753E+00  0.93243860659E+00 -0.34532116615E+00  0.90007713054E+02  0.89999974066E+02 0.  0.
         12    1    1    2    0    0  0.63591572753E+00 -0.93243860659E+00  0.34532116615E+00  0.11802869462E+01  0.00000000000E+00 0. -1.
         11    1    3    3    0    0 -0.51622140678E+01  0.77903275603E+01  0.38759470680E+01  0.10117342710E+02  0.51100000000E-03 0. -1.
        -11    1    3    3    0    0  0.23202289384E+01 -0.41124138186E+02 -0.15101469514E+02  0.43870634662E+02  0.51100000000E-03 0.  1.
         12    1    3    3    0    0  0.22060694018E+01  0.34266249233E+02  0.10880201280E+02  0.36019735682E+02  0.00000000000E+00 0. -1.
</event>
<event>
 7    1  0.1999542E-015  0.9000798E+02  0.7816164E-02  0.1186339E+00
        -11   -1    0    0    0    0  0.00000000000E+00  0.00000000000E+00  0.45593999997E+02  0.45594000000E+02  0.51100000000E-03 0.  1.
         11   -1    0    0    0    0 -0.00000000000E+00 -0.00000000000E+00 -0.45593999997E+02  0.45594000000E+02  0.51100000000E-03 0. -1.
    9900012    2    1    2    0    0 -0.18032977483E+00 -0.97755140916E+00  0.63586476854E+00  0.90007978988E+02  0.90000243510E+02 0.  0.
         12    1    1    2    0    0  0.18032977483E+00  0.97755140916E+00 -0.63586476854E+00  0.11800210121E+01  0.00000000000E+00 0. -1.
         11    1    3    3    0    0  0.93212423854E+01  0.17183722842E+01 -0.48299512342E+00  0.94906083822E+01  0.51100000000E-03 0. -1.
        -11    1    3    3    0    0  0.29794763342E+02 -0.16704464177E+02  0.13910389647E+02  0.36881783938E+02  0.51100000000E-03 0.  1.
         12    1    3    3    0    0 -0.39296335502E+02  0.14008540484E+02 -0.12791529755E+02  0.43635586668E+02  0.00000000000E+00 0. -1.
</event>
<event>
 7    1  0.1999542E-015  0.9000770E+02  0.7816164E-02  0.1186339E+00
        -11   -1    0    0    0    0  0.00000000000E+00  0.00000000000E+00  0.45593999997E+02  0.45594000000E+02  0.51100000000E-03 0.  1.
         11   -1    0    0    0    0 -0.00000000000E+00 -0.00000000000E+00 -0.45593999997E+02  0.45594000000E+02  0.51100000000E-03 0. -1.
    9900012    2    1    2    0    0 -0.21709036902E+00 -0.11215071152E+01 -0.29698505932E+00  0.90007700647E+02  0.89999961495E+02 0.  0.
         12    1    1    2    0    0  0.21709036902E+00  0.11215071152E+01  0.29698505932E+00  0.11802993533E+01  0.00000000000E+00 0. -1.
         11    1    3    3    0    0 -0.48059142261E+01  0.18387288989E+01  0.67805369758E+01  0.85119573221E+01  0.51100000000E-03 0. -1.
        -11    1    3    3    0    0  0.17304418848E+02 -0.81923053658E+01  0.33536809052E+02  0.38617021383E+02  0.51100000000E-03 0.  1.
         12    1    3    3    0    0 -0.12715594991E+02  0.52320693517E+01 -0.40614331087E+02  0.42878721941E+02  0.00000000000E+00 0. -1.
</event>
<event>
 7    1  0.1999542E-015  0.9000839E+02  0.7816164E-02  0.1186338E+00
        -11   -1    0    0    0    0  0.00000000000E+00  0.00000000000E+00  0.45593999997E+02  0.45594000000E+02  0.51100000000E-03 0. -1.
         11   -1    0    0    0    0 -0.00000000000E+00 -0.00000000000E+00 -0.45593999997E+02  0.45594000000E+02  0.51100000000E-03 0.  1.
    9900012    2    1    2    0    0  0.10280641530E+01 -0.50414816203E+00  0.28356516082E+00  0.90008385456E+02  0.90000655342E+02 0.  0.
         12    1    1    2    0    0 -0.10280641530E+01  0.50414816203E+00 -0.28356516082E+00  0.11796145440E+01  0.00000000000E+00 0. -1.
         11    1    3    3    0    0 -0.14612299172E+01 -0.77788742715E+01  0.60479935546E+01  0.99611396988E+01  0.51100000000E-03 0. -1.
        -11    1    3    3    0    0 -0.37121134954E+02  0.39145282795E+01 -0.13224971649E+02  0.39600531149E+02  0.51100000000E-03 0.  1.
         12    1    3    3    0    0  0.39610429024E+02  0.33601978299E+01  0.74605432555E+01  0.40446714608E+02  0.00000000000E+00 0. -1.
</event>
<event>
 7    1  0.1999542E-015  0.9000755E+02  0.7816164E-02  0.1186339E+00
        -11   -1    0    0    0    0  0.00000000000E+00  0.00000000000E+00  0.45593999997E+02  0.45594000000E+02  0.51100000000E-03 0. -1.
         11   -1    0    0    0    0 -0.00000000000E+00 -0.00000000000E+00 -0.45593999997E+02  0.45594000000E+02  0.51100000000E-03 0.  1.
    9900012    2    1    2    0    0 -0.44123417798E+00  0.69672558850E+00 -0.84460362396E+00  0.90007546940E+02  0.89999805759E+02 0.  0.
         12    1    1    2    0    0  0.44123417798E+00 -0.69672558850E+00  0.84460362396E+00  0.11804530601E+01  0.00000000000E+00 0. -1.
         11    1    3    3    0    0  0.16860424840E+02  0.16938247618E+01 -0.87376428625E+01  0.19065397220E+02  0.51100000000E-03 0. -1.
        -11    1    3    3    0    0 -0.85688700134E+01  0.56345195462E+01 -0.29889833604E+02  0.31600245204E+02  0.51100000000E-03 0.  1.
         12    1    3    3    0    0 -0.87327890047E+01 -0.66316187195E+01  0.37782872843E+02  0.39341904515E+02  0.00000000000E+00 0. -1.
</event>
<event>
 7    1  0.1999542E-015  0.9000677E+02  0.7816164E-02  0.1186341E+00
        -11   -1    0    0    0    0  0.00000000000E+00  0.00000000000E+00  0.45593999997E+02  0.45594000000E+02  0.51100000000E-03 0. -1.
         11   -1    0    0    0    0 -0.00000000000E+00 -0.00000000000E+00 -0.45593999997E+02  0.45594000000E+02  0.51100000000E-03 0.  1.
    9900012    2    1    2    0    0 -0.86288828033E+00  0.75620849984E+00 -0.28085527913E+00  0.90006768792E+02  0.89999017334E+02 0.  0.
         12    1    1    2    0    0  0.86288828033E+00 -0.75620849984E+00  0.28085527913E+00  0.11812312083E+01  0.00000000000E+00 0. -1.
         11    1    3    3    0    0  0.11079677080E+01  0.14204826079E+01  0.40025298749E+02  0.40065819640E+02  0.51100000000E-03 0. -1.
        -11    1    3    3    0    0 -0.11435534465E+02 -0.26526498453E+01 -0.40517109361E+01  0.12418710137E+02  0.51100000000E-03 0.  1.
        -12    1    3    3    0    0  0.94646784766E+01  0.19883757373E+01 -0.36254443092E+02  0.37522239014E+02  0.00000000000E+00 0.  1.
</event>
<event>
 7    1  0.1999542E-015  0.9000769E+02  0.7816164E-02  0.1186339E+00
        -11   -1    0    0    0    0  0.00000000000E+00  0.00000000000E+00  0.45593999997E+02  0.45594000000E+02  0.51100000000E-03 0.  1.
         11   -1    0    0    0    0 -0.00000000000E+00 -0.00000000000E+00 -0.45593999997E+02  0.45594000000E+02  0.51100000000E-03 0. -1.
    9900012    2    1    2    0    0  0.98714845507E+00  0.55785830825E+00  0.32781840200E+00  0.90007689503E+02  0.89999950205E+02 0.  0.
         12    1    1    2    0    0 -0.98714845507E+00 -0.55785830825E+00 -0.32781840200E+00  0.11803104969E+01  0.00000000000E+00 0. -1.
         11    1    3    3    0    0 -0.54396146019E+01 -0.31005837268E+01 -0.79427654258E+01  0.10113879045E+02  0.51100000000E-03 0. -1.
        -11    1    3    3    0    0 -0.25512387956E+02 -0.23096204891E+02  0.15263040930E+02  0.37646740075E+02  0.51100000000E-03 0.  1.
         12    1    3    3    0    0  0.31939151013E+02  0.26754646926E+02 -0.69924571026E+01  0.42247070383E+02  0.00000000000E+00 0. -1.
</event>
<event>
 7    1  0.1999542E-015  0.9000771E+02  0.7816164E-02  0.1186339E+00
        -11   -1    0    0    0    0  0.00000000000E+00  0.00000000000E+00  0.45593999997E+02  0.45594000000E+02  0.51100000000E-03 0.  1.
         11   -1    0    0    0    0 -0.00000000000E+00 -0.00000000000E+00 -0.45593999997E+02  0.45594000000E+02  0.51100000000E-03 0. -1.
    9900012    2    1    2    0    0 -0.42585800778E+00 -0.85856887486E+00 -0.68891241284E+00  0.90007705177E+02  0.89999966086E+02 0.  0.
         12    1    1    2    0    0  0.42585800778E+00  0.85856887486E+00  0.68891241284E+00  0.11802948226E+01  0.00000000000E+00 0. -1.
         11    1    3    3    0    0 -0.25878603221E+02  0.32205852012E+02 -0.96190826604E+01  0.42419874587E+02  0.51100000000E-03 0. -1.
        -11    1    3    3    0    0  0.68892142088E+01 -0.14284880100E+02 -0.63455399236E+01  0.17081713880E+02  0.51100000000E-03 0.  1.
        -12    1    3    3    0    0  0.18563531005E+02 -0.18779540787E+02  0.15275710171E+02  0.30506116710E+02  0.00000000000E+00 0.  1.
</event>
<event>
 7    1  0.1999542E-015  0.9000774E+02  0.7816164E-02  0.1186339E+00
        -11   -1    0    0    0    0  0.00000000000E+00  0.00000000000E+00  0.45593999997E+02  0.45594000000E+02  0.51100000000E-03 0.  1.
         11   -1    0    0    0    0 -0.00000000000E+00 -0.00000000000E+00 -0.45593999997E+02  0.45594000000E+02  0.51100000000E-03 0. -1.
    9900012    2    1    2    0    0  0.11032070218E+01  0.99562773351E-01  0.40746655777E+00  0.90007742624E+02  0.90000004026E+02 0.  0.
         12    1    1    2    0    0 -0.11032070218E+01 -0.99562773351E-01 -0.40746655777E+00  0.11802573764E+01  0.00000000000E+00 0. -1.
         11    1    3    3    0    0  0.18904369918E+02  0.36350246582E+01  0.11614141564E+02  0.22482813231E+02  0.51100000000E-03 0. -1.
        -11    1    3    3    0    0  0.16069776205E+02 -0.17253375532E+02  0.96182854580E+01  0.25464251215E+02  0.51100000000E-03 0.  1.
         12    1    3    3    0    0 -0.33870939101E+02  0.13717913647E+02 -0.20824960464E+02  0.42060678178E+02  0.00000000000E+00 0. -1.
</event>
<event>
 7    1  0.1999542E-015  0.9000777E+02  0.7816164E-02  0.1186339E+00
        -11   -1    0    0    0    0  0.00000000000E+00  0.00000000000E+00  0.45593999997E+02  0.45594000000E+02  0.51100000000E-03 0.  1.
         11   -1    0    0    0    0 -0.00000000000E+00 -0.00000000000E+00 -0.45593999997E+02  0.45594000000E+02  0.51100000000E-03 0. -1.
    9900012    2    1    2    0    0 -0.68923791213E+00  0.64447384650E+00  0.70891404391E+00  0.90007765040E+02  0.90000026739E+02 0.  0.
         12    1    1    2    0    0  0.68923791213E+00 -0.64447384650E+00 -0.70891404391E+00  0.11802349597E+01  0.00000000000E+00 0. -1.
         11    1    3    3    0    0 -0.34728513731E+02  0.19057612892E+02 -0.64939802133E+01  0.40142671241E+02  0.51100000000E-03 0. -1.
        -11    1    3    3    0    0  0.16106097448E+01  0.59883968132E+01  0.69039899054E+01  0.92800882010E+01  0.51100000000E-03 0.  1.
        -12    1    3    3    0    0  0.32428666074E+02 -0.24401535859E+02  0.29890435187E+00  0.40585005598E+02  0.00000000000E+00 0.  1.
</event>
<event>
 7    1  0.1999542E-015  0.9000790E+02  0.7816164E-02  0.1186339E+00
        -11   -1    0    0    0    0  0.00000000000E+00  0.00000000000E+00  0.45593999997E+02  0.45594000000E+02  0.51100000000E-03 0.  1.
         11   -1    0    0    0    0 -0.00000000000E+00 -0.00000000000E+00 -0.45593999997E+02  0.45594000000E+02  0.51100000000E-03 0. -1.
    9900012    2    1    2    0    0 -0.97859500475E+00 -0.61981617351E+00  0.22544811656E+00  0.90007895290E+02  0.90000158708E+02 0.  0.
         12    1    1    2    0    0  0.97859500475E+00  0.61981617351E+00 -0.22544811656E+00  0.11801047096E+01  0.00000000000E+00 0. -1.
         11    1    3    3    0    0  0.28251491773E+02 -0.26159183821E+02 -0.95697010168E+01  0.39674032609E+02  0.51100000000E-03 0. -1.
        -11    1    3    3    0    0 -0.30699353863E+01  0.13814448536E+01 -0.93269414575E+01  0.99158827329E+01  0.51100000000E-03 0.  1.
        -12    1    3    3    0    0 -0.26160151392E+02  0.24157922794E+02  0.19122090591E+02  0.40417979949E+02  0.00000000000E+00 0.  1.
</event>
<event>
 7    1  0.1999542E-015  0.9000769E+02  0.7816164E-02  0.1186339E+00
        -11   -1    0    0    0    0  0.00000000000E+00  0.00000000000E+00  0.45593999997E+02  0.45594000000E+02  0.51100000000E-03 0.  1.
         11   -1    0    0    0    0 -0.00000000000E+00 -0.00000000000E+00 -0.45593999997E+02  0.45594000000E+02  0.51100000000E-03 0. -1.
    9900012    2    1    2    0    0  0.63033033041E+00  0.68134162298E+00 -0.72910721320E+00  0.90007686456E+02  0.89999947118E+02 0.  0.
         12    1    1    2    0    0 -0.63033033041E+00 -0.68134162298E+00  0.72910721320E+00  0.11803135435E+01  0.00000000000E+00 0. -1.
         11    1    3    3    0    0  0.36695336180E+02 -0.46102574498E+01 -0.13789284373E+02  0.39470831444E+02  0.51100000000E-03 0. -1.
        -11    1    3    3    0    0  0.42646209225E+01  0.39084939930E+01  0.79929122873E+01  0.98666085359E+01  0.51100000000E-03 0.  1.
        -12    1    3    3    0    0 -0.40329626772E+02  0.13831050798E+01  0.50672648723E+01  0.40670246477E+02  0.00000000000E+00 0.  1.
</event>
<event>
 7    1  0.2676551E-015  0.9000767E+02  0.7816164E-02  0.1186339E+00
        -11   -1    0    0    0    0  0.00000000000E+00  0.00000000000E+00  0.45593999997E+02  0.45594000000E+02  0.51100000000E-03 0.  1.
         11   -1    0    0    0    0 -0.00000000000E+00 -0.00000000000E+00 -0.45593999997E+02  0.45594000000E+02  0.51100000000E-03 0. -1.
    9900012    2    1    2    0    0  0.10508278389E+01 -0.14995934740E+00  0.51619553708E+00  0.90007667511E+02  0.89999927922E+02 0.  0.
         12    1    1    2    0    0 -0.10508278389E+01  0.14995934740E+00 -0.51619553708E+00  0.11803324893E+01  0.00000000000E+00 0. -1.
         11    1    3    3    0    0 -0.35266030593E+02  0.19064622656E+02 -0.71656234714E+01  0.40724672016E+02  0.51100000000E-03 0. -1.
        -11    1    3    3    0    0  0.11308397915E+01 -0.67632058827E+01 -0.64106297500E+01  0.93870083892E+01  0.51100000000E-03 0.  1.
        -12    1    3    3    0    0  0.35186018641E+02 -0.12451376121E+02  0.14092448759E+02  0.39895987105E+02  0.00000000000E+00 0.  1.
</event>
<event>
 7    1  0.1999542E-015  0.9000774E+02  0.7816164E-02  0.1186339E+00
        -11   -1    0    0    0    0  0.00000000000E+00  0.00000000000E+00  0.45593999997E+02  0.45594000000E+02  0.51100000000E-03 0.  1.
         11   -1    0    0    0    0 -0.00000000000E+00 -0.00000000000E+00 -0.45593999997E+02  0.45594000000E+02  0.51100000000E-03 0. -1.
    9900012    2    1    2    0    0 -0.95257557384E+00 -0.35836517505E+00 -0.59766131151E+00  0.90007735256E+02  0.89999996561E+02 0.  0.
         12    1    1    2    0    0  0.95257557384E+00  0.35836517505E+00  0.59766131151E+00  0.11802647440E+01  0.00000000000E+00 0. -1.
         11    1    3    3    0    0 -0.73091758826E+01  0.52957494776E+01 -0.73146096412E+00  0.90556087601E+01  0.51100000000E-03 0. -1.
        -11    1    3    3    0    0 -0.36148338162E+02  0.43475890364E+00  0.86628521951E+01  0.37174404846E+02  0.51100000000E-03 0.  1.
         12    1    3    3    0    0  0.42504938471E+02 -0.60888735563E+01 -0.85290525425E+01  0.43777721650E+02  0.00000000000E+00 0. -1.
</event>
<event>
 7    1  0.1999542E-015  0.9000772E+02  0.7816164E-02  0.1186339E+00
        -11   -1    0    0    0    0  0.00000000000E+00  0.00000000000E+00  0.45593999997E+02  0.45594000000E+02  0.51100000000E-03 0.  1.
         11   -1    0    0    0    0 -0.00000000000E+00 -0.00000000000E+00 -0.45593999997E+02  0.45594000000E+02  0.51100000000E-03 0. -1.
    9900012    2    1    2    0    0  0.73095960604E+00  0.59208414618E+00 -0.71288636729E+00  0.90007715054E+02  0.89999976092E+02 0.  0.
         12    1    1    2    0    0 -0.73095960604E+00 -0.59208414618E+00  0.71288636729E+00  0.11802849463E+01  0.00000000000E+00 0. -1.
         11    1    3    3    0    0  0.25733118143E+02  0.19009242485E+02  0.25351029602E+02  0.40819350452E+02  0.51100000000E-03 0. -1.
        -11    1    3    3    0    0 -0.90337238010E+01  0.19490866557E+01  0.35135319734E+01  0.98869617019E+01  0.51100000000E-03 0.  1.
        -12    1    3    3    0    0 -0.15968434736E+02 -0.20366244994E+02 -0.29577447943E+02  0.39301402900E+02  0.00000000000E+00 0.  1.
</event>
<event>
 7    1  0.1999542E-015  0.9000774E+02  0.7816164E-02  0.1186339E+00
        -11   -1    0    0    0    0  0.00000000000E+00  0.00000000000E+00  0.45593999997E+02  0.45594000000E+02  0.51100000000E-03 0. -1.
         11   -1    0    0    0    0 -0.00000000000E+00 -0.00000000000E+00 -0.45593999997E+02  0.45594000000E+02  0.51100000000E-03 0.  1.
    9900012    2    1    2    0    0  0.63341784683E+00  0.99151562743E+00 -0.93222254345E-01  0.90007740793E+02  0.90000002171E+02 0.  0.
         12    1    1    2    0    0 -0.63341784683E+00 -0.99151562743E+00  0.93222254345E-01  0.11802592075E+01  0.00000000000E+00 0. -1.
         11    1    3    3    0    0  0.19910254191E+02 -0.19606745437E+02  0.22725256737E+02  0.36017773148E+02  0.51100000000E-03 0. -1.
        -11    1    3    3    0    0  0.37745253214E+01 -0.97891747528E+01 -0.25474893113E+01  0.10796512668E+02  0.51100000000E-03 0.  1.
        -12    1    3    3    0    0 -0.23051361665E+02  0.30387435817E+02 -0.20270989680E+02  0.43193454976E+02  0.00000000000E+00 0.  1.
</event>
<event>
 7    1  0.1999542E-015  0.9000774E+02  0.7816164E-02  0.1186339E+00
        -11   -1    0    0    0    0  0.00000000000E+00  0.00000000000E+00  0.45593999997E+02  0.45594000000E+02  0.51100000000E-03 0. -1.
         11   -1    0    0    0    0 -0.00000000000E+00 -0.00000000000E+00 -0.45593999997E+02  0.45594000000E+02  0.51100000000E-03 0.  1.
    9900012    2    1    2    0    0 -0.29979888778E+00  0.87805212544E+00 -0.72950012544E+00  0.90007735055E+02  0.89999996357E+02 0.  0.
         12    1    1    2    0    0  0.29979888778E+00 -0.87805212544E+00  0.72950012544E+00  0.11802649453E+01  0.00000000000E+00 0. -1.
         11    1    3    3    0    0  0.50015833545E+01  0.23213840662E+02  0.11059458176E+02  0.26195607451E+02  0.51100000000E-03 0. -1.
        -11    1    3    3    0    0  0.20597223009E+02 -0.15180321155E+02 -0.23276787377E+02  0.34590411633E+02  0.51100000000E-03 0.  1.
         12    1    3    3    0    0 -0.25898605251E+02 -0.71554673808E+01  0.11487829076E+02  0.29221715971E+02  0.00000000000E+00 0. -1.
</event>
<event>
 7    1  0.1999542E-015  0.9000762E+02  0.7816164E-02  0.1186339E+00
        -11   -1    0    0    0    0  0.00000000000E+00  0.00000000000E+00  0.45593999997E+02  0.45594000000E+02  0.51100000000E-03 0. -1.
         11   -1    0    0    0    0 -0.00000000000E+00 -0.00000000000E+00 -0.45593999997E+02  0.45594000000E+02  0.51100000000E-03 0.  1.
    9900012    2    1    2    0    0 -0.56839041960E+00 -0.93190673270E+00  0.44920813589E+00  0.90007616259E+02  0.89999875993E+02 0.  0.
         12    1    1    2    0    0  0.56839041960E+00  0.93190673270E+00 -0.44920813589E+00  0.11803837414E+01  0.00000000000E+00 0. -1.
         11    1    3    3    0    0 -0.19086235357E+02  0.64886655106E+01  0.34707674197E+02  0.40137386669E+02  0.51100000000E-03 0. -1.
        -11    1    3    3    0    0 -0.46250219184E+01 -0.70306723617E+01  0.13139566174E+00  0.84165578881E+01  0.51100000000E-03 0.  1.
        -12    1    3    3    0    0  0.23142866856E+02 -0.38989988160E+00 -0.34389861723E+02  0.41453671701E+02  0.00000000000E+00 0.  1.
</event>
<event>
 7    1  0.1999542E-015  0.9000754E+02  0.7816164E-02  0.1186339E+00
        -11   -1    0    0    0    0  0.00000000000E+00  0.00000000000E+00  0.45593999997E+02  0.45594000000E+02  0.51100000000E-03 0.  1.
         11   -1    0    0    0    0 -0.00000000000E+00 -0.00000000000E+00 -0.45593999997E+02  0.45594000000E+02  0.51100000000E-03 0. -1.
    9900012    2    1    2    0    0 -0.93019850093E+00 -0.32948977920E+00  0.64780338737E+00  0.90007541617E+02  0.89999800366E+02 0.  0.
         12    1    1    2    0    0  0.93019850093E+00  0.32948977920E+00 -0.64780338737E+00  0.11804583832E+01  0.00000000000E+00 0. -1.
         11    1    3    3    0    0  0.20390686662E+02 -0.24425829793E+02 -0.22442022356E+02  0.38936430644E+02  0.51100000000E-03 0. -1.
        -11    1    3    3    0    0 -0.25032699942E+01 -0.79680344468E+01  0.36126383050E+01  0.90998400751E+01  0.51100000000E-03 0.  1.
        -12    1    3    3    0    0 -0.18817615169E+02  0.32064374461E+02  0.19477187438E+02  0.41971270897E+02  0.00000000000E+00 0.  1.
</event>
<event>
 7    1  0.1999542E-015  0.9000767E+02  0.7816164E-02  0.1186339E+00
        -11   -1    0    0    0    0  0.00000000000E+00  0.00000000000E+00  0.45593999997E+02  0.45594000000E+02  0.51100000000E-03 0. -1.
         11   -1    0    0    0    0 -0.00000000000E+00 -0.00000000000E+00 -0.45593999997E+02  0.45594000000E+02  0.51100000000E-03 0.  1.
    9900012    2    1    2    0    0  0.74550788635E+00 -0.59723627102E+00 -0.69333253957E+00  0.90007668190E+02  0.89999928610E+02 0.  0.
         12    1    1    2    0    0 -0.74550788635E+00  0.59723627102E+00  0.69333253957E+00  0.11803318103E+01  0.00000000000E+00 0. -1.
         11    1    3    3    0    0  0.74345047481E+01 -0.31687641303E+01 -0.44228958125E+01  0.92127593366E+01  0.51100000000E-03 0. -1.
        -11    1    3    3    0    0  0.20346730531E+02 -0.30907005893E+02 -0.34677836679E+01  0.37165279232E+02  0.51100000000E-03 0.  1.
         12    1    3    3    0    0 -0.27035727393E+02  0.33478533752E+02  0.71973469408E+01  0.43629629621E+02  0.00000000000E+00 0. -1.
</event>
<event>
 7    1  0.1999542E-015  0.9000779E+02  0.7816164E-02  0.1186339E+00
        -11   -1    0    0    0    0  0.00000000000E+00  0.00000000000E+00  0.45593999997E+02  0.45594000000E+02  0.51100000000E-03 0. -1.
         11   -1    0    0    0    0 -0.00000000000E+00 -0.00000000000E+00 -0.45593999997E+02  0.45594000000E+02  0.51100000000E-03 0.  1.
    9900012    2    1    2    0    0  0.98106395171E+00  0.67564503762E-02 -0.65601815239E+00  0.90007791568E+02  0.90000053617E+02 0.  0.
         12    1    1    2    0    0 -0.98106395171E+00 -0.67564503761E-02  0.65601815239E+00  0.11802084321E+01  0.00000000000E+00 0. -1.
         11    1    3    3    0    0 -0.22425921527E+01 -0.88294495189E+01 -0.26195756397E+01  0.94789543286E+01  0.51100000000E-03 0. -1.
        -11    1    3    3    0    0  0.19645935468E+02  0.18049569351E+02 -0.32019622971E+02  0.41677403825E+02  0.51100000000E-03 0.  1.
         12    1    3    3    0    0 -0.16422279364E+02 -0.92133633818E+01  0.33983180458E+02  0.38851433414E+02  0.00000000000E+00 0. -1.
</event>
<event>
 7    1  0.1999542E-015  0.9000719E+02  0.7816164E-02  0.1186340E+00
        -11   -1    0    0    0    0  0.00000000000E+00  0.00000000000E+00  0.45593999997E+02  0.45594000000E+02  0.51100000000E-03 0.  1.
         11   -1    0    0    0    0 -0.00000000000E+00 -0.00000000000E+00 -0.45593999997E+02  0.45594000000E+02  0.51100000000E-03 0. -1.
    9900012    2    1    2    0    0 -0.10786616545E+01 -0.11434787640E+00  0.46661194773E+00  0.90007189638E+02  0.89999443739E+02 0.  0.
         12    1    1    2    0    0  0.10786616545E+01  0.11434787640E+00 -0.46661194773E+00  0.11808103622E+01  0.00000000000E+00 0. -1.
         11    1    3    3    0    0  0.31236810868E+02  0.20619926462E+02  0.18605748237E+01  0.37475077845E+02  0.51100000000E-03 0. -1.
        -11    1    3    3    0    0  0.77388675215E+01 -0.58103657344E+01 -0.14663195611E+01  0.97877736897E+01  0.51100000000E-03 0.  1.
        -12    1    3    3    0    0 -0.40054340044E+02 -0.14923908604E+02  0.72356685230E-01  0.42744338103E+02  0.00000000000E+00 0.  1.
</event>
<event>
 7    1  0.3272941E-015  0.9000778E+02  0.7816164E-02  0.1186339E+00
        -11   -1    0    0    0    0  0.00000000000E+00  0.00000000000E+00  0.45593999997E+02  0.45594000000E+02  0.51100000000E-03 0.  1.
         11   -1    0    0    0    0 -0.00000000000E+00 -0.00000000000E+00 -0.45593999997E+02  0.45594000000E+02  0.51100000000E-03 0. -1.
    9900012    2    1    2    0    0  0.54582050615E+00 -0.10295801848E+01 -0.18700397874E+00  0.90007777195E+02  0.90000039054E+02 0.  0.
         12    1    1    2    0    0 -0.54582050615E+00  0.10295801848E+01  0.18700397874E+00  0.11802228052E+01  0.00000000000E+00 0. -1.
         11    1    3    3    0    0 -0.34615829693E+02  0.15192316333E+02  0.38755644474E+01  0.38001080787E+02  0.51100000000E-03 0. -1.
        -11    1    3    3    0    0 -0.54707464049E+01 -0.39022563401E+01 -0.66694683040E+01  0.94677599510E+01  0.51100000000E-03 0.  1.
        -12    1    3    3    0    0  0.40632396604E+02 -0.12319640177E+02  0.26068998778E+01  0.42538936457E+02  0.00000000000E+00 0.  1.
</event>
<event>
 7    1  0.1999542E-015  0.9000789E+02  0.7816164E-02  0.1186339E+00
        -11   -1    0    0    0    0  0.00000000000E+00  0.00000000000E+00  0.45593999997E+02  0.45594000000E+02  0.51100000000E-03 0.  1.
         11   -1    0    0    0    0 -0.00000000000E+00 -0.00000000000E+00 -0.45593999997E+02  0.45594000000E+02  0.51100000000E-03 0. -1.
    9900012    2    1    2    0    0 -0.92972243491E+00 -0.23057045174E+00 -0.68927717278E+00  0.90007894259E+02  0.90000157663E+02 0.  0.
         12    1    1    2    0    0  0.92972243491E+00  0.23057045174E+00  0.68927717278E+00  0.11801057411E+01  0.00000000000E+00 0. -1.
         11    1    3    3    0    0 -0.32711875267E+02  0.11674394822E+01 -0.19820188406E+02  0.38265775402E+02  0.51100000000E-03 0. -1.
        -11    1    3    3    0    0 -0.31979276530E+01 -0.14245413551E+01 -0.71689566734E+01  0.79780949726E+01  0.51100000000E-03 0.  1.
        -12    1    3    3    0    0  0.34980080485E+02  0.26531421174E-01  0.26299867907E+02  0.43764023884E+02  0.00000000000E+00 0.  1.
</event>
<event>
 7    1  0.1999542E-015  0.9000743E+02  0.7816164E-02  0.1186340E+00
        -11   -1    0    0    0    0  0.00000000000E+00  0.00000000000E+00  0.45593999997E+02  0.45594000000E+02  0.51100000000E-03 0. -1.
         11   -1    0    0    0    0 -0.00000000000E+00 -0.00000000000E+00 -0.45593999997E+02  0.45594000000E+02  0.51100000000E-03 0.  1.
    9900012    2    1    2    0    0 -0.47852611913E+00  0.91378612354E+00 -0.57424633300E+00  0.90007427606E+02  0.89999684850E+02 0.  0.
         12    1    1    2    0    0  0.47852611913E+00 -0.91378612354E+00  0.57424633300E+00  0.11805723939E+01  0.00000000000E+00 0. -1.
         11    1    3    3    0    0 -0.24866894655E+02  0.29009079952E+02  0.89914689867E+01  0.39252206106E+02  0.51100000000E-03 0. -1.
        -11    1    3    3    0    0 -0.67031545972E+01 -0.22404402273E+00 -0.57353706581E+01  0.88247920160E+01  0.51100000000E-03 0.  1.
        -12    1    3    3    0    0  0.31091523133E+02 -0.27871249806E+02 -0.38303446616E+01  0.41930429484E+02  0.00000000000E+00 0.  1.
</event>
<event>
 7    1  0.1999542E-015  0.9000767E+02  0.7816164E-02  0.1186339E+00
        -11   -1    0    0    0    0  0.00000000000E+00  0.00000000000E+00  0.45593999997E+02  0.45594000000E+02  0.51100000000E-03 0.  1.
         11   -1    0    0    0    0 -0.00000000000E+00 -0.00000000000E+00 -0.45593999997E+02  0.45594000000E+02  0.51100000000E-03 0. -1.
    9900012    2    1    2    0    0  0.91165678441E-01 -0.38643074695E+00  0.11115440272E+01  0.90007673762E+02  0.89999934256E+02 0.  0.
         12    1    1    2    0    0 -0.91165678441E-01  0.38643074695E+00 -0.11115440272E+01  0.11803262377E+01  0.00000000000E+00 0. -1.
         11    1    3    3    0    0 -0.18412016208E+01  0.31475726208E+02 -0.24605342110E+02  0.39994177381E+02  0.51100000000E-03 0. -1.
        -11    1    3    3    0    0 -0.71860514682E+01  0.27018073116E+00 -0.97553849630E+00  0.72569972406E+01  0.51100000000E-03 0.  1.
        -12    1    3    3    0    0  0.91184187674E+01 -0.32132337686E+02  0.26692424634E+02  0.42756499141E+02  0.00000000000E+00 0.  1.
</event>
<event>
 7    1  0.1999542E-015  0.9000800E+02  0.7816164E-02  0.1186339E+00
        -11   -1    0    0    0    0  0.00000000000E+00  0.00000000000E+00  0.45593999997E+02  0.45594000000E+02  0.51100000000E-03 0. -1.
         11   -1    0    0    0    0 -0.00000000000E+00 -0.00000000000E+00 -0.45593999997E+02  0.45594000000E+02  0.51100000000E-03 0.  1.
    9900012    2    1    2    0    0 -0.37024631474E+00  0.97085422165E-01 -0.11161941187E+01  0.90008001177E+02  0.90000265992E+02 0.  0.
         12    1    1    2    0    0  0.37024631474E+00 -0.97085422165E-01  0.11161941187E+01  0.11799988235E+01  0.00000000000E+00 0. -1.
         11    1    3    3    0    0 -0.43577452241E+01 -0.47157933824E+00  0.86532583140E+01  0.97000623823E+01  0.51100000000E-03 0. -1.
        -11    1    3    3    0    0 -0.16225361083E+02  0.31869621904E+02 -0.20899222776E+02  0.41421161928E+02  0.51100000000E-03 0.  1.
         12    1    3    3    0    0  0.20212859992E+02 -0.31300957143E+02  0.11129770343E+02  0.38886776866E+02  0.00000000000E+00 0. -1.
</event>
<event>
 7    1  0.1999542E-015  0.9000778E+02  0.7816164E-02  0.1186339E+00
        -11   -1    0    0    0    0  0.00000000000E+00  0.00000000000E+00  0.45593999997E+02  0.45594000000E+02  0.51100000000E-03 0.  1.
         11   -1    0    0    0    0 -0.00000000000E+00 -0.00000000000E+00 -0.45593999997E+02  0.45594000000E+02  0.51100000000E-03 0. -1.
    9900012    2    1    2    0    0  0.66244367852E+00 -0.63838911771E+00  0.73928763305E+00  0.90007780318E+02  0.90000042218E+02 0.  0.
         12    1    1    2    0    0 -0.66244367852E+00  0.63838911771E+00 -0.73928763305E+00  0.11802196818E+01  0.00000000000E+00 0. -1.
         11    1    3    3    0    0  0.30011735001E+02 -0.19097585738E+02 -0.74672513463E+01  0.36348065447E+02  0.51100000000E-03 0. -1.
        -11    1    3    3    0    0  0.97469440965E+01  0.28794192870E+00  0.31712320206E+01  0.10253903772E+02  0.51100000000E-03 0.  1.
        -12    1    3    3    0    0 -0.39096235419E+02  0.18171254692E+02  0.50353069588E+01  0.43405811099E+02  0.00000000000E+00 0.  1.
</event>
<event>
 7    1  0.1999542E-015  0.9000777E+02  0.7816164E-02  0.1186339E+00
        -11   -1    0    0    0    0  0.00000000000E+00  0.00000000000E+00  0.45593999997E+02  0.45594000000E+02  0.51100000000E-03 0. -1.
         11   -1    0    0    0    0 -0.00000000000E+00 -0.00000000000E+00 -0.45593999997E+02  0.45594000000E+02  0.51100000000E-03 0.  1.
    9900012    2    1    2    0    0 -0.87615424476E+00  0.66478010763E+00 -0.42821974344E+00  0.90007766548E+02  0.90000028267E+02 0.  0.
         12    1    1    2    0    0  0.87615424476E+00 -0.66478010763E+00  0.42821974344E+00  0.11802334518E+01  0.00000000000E+00 0. -1.
         11    1    3    3    0    0 -0.89813660992E+01 -0.25249678685E+02  0.28872343514E+02  0.39393190159E+02  0.51100000000E-03 0. -1.
        -11    1    3    3    0    0 -0.33407087842E+01 -0.50498047300E+01  0.58672977504E+00  0.60831829729E+01  0.51100000000E-03 0.  1.
        -12    1    3    3    0    0  0.11445920639E+02  0.30964263523E+02 -0.29887293032E+02  0.44531393416E+02  0.00000000000E+00 0.  1.
</event>
<event>
 7    1  0.1999542E-015  0.9000777E+02  0.7816164E-02  0.1186339E+00
        -11   -1    0    0    0    0  0.00000000000E+00  0.00000000000E+00  0.45593999997E+02  0.45594000000E+02  0.51100000000E-03 0.  1.
         11   -1    0    0    0    0 -0.00000000000E+00 -0.00000000000E+00 -0.45593999997E+02  0.45594000000E+02  0.51100000000E-03 0. -1.
    9900012    2    1    2    0    0  0.12544944371E-01 -0.99828795709E+00  0.62945369145E+00  0.90007767747E+02  0.90000029481E+02 0.  0.
         12    1    1    2    0    0 -0.12544944371E-01  0.99828795709E+00 -0.62945369145E+00  0.11802322528E+01  0.00000000000E+00 0. -1.
         11    1    3    3    0    0  0.63410271872E+01  0.14930596134E+00  0.78976553912E+01  0.10129357285E+02  0.51100000000E-03 0. -1.
        -11    1    3    3    0    0 -0.12160625788E+02  0.38034937724E+02 -0.38677422771E+01  0.40118533595E+02  0.51100000000E-03 0.  1.
         12    1    3    3    0    0  0.58321435453E+01 -0.39182531642E+02 -0.34004594227E+01  0.39759876868E+02  0.00000000000E+00 0. -1.
</event>
<event>
 7    1  0.1999542E-015  0.9000770E+02  0.7816164E-02  0.1186339E+00
        -11   -1    0    0    0    0  0.00000000000E+00  0.00000000000E+00  0.45593999997E+02  0.45594000000E+02  0.51100000000E-03 0.  1.
         11   -1    0    0    0    0 -0.00000000000E+00 -0.00000000000E+00 -0.45593999997E+02  0.45594000000E+02  0.51100000000E-03 0. -1.
    9900012    2    1    2    0    0  0.25773578615E+00 -0.27249083661E+00 -0.11191160203E+01  0.90007703572E+02  0.89999964459E+02 0.  0.
         12    1    1    2    0    0 -0.25773578615E+00  0.27249083661E+00  0.11191160203E+01  0.11802964282E+01  0.00000000000E+00 0. -1.
         11    1    3    3    0    0 -0.17281563080E+02 -0.20157509521E+02 -0.28150589569E+02  0.38696683397E+02  0.51100000000E-03 0. -1.
        -11    1    3    3    0    0 -0.78999980962E+01 -0.36749892724E+01  0.34113160839E+01  0.93569542992E+01  0.51100000000E-03 0.  1.
        -12    1    3    3    0    0  0.25439296962E+02  0.23560007957E+02  0.23620157465E+02  0.41954065876E+02  0.00000000000E+00 0.  1.
</event>
<event>
 7    1  0.1999542E-015  0.9000781E+02  0.7816164E-02  0.1186339E+00
        -11   -1    0    0    0    0  0.00000000000E+00  0.00000000000E+00  0.45593999997E+02  0.45594000000E+02  0.51100000000E-03 0. -1.
         11   -1    0    0    0    0 -0.00000000000E+00 -0.00000000000E+00 -0.45593999997E+02  0.45594000000E+02  0.51100000000E-03 0.  1.
    9900012    2    1    2    0    0  0.61965718642E+00  0.10031196899E+01 -0.51241131969E-01  0.90007809425E+02  0.90000071709E+02 0.  0.
         12    1    1    2    0    0 -0.61965718642E+00 -0.10031196899E+01  0.51241131969E-01  0.11801905755E+01  0.00000000000E+00 0. -1.
         11    1    3    3    0    0  0.55843077571E+01  0.11994474338E+01 -0.87839855952E+01  0.10477670088E+02  0.51100000000E-03 0. -1.
        -11    1    3    3    0    0 -0.22316021565E+02  0.27871028057E+02 -0.15161138222E+02  0.38789936013E+02  0.51100000000E-03 0.  1.
         12    1    3    3    0    0  0.17351370994E+02 -0.28067355801E+02  0.23893882685E+02  0.40740203323E+02  0.00000000000E+00 0. -1.
</event>
<event>
 7    1  0.1999542E-015  0.9000750E+02  0.7816164E-02  0.1186340E+00
        -11   -1    0    0    0    0  0.00000000000E+00  0.00000000000E+00  0.45593999997E+02  0.45594000000E+02  0.51100000000E-03 0.  1.
         11   -1    0    0    0    0 -0.00000000000E+00 -0.00000000000E+00 -0.45593999997E+02  0.45594000000E+02  0.51100000000E-03 0. -1.
    9900012    2    1    2    0    0  0.10318696073E+01  0.52447116197E+00 -0.23183007429E+00  0.90007504312E+02  0.89999762569E+02 0.  0.
         12    1    1    2    0    0 -0.10318696073E+01 -0.52447116197E+00  0.23183007429E+00  0.11804956881E+01  0.00000000000E+00 0. -1.
         11    1    3    3    0    0  0.10622622768E+02  0.75471247304E+01 -0.46634744574E+01  0.13840057819E+02  0.51100000000E-03 0. -1.
        -11    1    3    3    0    0  0.22426464310E+02  0.71487753291E+01  0.25977923057E+02  0.35055723880E+02  0.51100000000E-03 0.  1.
         12    1    3    3    0    0 -0.32017217470E+02 -0.14171428898E+02 -0.21546278673E+02  0.41111722613E+02  0.00000000000E+00 0. -1.
</event>
<event>
 7    1  0.1999542E-015  0.9000786E+02  0.7816164E-02  0.1186339E+00
        -11   -1    0    0    0    0  0.00000000000E+00  0.00000000000E+00  0.45593999997E+02  0.45594000000E+02  0.51100000000E-03 0.  1.
         11   -1    0    0    0    0 -0.00000000000E+00 -0.00000000000E+00 -0.45593999997E+02  0.45594000000E+02  0.51100000000E-03 0. -1.
    9900012    2    1    2    0    0 -0.79378291372E+00 -0.87312060503E+00 -0.17076012083E-01  0.90007863357E+02  0.90000126354E+02 0.  0.
         12    1    1    2    0    0  0.79378291372E+00  0.87312060503E+00  0.17076012083E-01  0.11801366426E+01  0.00000000000E+00 0. -1.
         11    1    3    3    0    0 -0.25454309697E+02  0.17090029707E+02  0.18766104082E+02  0.35946594557E+02  0.51100000000E-03 0. -1.
        -11    1    3    3    0    0  0.20852745435E+01  0.11045166995E+02  0.25990672782E+01  0.11536864168E+02  0.51100000000E-03 0.  1.
        -12    1    3    3    0    0  0.22575252240E+02 -0.29008317307E+02 -0.21382247372E+02  0.42524404632E+02  0.00000000000E+00 0.  1.
</event>
<event>
 7    1  0.1999542E-015  0.9000780E+02  0.7816164E-02  0.1186339E+00
        -11   -1    0    0    0    0  0.00000000000E+00  0.00000000000E+00  0.45593999997E+02  0.45594000000E+02  0.51100000000E-03 0. -1.
         11   -1    0    0    0    0 -0.00000000000E+00 -0.00000000000E+00 -0.45593999997E+02  0.45594000000E+02  0.51100000000E-03 0.  1.
    9900012    2    1    2    0    0  0.15063819752E+00 -0.11504465237E+01 -0.21600472957E+00  0.90007797851E+02  0.90000059982E+02 0.  0.
         12    1    1    2    0    0 -0.15063819752E+00  0.11504465237E+01  0.21600472957E+00  0.11802021495E+01  0.00000000000E+00 0. -1.
         11    1    3    3    0    0  0.32777880241E+00 -0.55630113753E+01 -0.61245575272E+01  0.82803828215E+01  0.51100000000E-03 0. -1.
        -11    1    3    3    0    0 -0.11322590244E+02  0.11705026561E+02 -0.35054896146E+02  0.38653000410E+02  0.51100000000E-03 0.  1.
         12    1    3    3    0    0  0.11145449639E+02 -0.72924617093E+01  0.40963448944E+02  0.43074414619E+02  0.00000000000E+00 0. -1.
</event>
<event>
 7    1  0.1999542E-015  0.9000778E+02  0.7816164E-02  0.1186339E+00
        -11   -1    0    0    0    0  0.00000000000E+00  0.00000000000E+00  0.45593999997E+02  0.45594000000E+02  0.51100000000E-03 0. -1.
         11   -1    0    0    0    0 -0.00000000000E+00 -0.00000000000E+00 -0.45593999997E+02  0.45594000000E+02  0.51100000000E-03 0.  1.
    9900012    2    1    2    0    0  0.79971922398E+00 -0.59633673076E+00 -0.63067916109E+00  0.90007777759E+02  0.90000039626E+02 0.  0.
         12    1    1    2    0    0 -0.79971922398E+00  0.59633673076E+00  0.63067916109E+00  0.11802222409E+01  0.00000000000E+00 0. -1.
         11    1    3    3    0    0  0.11346169631E+02 -0.16132524125E+02  0.27505074712E+01  0.19913794002E+02  0.51100000000E-03 0. -1.
        -11    1    3    3    0    0  0.20066474847E+02  0.23467714608E+01 -0.23632356590E+02  0.31091140657E+02  0.51100000000E-03 0.  1.
         12    1    3    3    0    0 -0.30612925254E+02  0.13189415934E+02  0.20251169958E+02  0.39002843101E+02  0.00000000000E+00 0. -1.
</event>
<event>
 7    1  0.1999542E-015  0.9000768E+02  0.7816164E-02  0.1186339E+00
        -11   -1    0    0    0    0  0.00000000000E+00  0.00000000000E+00  0.45593999997E+02  0.45594000000E+02  0.51100000000E-03 0.  1.
         11   -1    0    0    0    0 -0.00000000000E+00 -0.00000000000E+00 -0.45593999997E+02  0.45594000000E+02  0.51100000000E-03 0. -1.
    9900012    2    1    2    0    0 -0.41875947741E+00 -0.98838992125E+00  0.49079782002E+00  0.90007679435E+02  0.89999940003E+02 0.  0.
         12    1    1    2    0    0  0.41875947741E+00  0.98838992125E+00 -0.49079782002E+00  0.11803205651E+01  0.00000000000E+00 0. -1.
         11    1    3    3    0    0 -0.34990219086E+02 -0.25674837271E+01 -0.10702711178E+02  0.36680450259E+02  0.51100000000E-03 0. -1.
        -11    1    3    3    0    0 -0.64720020878E+01  0.45795086459E+01 -0.46942854186E+01  0.92138497011E+01  0.51100000000E-03 0.  1.
        -12    1    3    3    0    0  0.41043461697E+02 -0.30004148400E+01  0.15887794417E+02  0.44113379475E+02  0.00000000000E+00 0.  1.
</event>
<event>
 7    1  0.1999542E-015  0.9000773E+02  0.7816164E-02  0.1186339E+00
        -11   -1    0    0    0    0  0.00000000000E+00  0.00000000000E+00  0.45593999997E+02  0.45594000000E+02  0.51100000000E-03 0.  1.
         11   -1    0    0    0    0 -0.00000000000E+00 -0.00000000000E+00 -0.45593999997E+02  0.45594000000E+02  0.51100000000E-03 0. -1.
    9900012    2    1    2    0    0  0.82087184887E-01 -0.53287294759E+00  0.10499268773E+01  0.90007729551E+02  0.89999990781E+02 0.  0.
         12    1    1    2    0    0 -0.82087184887E-01  0.53287294759E+00 -0.10499268773E+01  0.11802704486E+01  0.00000000000E+00 0. -1.
         11    1    3    3    0    0 -0.26338545709E+02 -0.20928214490E+02 -0.20406085522E+02  0.39346124058E+02  0.51100000000E-03 0. -1.
        -11    1    3    3    0    0 -0.13091550447E+01 -0.64013780753E+01  0.67404003111E+01  0.93874663679E+01  0.51100000000E-03 0.  1.
        -12    1    3    3    0    0  0.27729787938E+02  0.26796719618E+02  0.14715612088E+02  0.41274139125E+02  0.00000000000E+00 0.  1.
</event>
<event>
 7    1  0.1999542E-015  0.9000773E+02  0.7816164E-02  0.1186339E+00
        -11   -1    0    0    0    0  0.00000000000E+00  0.00000000000E+00  0.45593999997E+02  0.45594000000E+02  0.51100000000E-03 0.  1.
         11   -1    0    0    0    0 -0.00000000000E+00 -0.00000000000E+00 -0.45593999997E+02  0.45594000000E+02  0.51100000000E-03 0. -1.
    9900012    2    1    2    0    0 -0.60561963889E+00 -0.30986858032E+00  0.96449595586E+00  0.90007726247E+02  0.89999987433E+02 0.  0.
         12    1    1    2    0    0  0.60561963889E+00  0.30986858032E+00 -0.96449595586E+00  0.11802737534E+01  0.00000000000E+00 0. -1.
         11    1    3    3    0    0 -0.44803742443E+01  0.92869101612E+01  0.87965738829E+01  0.13553603434E+02  0.51100000000E-03 0. -1.
        -11    1    3    3    0    0 -0.18835797938E+00 -0.15171264937E+02  0.32325117270E+02  0.35708765945E+02  0.51100000000E-03 0.  1.
         12    1    3    3    0    0  0.40631125848E+01  0.55744861954E+01 -0.40157195197E+02  0.40745356868E+02  0.00000000000E+00 0. -1.
</event>
<event>
 7    1  0.1999542E-015  0.9000776E+02  0.7816164E-02  0.1186339E+00
        -11   -1    0    0    0    0  0.00000000000E+00  0.00000000000E+00  0.45593999997E+02  0.45594000000E+02  0.51100000000E-03 0. -1.
         11   -1    0    0    0    0 -0.00000000000E+00 -0.00000000000E+00 -0.45593999997E+02  0.45594000000E+02  0.51100000000E-03 0.  1.
    9900012    2    1    2    0    0 -0.28386670211E+00  0.10873098600E+01 -0.36076241420E+00  0.90007757417E+02  0.90000019014E+02 0.  0.
         12    1    1    2    0    0  0.28386670211E+00 -0.10873098600E+01  0.36076241420E+00  0.11802425835E+01  0.00000000000E+00 0. -1.
         11    1    3    3    0    0 -0.36844716008E+02  0.49679211982E+01  0.16725783893E+02  0.40767207236E+02  0.51100000000E-03 0. -1.
        -11    1    3    3    0    0  0.50865745159E+01  0.98966173534E+01 -0.62987163530E+00  0.11145089227E+02  0.51100000000E-03 0.  1.
        -12    1    3    3    0    0  0.31474274790E+02 -0.13777228692E+02 -0.16456674672E+02  0.38095460953E+02  0.00000000000E+00 0.  1.
</event>
<event>
 7    1  0.1999542E-015  0.9000766E+02  0.7816164E-02  0.1186339E+00
        -11   -1    0    0    0    0  0.00000000000E+00  0.00000000000E+00  0.45593999997E+02  0.45594000000E+02  0.51100000000E-03 0.  1.
         11   -1    0    0    0    0 -0.00000000000E+00 -0.00000000000E+00 -0.45593999997E+02  0.45594000000E+02  0.51100000000E-03 0. -1.
    9900012    2    1    2    0    0 -0.11229776165E+00  0.32001893551E+00  0.11305654091E+01  0.90007660621E+02  0.89999920941E+02 0.  0.
         12    1    1    2    0    0  0.11229776165E+00 -0.32001893551E+00 -0.11305654091E+01  0.11803393794E+01  0.00000000000E+00 0. -1.
         11    1    3    3    0    0 -0.39236485032E+01  0.25650421526E+02  0.63474044264E+01  0.26713829476E+02  0.51100000000E-03 0. -1.
        -11    1    3    3    0    0  0.53786161630E+01  0.53414993142E+01  0.21368759587E+02  0.22673442908E+02  0.51100000000E-03 0.  1.
         12    1    3    3    0    0 -0.15672654215E+01 -0.30671901905E+02 -0.26585598604E+02  0.40620388237E+02  0.00000000000E+00 0. -1.
</event>
<event>
 7    1  0.1999542E-015  0.9000773E+02  0.7816164E-02  0.1186339E+00
        -11   -1    0    0    0    0  0.00000000000E+00  0.00000000000E+00  0.45593999997E+02  0.45594000000E+02  0.51100000000E-03 0. -1.
         11   -1    0    0    0    0 -0.00000000000E+00 -0.00000000000E+00 -0.45593999997E+02  0.45594000000E+02  0.51100000000E-03 0.  1.
    9900012    2    1    2    0    0  0.34807338345E+00  0.38863587990E+00  0.10586959374E+01  0.90007733075E+02  0.89999994351E+02 0.  0.
         12    1    1    2    0    0 -0.34807338345E+00 -0.38863587990E+00 -0.10586959374E+01  0.11802669254E+01  0.00000000000E+00 0. -1.
         11    1    3    3    0    0 -0.51089659178E+01  0.86685574236E+01  0.22623233662E+01  0.10313269502E+02  0.51100000000E-03 0. -1.
        -11    1    3    3    0    0  0.35761025000E+02  0.91800813994E+01  0.16564097304E+02  0.40465962528E+02  0.51100000000E-03 0.  1.
         12    1    3    3    0    0 -0.30303985699E+02 -0.17460002943E+02 -0.17767724733E+02  0.39228501044E+02  0.00000000000E+00 0. -1.
</event>
<event>
 7    1  0.1999542E-015  0.9000772E+02  0.7816164E-02  0.1186339E+00
        -11   -1    0    0    0    0  0.00000000000E+00  0.00000000000E+00  0.45593999997E+02  0.45594000000E+02  0.51100000000E-03 0. -1.
         11   -1    0    0    0    0 -0.00000000000E+00 -0.00000000000E+00 -0.45593999997E+02  0.45594000000E+02  0.51100000000E-03 0.  1.
    9900012    2    1    2    0    0 -0.35626334803E+00  0.80372176463E+00 -0.78751119142E+00  0.90007717778E+02  0.89999978852E+02 0.  0.
         12    1    1    2    0    0  0.35626334803E+00 -0.80372176463E+00  0.78751119142E+00  0.11802822225E+01  0.00000000000E+00 0. -1.
         11    1    3    3    0    0 -0.14025183144E+02 -0.18844584870E+02 -0.14591951581E+02  0.27654099015E+02  0.51100000000E-03 0. -1.
        -11    1    3    3    0    0  0.86944745388E+01 -0.18199947293E+02  0.13330094674E+02  0.24176918606E+02  0.51100000000E-03 0.  1.
        -12    1    3    3    0    0  0.49744452568E+01  0.37848253928E+02  0.47434571518E+00  0.38176700157E+02  0.00000000000E+00 0.  1.
</event>
<event>
 7    1  0.1999542E-015  0.9000771E+02  0.7816164E-02  0.1186339E+00
        -11   -1    0    0    0    0  0.00000000000E+00  0.00000000000E+00  0.45593999997E+02  0.45594000000E+02  0.51100000000E-03 0. -1.
         11   -1    0    0    0    0 -0.00000000000E+00 -0.00000000000E+00 -0.45593999997E+02  0.45594000000E+02  0.51100000000E-03 0.  1.
    9900012    2    1    2    0    0 -0.12524423845E+00  0.11269839430E-01 -0.11735715133E+01  0.90007710533E+02  0.89999971512E+02 0.  0.
         12    1    1    2    0    0  0.12524423845E+00 -0.11269839430E-01  0.11735715133E+01  0.11802894668E+01  0.00000000000E+00 0. -1.
         11    1    3    3    0    0 -0.16057738114E+01  0.52776457928E+01  0.68340164123E+01  0.87827009076E+01  0.51100000000E-03 0. -1.
        -11    1    3    3    0    0 -0.29553945285E+02  0.22445023579E+02  0.54229951093E+01  0.37504981556E+02  0.51100000000E-03 0.  1.
         12    1    3    3    0    0  0.31034474858E+02 -0.27711399532E+02 -0.13430583035E+02  0.43720028069E+02  0.00000000000E+00 0. -1.
</event>
<event>
 7    1  0.1999542E-015  0.9000779E+02  0.7816164E-02  0.1186339E+00
        -11   -1    0    0    0    0  0.00000000000E+00  0.00000000000E+00  0.45593999997E+02  0.45594000000E+02  0.51100000000E-03 0. -1.
         11   -1    0    0    0    0 -0.00000000000E+00 -0.00000000000E+00 -0.45593999997E+02  0.45594000000E+02  0.51100000000E-03 0.  1.
    9900012    2    1    2    0    0 -0.10616777927E+01 -0.39028617234E+00 -0.33675695897E+00  0.90007793119E+02  0.90000055188E+02 0.  0.
         12    1    1    2    0    0  0.10616777927E+01  0.39028617234E+00  0.33675695897E+00  0.11802068807E+01  0.00000000000E+00 0. -1.
         11    1    3    3    0    0  0.33951898877E+02 -0.20229140014E+02 -0.79200562161E+01  0.40307280158E+02  0.51100000000E-03 0. -1.
        -11    1    3    3    0    0 -0.69053825937E+01 -0.61517531303E+01 -0.34318870474E+01  0.98643917354E+01  0.51100000000E-03 0.  1.
        -12    1    3    3    0    0 -0.28108194076E+02  0.25990606972E+02  0.11015186305E+02  0.39836121225E+02  0.00000000000E+00 0.  1.
</event>
<event>
 7    1  0.1999542E-015  0.9000782E+02  0.7816164E-02  0.1186339E+00
        -11   -1    0    0    0    0  0.00000000000E+00  0.00000000000E+00  0.45593999997E+02  0.45594000000E+02  0.51100000000E-03 0. -1.
         11   -1    0    0    0    0 -0.00000000000E+00 -0.00000000000E+00 -0.45593999997E+02  0.45594000000E+02  0.51100000000E-03 0.  1.
    9900012    2    1    2    0    0  0.70250267644E+00  0.92501350555E+00 -0.20895225035E+00  0.90007821607E+02  0.90000084052E+02 0.  0.
         12    1    1    2    0    0 -0.70250267644E+00 -0.92501350555E+00  0.20895225035E+00  0.11801783928E+01  0.00000000000E+00 0. -1.
         11    1    3    3    0    0 -0.18694928674E+02  0.34157143951E+02 -0.27701640999E+01  0.39036965179E+02  0.51100000000E-03 0. -1.
        -11    1    3    3    0    0  0.66352692269E+01  0.45950579541E+01  0.71543573089E+01  0.10785461700E+02  0.51100000000E-03 0.  1.
        -12    1    3    3    0    0  0.12762162124E+02 -0.37827188399E+02 -0.45931454594E+01  0.40185394728E+02  0.00000000000E+00 0.  1.
</event>
<event>
 7    1  0.1999542E-015  0.9000769E+02  0.7816164E-02  0.1186339E+00
        -11   -1    0    0    0    0  0.00000000000E+00  0.00000000000E+00  0.45593999997E+02  0.45594000000E+02  0.51100000000E-03 0. -1.
         11   -1    0    0    0    0 -0.00000000000E+00 -0.00000000000E+00 -0.45593999997E+02  0.45594000000E+02  0.51100000000E-03 0.  1.
    9900012    2    1    2    0    0 -0.10345033898E+01 -0.36884828686E+00 -0.43229656804E+00  0.90007692140E+02  0.89999952876E+02 0.  0.
         12    1    1    2    0    0  0.10345033898E+01  0.36884828686E+00  0.43229656804E+00  0.11803078602E+01  0.00000000000E+00 0. -1.
         11    1    3    3    0    0 -0.35925269511E+02 -0.70668033294E+01  0.17026620820E+02  0.40379085125E+02  0.51100000000E-03 0. -1.
        -11    1    3    3    0    0  0.61121462956E+00 -0.86245362593E+01 -0.53892116643E+01  0.10188219257E+02  0.51100000000E-03 0.  1.
        -12    1    3    3    0    0  0.34279551492E+02  0.15322491302E+02 -0.12069705724E+02  0.39440387757E+02  0.00000000000E+00 0.  1.
</event>
<event>
 7    1  0.1999542E-015  0.9000765E+02  0.7816164E-02  0.1186339E+00
        -11   -1    0    0    0    0  0.00000000000E+00  0.00000000000E+00  0.45593999997E+02  0.45594000000E+02  0.51100000000E-03 0.  1.
         11   -1    0    0    0    0 -0.00000000000E+00 -0.00000000000E+00 -0.45593999997E+02  0.45594000000E+02  0.51100000000E-03 0. -1.
    9900012    2    1    2    0    0 -0.83373633045E+00 -0.54293609234E+00  0.63508189718E+00  0.90007650524E+02  0.89999910711E+02 0.  0.
         12    1    1    2    0    0  0.83373633045E+00  0.54293609234E+00 -0.63508189718E+00  0.11803494759E+01  0.00000000000E+00 0. -1.
         11    1    3    3    0    0 -0.36209230385E+02  0.12530796233E+02 -0.35343389334E+00  0.38317804414E+02  0.51100000000E-03 0. -1.
        -11    1    3    3    0    0 -0.59680646302E-01 -0.56386845874E+01  0.12486879146E+02  0.13701112244E+02  0.51100000000E-03 0.  1.
        -12    1    3    3    0    0  0.35435174701E+02 -0.74350477384E+01 -0.11498363355E+02  0.37988733867E+02  0.00000000000E+00 0.  1.
</event>
<event>
 7    1  0.1999542E-015  0.9000773E+02  0.7816164E-02  0.1186339E+00
        -11   -1    0    0    0    0  0.00000000000E+00  0.00000000000E+00  0.45593999997E+02  0.45594000000E+02  0.51100000000E-03 0.  1.
         11   -1    0    0    0    0 -0.00000000000E+00 -0.00000000000E+00 -0.45593999997E+02  0.45594000000E+02  0.51100000000E-03 0. -1.
    9900012    2    1    2    0    0 -0.34591107130E-01  0.27696155435E+00  0.11467946633E+01  0.90007727893E+02  0.89999989101E+02 0.  0.
         12    1    1    2    0    0  0.34591107130E-01 -0.27696155435E+00 -0.11467946633E+01  0.11802721072E+01  0.00000000000E+00 0. -1.
         11    1    3    3    0    0  0.64117467443E+01 -0.29336831092E+01 -0.74144706345E+01  0.10231879981E+02  0.51100000000E-03 0. -1.
        -11    1    3    3    0    0  0.49268387475E+01 -0.35082332999E+02  0.16447717224E+02  0.39058561556E+02  0.51100000000E-03 0.  1.
         12    1    3    3    0    0 -0.11373176599E+02  0.38292977662E+02 -0.78864519267E+01  0.40717286356E+02  0.00000000000E+00 0. -1.
</event>
<event>
 7    1  0.1999542E-015  0.9000773E+02  0.7816164E-02  0.1186339E+00
        -11   -1    0    0    0    0  0.00000000000E+00  0.00000000000E+00  0.45593999997E+02  0.45594000000E+02  0.51100000000E-03 0. -1.
         11   -1    0    0    0    0 -0.00000000000E+00 -0.00000000000E+00 -0.45593999997E+02  0.45594000000E+02  0.51100000000E-03 0.  1.
    9900012    2    1    2    0    0 -0.64208432368E+00  0.78416238948E+00 -0.60485541088E+00  0.90007731810E+02  0.89999993070E+02 0.  0.
         12    1    1    2    0    0  0.64208432368E+00 -0.78416238948E+00  0.60485541088E+00  0.11802681898E+01  0.00000000000E+00 0. -1.
         11    1    3    3    0    0  0.72037309878E+01 -0.64946013364E+01 -0.43229858980E+01  0.10618935634E+02  0.51100000000E-03 0. -1.
        -11    1    3    3    0    0  0.29170857379E+02 -0.15411133580E+02 -0.89076498216E+01  0.34172915943E+02  0.51100000000E-03 0.  1.
         12    1    3    3    0    0 -0.37016672691E+02  0.22689897306E+02  0.12625780309E+02  0.45215880233E+02  0.00000000000E+00 0. -1.
</event>
<event>
 7    1  0.2424240E-015  0.9000776E+02  0.7816164E-02  0.1186339E+00
        -11   -1    0    0    0    0  0.00000000000E+00  0.00000000000E+00  0.45593999997E+02  0.45594000000E+02  0.51100000000E-03 0. -1.
         11   -1    0    0    0    0 -0.00000000000E+00 -0.00000000000E+00 -0.45593999997E+02  0.45594000000E+02  0.51100000000E-03 0.  1.
    9900012    2    1    2    0    0  0.10982757845E+00  0.49629453306E+00 -0.10651732265E+01  0.90007760887E+02  0.90000022531E+02 0.  0.
         12    1    1    2    0    0 -0.10982757845E+00 -0.49629453306E+00  0.10651732265E+01  0.11802391126E+01  0.00000000000E+00 0. -1.
         11    1    3    3    0    0  0.28675754977E+02  0.23727546964E+02  0.15996025056E+02  0.40511334541E+02  0.51100000000E-03 0. -1.
        -11    1    3    3    0    0  0.29229112313E+01  0.82098748780E+00 -0.84070129387E+01  0.89384169367E+01  0.51100000000E-03 0.  1.
        -12    1    3    3    0    0 -0.31488838629E+02 -0.24052239919E+02 -0.86541853435E+01  0.40558009410E+02  0.00000000000E+00 0.  1.
</event>
<event>
 7    1  0.2235811E-015  0.9000815E+02  0.7816164E-02  0.1186338E+00
        -11   -1    0    0    0    0  0.00000000000E+00  0.00000000000E+00  0.45593999997E+02  0.45594000000E+02  0.51100000000E-03 0. -1.
         11   -1    0    0    0    0 -0.00000000000E+00 -0.00000000000E+00 -0.45593999997E+02  0.45594000000E+02  0.51100000000E-03 0.  1.
    9900012    2    1    2    0    0 -0.28757478535E+00  0.11143341404E+01 -0.25999598299E+00  0.90008153508E+02  0.90000420333E+02 0.  0.
         12    1    1    2    0    0  0.28757478535E+00 -0.11143341404E+01  0.25999598299E+00  0.11798464921E+01  0.00000000000E+00 0. -1.
         11    1    3    3    0    0  0.27281407777E+02  0.22339680060E+02 -0.10004879716E+02  0.36652887115E+02  0.51100000000E-03 0. -1.
        -11    1    3    3    0    0  0.19575913075E+01  0.64539367617E+01 -0.68504465931E+01  0.96132243414E+01  0.51100000000E-03 0.  1.
        -12    1    3    3    0    0 -0.29526573870E+02 -0.27679282681E+02  0.16595330326E+02  0.43742042052E+02  0.00000000000E+00 0.  1.
</event>
<event>
 7    1  0.1999542E-015  0.9000771E+02  0.7816164E-02  0.1186339E+00
        -11   -1    0    0    0    0  0.00000000000E+00  0.00000000000E+00  0.45593999997E+02  0.45594000000E+02  0.51100000000E-03 0.  1.
         11   -1    0    0    0    0 -0.00000000000E+00 -0.00000000000E+00 -0.45593999997E+02  0.45594000000E+02  0.51100000000E-03 0. -1.
    9900012    2    1    2    0    0  0.34356375804E+00 -0.58236647185E-01  0.11276762572E+01  0.90007711347E+02  0.89999972337E+02 0.  0.
         12    1    1    2    0    0 -0.34356375804E+00  0.58236647185E-01 -0.11276762572E+01  0.11802886528E+01  0.00000000000E+00 0. -1.
         11    1    3    3    0    0  0.23973110892E+02  0.35222354679E+02  0.12780600467E+01  0.42625787415E+02  0.51100000000E-03 0. -1.
        -11    1    3    3    0    0  0.34836836851E+01 -0.72254862103E+01 -0.21837293039E+01  0.83133854071E+01  0.51100000000E-03 0.  1.
        -12    1    3    3    0    0 -0.27113230819E+02 -0.28055105116E+02  0.20333455144E+01  0.39068538525E+02  0.00000000000E+00 0.  1.
</event>
<event>
 7    1  0.1999542E-015  0.9000769E+02  0.7816164E-02  0.1186339E+00
        -11   -1    0    0    0    0  0.00000000000E+00  0.00000000000E+00  0.45593999997E+02  0.45594000000E+02  0.51100000000E-03 0. -1.
         11   -1    0    0    0    0 -0.00000000000E+00 -0.00000000000E+00 -0.45593999997E+02  0.45594000000E+02  0.51100000000E-03 0.  1.
    9900012    2    1    2    0    0  0.30072653984E+00  0.57959427755E+00 -0.98324117462E+00  0.90007691063E+02  0.89999951785E+02 0.  0.
         12    1    1    2    0    0 -0.30072653984E+00 -0.57959427755E+00  0.98324117462E+00  0.11803089366E+01  0.00000000000E+00 0. -1.
         11    1    3    3    0    0 -0.25726114028E+02 -0.20730440680E+02  0.25944468304E+02  0.42008327146E+02  0.51100000000E-03 0. -1.
        -11    1    3    3    0    0  0.45411637750E+01 -0.40362880677E+01 -0.69383690459E+01  0.92225134901E+01  0.51100000000E-03 0.  1.
        -12    1    3    3    0    0  0.21485676792E+02  0.25346323025E+02 -0.19989340433E+02  0.38776850427E+02  0.00000000000E+00 0.  1.
</event>
<event>
 7    1  0.1999542E-015  0.9000773E+02  0.7816164E-02  0.1186339E+00
        -11   -1    0    0    0    0  0.00000000000E+00  0.00000000000E+00  0.45593999997E+02  0.45594000000E+02  0.51100000000E-03 0. -1.
         11   -1    0    0    0    0 -0.00000000000E+00 -0.00000000000E+00 -0.45593999997E+02  0.45594000000E+02  0.51100000000E-03 0.  1.
    9900012    2    1    2    0    0  0.11649605572E+01  0.18577178366E+00 -0.37476397619E-01  0.90007725144E+02  0.89999986316E+02 0.  0.
         12    1    1    2    0    0 -0.11649605572E+01 -0.18577178366E+00  0.37476397619E-01  0.11802748561E+01  0.00000000000E+00 0. -1.
         11    1    3    3    0    0 -0.29003946547E+02  0.14385064140E+02  0.21646072358E+02  0.38944979579E+02  0.51100000000E-03 0. -1.
        -11    1    3    3    0    0 -0.89277036679E+00  0.70003803058E+01 -0.88662561866E+01  0.11331939921E+02  0.51100000000E-03 0.  1.
        -12    1    3    3    0    0  0.31061677471E+02 -0.21199672662E+02 -0.12817292569E+02  0.39730805644E+02  0.00000000000E+00 0.  1.
</event>
<event>
 7    1  0.1999542E-015  0.9000766E+02  0.7816164E-02  0.1186339E+00
        -11   -1    0    0    0    0  0.00000000000E+00  0.00000000000E+00  0.45593999997E+02  0.45594000000E+02  0.51100000000E-03 0. -1.
         11   -1    0    0    0    0 -0.00000000000E+00 -0.00000000000E+00 -0.45593999997E+02  0.45594000000E+02  0.51100000000E-03 0.  1.
    9900012    2    1    2    0    0  0.74305143713E+00  0.65601990617E+00 -0.64087480315E+00  0.90007657648E+02  0.89999917929E+02 0.  0.
         12    1    1    2    0    0 -0.74305143713E+00 -0.65601990617E+00  0.64087480315E+00  0.11803423524E+01  0.00000000000E+00 0. -1.
         11    1    3    3    0    0 -0.11079587362E+02  0.86457663279E+01  0.36659387668E+02  0.39260886846E+02  0.51100000000E-03 0. -1.
        -11    1    3    3    0    0  0.43144745006E+01  0.76188625433E+01  0.90139983065E+00  0.88019474314E+01  0.51100000000E-03 0.  1.
        -12    1    3    3    0    0  0.75081642990E+01 -0.15608608965E+02 -0.38201662301E+02  0.41944823370E+02  0.00000000000E+00 0.  1.
</event>
<event>
 7    1  0.1999542E-015  0.9000770E+02  0.7816164E-02  0.1186339E+00
        -11   -1    0    0    0    0  0.00000000000E+00  0.00000000000E+00  0.45593999997E+02  0.45594000000E+02  0.51100000000E-03 0.  1.
         11   -1    0    0    0    0 -0.00000000000E+00 -0.00000000000E+00 -0.45593999997E+02  0.45594000000E+02  0.51100000000E-03 0. -1.
    9900012    2    1    2    0    0  0.34713396151E+00  0.81374065862E+00  0.78130226332E+00  0.90007699583E+02  0.89999960418E+02 0.  0.
         12    1    1    2    0    0 -0.34713396151E+00 -0.81374065862E+00 -0.78130226332E+00  0.11803004166E+01  0.00000000000E+00 0. -1.
         11    1    3    3    0    0  0.31306088716E+02 -0.49703830101E+01 -0.22708150048E+02  0.38992768263E+02  0.51100000000E-03 0. -1.
        -11    1    3    3    0    0  0.92534206400E+00 -0.94742526935E+01  0.22651639120E+01  0.97851259494E+01  0.51100000000E-03 0.  1.
        -12    1    3    3    0    0 -0.31884296819E+02  0.15258376362E+02  0.21224288400E+02  0.41229805371E+02  0.00000000000E+00 0.  1.
</event>
<event>
 7    1  0.1999542E-015  0.9000775E+02  0.7816164E-02  0.1186339E+00
        -11   -1    0    0    0    0  0.00000000000E+00  0.00000000000E+00  0.45593999997E+02  0.45594000000E+02  0.51100000000E-03 0. -1.
         11   -1    0    0    0    0 -0.00000000000E+00 -0.00000000000E+00 -0.45593999997E+02  0.45594000000E+02  0.51100000000E-03 0.  1.
    9900012    2    1    2    0    0  0.11781745544E+01  0.58838416084E-01  0.37734586121E-01  0.90007753780E+02  0.90000015330E+02 0.  0.
         12    1    1    2    0    0 -0.11781745544E+01 -0.58838416084E-01 -0.37734586121E-01  0.11802462195E+01  0.00000000000E+00 0. -1.
         11    1    3    3    0    0  0.17399702085E+02 -0.37212911949E+01  0.38954789692E+02  0.42826081785E+02  0.51100000000E-03 0. -1.
        -11    1    3    3    0    0  0.29102583329E+01  0.65249263268E+01 -0.80541544062E+01  0.10766321126E+02  0.51100000000E-03 0.  1.
        -12    1    3    3    0    0 -0.19131785863E+02 -0.27447967158E+01 -0.30862900700E+02  0.36415350869E+02  0.00000000000E+00 0.  1.
</event>
<event>
 7    1  0.1999542E-015  0.9000782E+02  0.7816164E-02  0.1186339E+00
        -11   -1    0    0    0    0  0.00000000000E+00  0.00000000000E+00  0.45593999997E+02  0.45594000000E+02  0.51100000000E-03 0.  1.
         11   -1    0    0    0    0 -0.00000000000E+00 -0.00000000000E+00 -0.45593999997E+02  0.45594000000E+02  0.51100000000E-03 0. -1.
    9900012    2    1    2    0    0 -0.15875132040E-01  0.77938873267E+00  0.88607112194E+00  0.90007821687E+02  0.90000084134E+02 0.  0.
         12    1    1    2    0    0  0.15875132040E-01 -0.77938873267E+00 -0.88607112194E+00  0.11801783126E+01  0.00000000000E+00 0. -1.
         11    1    3    3    0    0 -0.21203853764E+02 -0.29599649097E+02 -0.14015062916E+02  0.39014928296E+02  0.51100000000E-03 0. -1.
        -11    1    3    3    0    0  0.19153269205E+00 -0.30127745499E+01  0.10941361489E+02  0.11350193247E+02  0.51100000000E-03 0.  1.
        -12    1    3    3    0    0  0.20996445939E+02  0.33391812380E+02  0.39597725490E+01  0.39642700144E+02  0.00000000000E+00 0.  1.
</event>
<event>
 7    1  0.1999542E-015  0.9000772E+02  0.7816164E-02  0.1186339E+00
        -11   -1    0    0    0    0  0.00000000000E+00  0.00000000000E+00  0.45593999997E+02  0.45594000000E+02  0.51100000000E-03 0.  1.
         11   -1    0    0    0    0 -0.00000000000E+00 -0.00000000000E+00 -0.45593999997E+02  0.45594000000E+02  0.51100000000E-03 0. -1.
    9900012    2    1    2    0    0 -0.29138823478E+00 -0.11398817263E+01 -0.93911803086E-01  0.90007721694E+02  0.89999982820E+02 0.  0.
         12    1    1    2    0    0  0.29138823478E+00  0.11398817263E+01  0.93911803086E-01  0.11802783062E+01  0.00000000000E+00 0. -1.
         11    1    3    3    0    0 -0.30537196874E+01 -0.13843605116E+02 -0.14162375862E+02  0.20038550268E+02  0.51100000000E-03 0. -1.
        -11    1    3    3    0    0 -0.20174138331E+02  0.28396016936E+02 -0.64492766227E+01  0.35424889619E+02  0.51100000000E-03 0.  1.
         12    1    3    3    0    0  0.22936469784E+02 -0.15692293547E+02  0.20517740681E+02  0.34544281807E+02  0.00000000000E+00 0. -1.
</event>
<event>
 7    1  0.1999542E-015  0.9000839E+02  0.7816164E-02  0.1186338E+00
        -11   -1    0    0    0    0  0.00000000000E+00  0.00000000000E+00  0.45593999997E+02  0.45594000000E+02  0.51100000000E-03 0.  1.
         11   -1    0    0    0    0 -0.00000000000E+00 -0.00000000000E+00 -0.45593999997E+02  0.45594000000E+02  0.51100000000E-03 0. -1.
    9900012    2    1    2    0    0  0.64177574774E-01  0.10466011828E+00  0.11731998897E+01  0.90008393929E+02  0.90000663926E+02 0.  0.
         12    1    1    2    0    0 -0.64177574774E-01 -0.10466011828E+00 -0.11731998897E+01  0.11796060709E+01  0.00000000000E+00 0. -1.
         11    1    3    3    0    0  0.52870461848E+01  0.31120125213E+02 -0.14329477820E+02  0.34666251391E+02  0.51100000000E-03 0. -1.
        -11    1    3    3    0    0 -0.65722449513E+01 -0.18390401889E+02 -0.13459973412E+02  0.23718603877E+02  0.51100000000E-03 0.  1.
        -12    1    3    3    0    0  0.13493763413E+01 -0.12625063205E+02  0.28962651122E+02  0.31623538661E+02  0.00000000000E+00 0.  1.
</event>
<event>
 7    1  0.1999542E-015  0.9000778E+02  0.7816164E-02  0.1186339E+00
        -11   -1    0    0    0    0  0.00000000000E+00  0.00000000000E+00  0.45593999997E+02  0.45594000000E+02  0.51100000000E-03 0. -1.
         11   -1    0    0    0    0 -0.00000000000E+00 -0.00000000000E+00 -0.45593999997E+02  0.45594000000E+02  0.51100000000E-03 0.  1.
    9900012    2    1    2    0    0  0.25502025998E+00  0.69464281821E+00 -0.91943494843E+00  0.90007777732E+02  0.90000039598E+02 0.  0.
         12    1    1    2    0    0 -0.25502025998E+00 -0.69464281821E+00  0.91943494843E+00  0.11802222682E+01  0.00000000000E+00 0. -1.
         11    1    3    3    0    0  0.74802481315E+01 -0.18246738913E+01  0.22188277167E+00  0.77027773656E+01  0.51100000000E-03 0. -1.
        -11    1    3    3    0    0  0.30396256756E+02  0.11890846891E+02 -0.20932217509E+02  0.38774764921E+02  0.51100000000E-03 0.  1.
         12    1    3    3    0    0 -0.37621484627E+02 -0.93715301810E+01  0.19790899789E+02  0.43530235446E+02  0.00000000000E+00 0. -1.
</event>
<event>
 7    1  0.1999542E-015  0.9000774E+02  0.7816164E-02  0.1186339E+00
        -11   -1    0    0    0    0  0.00000000000E+00  0.00000000000E+00  0.45593999997E+02  0.45594000000E+02  0.51100000000E-03 0.  1.
         11   -1    0    0    0    0 -0.00000000000E+00 -0.00000000000E+00 -0.45593999997E+02  0.45594000000E+02  0.51100000000E-03 0. -1.
    9900012    2    1    2    0    0  0.83343947321E+00  0.25527718584E+00  0.79575593553E+00  0.90007739306E+02  0.90000000665E+02 0.  0.
         12    1    1    2    0    0 -0.83343947321E+00 -0.25527718584E+00 -0.79575593553E+00  0.11802606941E+01  0.00000000000E+00 0. -1.
         11    1    3    3    0    0  0.31991750717E+01 -0.40689178539E+02  0.11133841936E+02  0.42306103671E+02  0.51100000000E-03 0. -1.
        -11    1    3    3    0    0  0.64797286631E+01  0.67735188220E+01  0.31886640044E+01  0.99012635139E+01  0.51100000000E-03 0.  1.
        -12    1    3    3    0    0 -0.88454642616E+01  0.34170936903E+02 -0.13526750005E+02  0.37800372121E+02  0.00000000000E+00 0.  1.
</event>
<event>
 7    1  0.1999542E-015  0.9000771E+02  0.7816164E-02  0.1186339E+00
        -11   -1    0    0    0    0  0.00000000000E+00  0.00000000000E+00  0.45593999997E+02  0.45594000000E+02  0.51100000000E-03 0. -1.
         11   -1    0    0    0    0 -0.00000000000E+00 -0.00000000000E+00 -0.45593999997E+02  0.45594000000E+02  0.51100000000E-03 0.  1.
    9900012    2    1    2    0    0  0.79265639763E+00  0.77626288954E+00 -0.40272737497E+00  0.90007712926E+02  0.89999973937E+02 0.  0.
         12    1    1    2    0    0 -0.79265639763E+00 -0.77626288954E+00  0.40272737497E+00  0.11802870739E+01  0.00000000000E+00 0. -1.
         11    1    3    3    0    0  0.30674169798E+01 -0.69892989124E+01  0.58237587075E+01  0.96008078805E+01  0.51100000000E-03 0. -1.
        -11    1    3    3    0    0 -0.36641145253E+02 -0.14216712661E+02 -0.14062920316E+01  0.39327676029E+02  0.51100000000E-03 0.  1.
         12    1    3    3    0    0  0.34366384671E+02  0.21982274463E+02 -0.48201940508E+01  0.41079229016E+02  0.00000000000E+00 0. -1.
</event>
<event>
 7    1  0.1999542E-015  0.9000776E+02  0.7816164E-02  0.1186339E+00
        -11   -1    0    0    0    0  0.00000000000E+00  0.00000000000E+00  0.45593999997E+02  0.45594000000E+02  0.51100000000E-03 0. -1.
         11   -1    0    0    0    0 -0.00000000000E+00 -0.00000000000E+00 -0.45593999997E+02  0.45594000000E+02  0.51100000000E-03 0.  1.
    9900012    2    1    2    0    0  0.60384024850E+00  0.87319664107E+00 -0.51562080759E+00  0.90007762635E+02  0.90000024302E+02 0.  0.
         12    1    1    2    0    0 -0.60384024850E+00 -0.87319664107E+00  0.51562080759E+00  0.11802373646E+01  0.00000000000E+00 0. -1.
         11    1    3    3    0    0 -0.73089849220E+01  0.30490441972E+01 -0.46818014406E+01  0.91998476127E+01  0.51100000000E-03 0. -1.
        -11    1    3    3    0    0 -0.30401708377E+00  0.59545120453E+01 -0.37293425346E+02  0.37767025490E+02  0.51100000000E-03 0.  1.
         12    1    3    3    0    0  0.82168422543E+01 -0.81303596014E+01  0.41459605979E+02  0.43040889533E+02  0.00000000000E+00 0. -1.
</event>
<event>
 7    1  0.1999542E-015  0.9000775E+02  0.7816164E-02  0.1186339E+00
        -11   -1    0    0    0    0  0.00000000000E+00  0.00000000000E+00  0.45593999997E+02  0.45594000000E+02  0.51100000000E-03 0. -1.
         11   -1    0    0    0    0 -0.00000000000E+00 -0.00000000000E+00 -0.45593999997E+02  0.45594000000E+02  0.51100000000E-03 0.  1.
    9900012    2    1    2    0    0  0.34955117600E+00  0.23908282004E+00 -0.11016542706E+01  0.90007750555E+02  0.90000012063E+02 0.  0.
         12    1    1    2    0    0 -0.34955117600E+00 -0.23908282004E+00  0.11016542706E+01  0.11802494446E+01  0.00000000000E+00 0. -1.
         11    1    3    3    0    0  0.33362729967E+02 -0.18217572933E+02  0.16218986351E+02  0.41328044146E+02  0.51100000000E-03 0. -1.
        -11    1    3    3    0    0 -0.12083419295E+02 -0.57974833061E+01 -0.62151571721E+01  0.14773219469E+02  0.51100000000E-03 0.  1.
        -12    1    3    3    0    0 -0.20929759496E+02  0.24254139059E+02 -0.11105483449E+02  0.33906486941E+02  0.00000000000E+00 0.  1.
</event>
<event>
 7    1  0.1999542E-015  0.9000780E+02  0.7816164E-02  0.1186339E+00
        -11   -1    0    0    0    0  0.00000000000E+00  0.00000000000E+00  0.45593999997E+02  0.45594000000E+02  0.51100000000E-03 0.  1.
         11   -1    0    0    0    0 -0.00000000000E+00 -0.00000000000E+00 -0.45593999997E+02  0.45594000000E+02  0.51100000000E-03 0. -1.
    9900012    2    1    2    0    0  0.77735064476E+00 -0.22821332555E+00  0.85820925258E+00  0.90007797277E+02  0.90000059401E+02 0.  0.
         12    1    1    2    0    0 -0.77735064476E+00  0.22821332555E+00 -0.85820925258E+00  0.11802027233E+01  0.00000000000E+00 0. -1.
         11    1    3    3    0    0 -0.90260237021E+01  0.54776371831E-01  0.24406889128E+01  0.93503511673E+01  0.51100000000E-03 0. -1.
        -11    1    3    3    0    0 -0.13311827107E+02  0.30461378520E+02  0.17665873397E+02  0.37645496482E+02  0.51100000000E-03 0.  1.
         12    1    3    3    0    0  0.23115201454E+02 -0.30744368217E+02 -0.19248353057E+02  0.43011949627E+02  0.00000000000E+00 0. -1.
</event>
<event>
 7    1  0.1999542E-015  0.9000776E+02  0.7816164E-02  0.1186339E+00
        -11   -1    0    0    0    0  0.00000000000E+00  0.00000000000E+00  0.45593999997E+02  0.45594000000E+02  0.51100000000E-03 0.  1.
         11   -1    0    0    0    0 -0.00000000000E+00 -0.00000000000E+00 -0.45593999997E+02  0.45594000000E+02  0.51100000000E-03 0. -1.
    9900012    2    1    2    0    0  0.14234854517E+00  0.33328432308E+00  0.11232181780E+01  0.90007762471E+02  0.90000024136E+02 0.  0.
         12    1    1    2    0    0 -0.14234854517E+00 -0.33328432308E+00 -0.11232181780E+01  0.11802375286E+01  0.00000000000E+00 0. -1.
         11    1    3    3    0    0 -0.52870098945E+01  0.38544899146E+02 -0.72754296670E+01  0.39580217293E+02  0.51100000000E-03 0. -1.
        -11    1    3    3    0    0 -0.59200496529E+01  0.20789651538E+01  0.57083815179E+01  0.84826118512E+01  0.51100000000E-03 0.  1.
        -12    1    3    3    0    0  0.11349408093E+02 -0.40290579977E+02  0.26902663271E+01  0.41944933328E+02  0.00000000000E+00 0.  1.
</event>
<event>
 7    1  0.1999542E-015  0.9000699E+02  0.7816164E-02  0.1186341E+00
        -11   -1    0    0    0    0  0.00000000000E+00  0.00000000000E+00  0.45593999997E+02  0.45594000000E+02  0.51100000000E-03 0.  1.
         11   -1    0    0    0    0 -0.00000000000E+00 -0.00000000000E+00 -0.45593999997E+02  0.45594000000E+02  0.51100000000E-03 0. -1.
    9900012    2    1    2    0    0  0.48928291702E+00 -0.10570988083E+01  0.19475638229E+00  0.90006989538E+02  0.89999240996E+02 0.  0.
         12    1    1    2    0    0 -0.48928291702E+00  0.10570988083E+01 -0.19475638229E+00  0.11810104622E+01  0.00000000000E+00 0. -1.
         11    1    3    3    0    0  0.33114758392E+02 -0.20057114162E+02  0.95706710665E-01  0.38715426020E+02  0.51100000000E-03 0. -1.
        -11    1    3    3    0    0  0.56073510010E+01  0.20820478348E+01 -0.66470925582E+01  0.89420997631E+01  0.51100000000E-03 0.  1.
        -12    1    3    3    0    0 -0.38232826476E+02  0.16917967518E+02  0.67461422299E+01  0.42349463755E+02  0.00000000000E+00 0.  1.
</event>
<event>
 7    1  0.1999542E-015  0.9000765E+02  0.7816164E-02  0.1186339E+00
        -11   -1    0    0    0    0  0.00000000000E+00  0.00000000000E+00  0.45593999997E+02  0.45594000000E+02  0.51100000000E-03 0.  1.
         11   -1    0    0    0    0 -0.00000000000E+00 -0.00000000000E+00 -0.45593999997E+02  0.45594000000E+02  0.51100000000E-03 0. -1.
    9900012    2    1    2    0    0  0.60675172463E+00  0.77405605500E+00  0.65261687522E+00  0.90007652925E+02  0.89999913144E+02 0.  0.
         12    1    1    2    0    0 -0.60675172463E+00 -0.77405605500E+00 -0.65261687522E+00  0.11803470750E+01  0.00000000000E+00 0. -1.
         11    1    3    3    0    0 -0.38645401781E+02  0.12084131113E+02  0.61870732998E+01  0.40960629632E+02  0.51100000000E-03 0. -1.
        -11    1    3    3    0    0  0.60707665955E+01  0.69266303494E+01  0.39386757616E+01  0.10017264201E+02  0.51100000000E-03 0.  1.
        -12    1    3    3    0    0  0.33181386910E+02 -0.18236705407E+02 -0.94731321862E+01  0.39029759092E+02  0.00000000000E+00 0.  1.
</event>
<event>
 7    1  0.1999542E-015  0.9000776E+02  0.7816164E-02  0.1186339E+00
        -11   -1    0    0    0    0  0.00000000000E+00  0.00000000000E+00  0.45593999997E+02  0.45594000000E+02  0.51100000000E-03 0.  1.
         11   -1    0    0    0    0 -0.00000000000E+00 -0.00000000000E+00 -0.45593999997E+02  0.45594000000E+02  0.51100000000E-03 0. -1.
    9900012    2    1    2    0    0 -0.97528758521E-01  0.10178224684E+01  0.58949127243E+00  0.90007756637E+02  0.90000018224E+02 0.  0.
         12    1    1    2    0    0  0.97528758521E-01 -0.10178224684E+01 -0.58949127243E+00  0.11802433631E+01  0.00000000000E+00 0. -1.
         11    1    3    3    0    0 -0.13187413131E+00  0.81190149556E+01 -0.17105067564E+01  0.82982906831E+01  0.51100000000E-03 0. -1.
        -11    1    3    3    0    0 -0.14951462738E+02  0.90269984424E+01  0.36828182670E+02  0.40759636626E+02  0.51100000000E-03 0.  1.
         12    1    3    3    0    0  0.14985808110E+02 -0.16128190930E+02 -0.34528184641E+02  0.40949829328E+02  0.00000000000E+00 0. -1.
</event>
<event>
 7    1  0.1999542E-015  0.9000767E+02  0.7816164E-02  0.1186339E+00
        -11   -1    0    0    0    0  0.00000000000E+00  0.00000000000E+00  0.45593999997E+02  0.45594000000E+02  0.51100000000E-03 0.  1.
         11   -1    0    0    0    0 -0.00000000000E+00 -0.00000000000E+00 -0.45593999997E+02  0.45594000000E+02  0.51100000000E-03 0. -1.
    9900012    2    1    2    0    0 -0.15686979919E+00 -0.25623724121E+00  0.11414503631E+01  0.90007671830E+02  0.89999932298E+02 0.  0.
         12    1    1    2    0    0  0.15686979919E+00  0.25623724121E+00 -0.11414503631E+01  0.11803281701E+01  0.00000000000E+00 0. -1.
         11    1    3    3    0    0  0.36063630167E+02 -0.99425179197E+01 -0.16204865131E+01  0.37444159227E+02  0.51100000000E-03 0. -1.
        -11    1    3    3    0    0  0.38196274325E+01 -0.68297022968E+01  0.48398429044E+01  0.92010035749E+01  0.51100000000E-03 0.  1.
        -12    1    3    3    0    0 -0.40040127399E+02  0.16515982975E+02 -0.20779060282E+01  0.43362509028E+02  0.00000000000E+00 0.  1.
</event>
<event>
 7    1  0.1999542E-015  0.9000763E+02  0.7816164E-02  0.1186339E+00
        -11   -1    0    0    0    0  0.00000000000E+00  0.00000000000E+00  0.45593999997E+02  0.45594000000E+02  0.51100000000E-03 0. -1.
         11   -1    0    0    0    0 -0.00000000000E+00 -0.00000000000E+00 -0.45593999997E+02  0.45594000000E+02  0.51100000000E-03 0.  1.
    9900012    2    1    2    0    0  0.83603378826E+00 -0.24465942168E+00 -0.79653665733E+00  0.90007626595E+02  0.89999886466E+02 0.  0.
         12    1    1    2    0    0 -0.83603378826E+00  0.24465942168E+00  0.79653665733E+00  0.11803734046E+01  0.00000000000E+00 0. -1.
         11    1    3    3    0    0 -0.32731522468E+02 -0.21273591094E+02  0.41272739074E+00  0.39039577165E+02  0.51100000000E-03 0. -1.
        -11    1    3    3    0    0  0.23597364491E+01 -0.79227402110E+01  0.10827772958E+01  0.83373002521E+01  0.51100000000E-03 0.  1.
        -12    1    3    3    0    0  0.31207819807E+02  0.28951671884E+02 -0.22920413439E+01  0.42630749178E+02  0.00000000000E+00 0.  1.
</event>
<event>
 7    1  0.1999542E-015  0.9000773E+02  0.7816164E-02  0.1186339E+00
        -11   -1    0    0    0    0  0.00000000000E+00  0.00000000000E+00  0.45593999997E+02  0.45594000000E+02  0.51100000000E-03 0.  1.
         11   -1    0    0    0    0 -0.00000000000E+00 -0.00000000000E+00 -0.45593999997E+02  0.45594000000E+02  0.51100000000E-03 0. -1.
    9900012    2    1    2    0    0 -0.99219844808E+00  0.63890519174E+00 -0.19209077584E-01  0.90007734524E+02  0.89999995820E+02 0.  0.
         12    1    1    2    0    0  0.99219844808E+00 -0.63890519174E+00  0.19209077584E-01  0.11802654757E+01  0.00000000000E+00 0. -1.
         11    1    3    3    0    0  0.69226279269E+01 -0.30909190986E+02 -0.23263370564E+02  0.39299939887E+02  0.51100000000E-03 0. -1.
        -11    1    3    3    0    0 -0.10361209139E+02  0.95632317776E+00 -0.24415204196E+01  0.10687854372E+02  0.51100000000E-03 0.  1.
        -12    1    3    3    0    0  0.24463827644E+01  0.30591773000E+02  0.25685681906E+02  0.40019940266E+02  0.00000000000E+00 0.  1.
</event>
<event>
 7    1  0.1999542E-015  0.9000770E+02  0.7816164E-02  0.1186339E+00
        -11   -1    0    0    0    0  0.00000000000E+00  0.00000000000E+00  0.45593999997E+02  0.45594000000E+02  0.51100000000E-03 0. -1.
         11   -1    0    0    0    0 -0.00000000000E+00 -0.00000000000E+00 -0.45593999997E+02  0.45594000000E+02  0.51100000000E-03 0.  1.
    9900012    2    1    2    0    0  0.34476618406E+00 -0.88840110525E-01 -0.11253261577E+01  0.90007696968E+02  0.89999957768E+02 0.  0.
         12    1    1    2    0    0 -0.34476618406E+00  0.88840110525E-01  0.11253261577E+01  0.11803030323E+01  0.00000000000E+00 0. -1.
         11    1    3    3    0    0 -0.16564456395E+02  0.76612183435E+00  0.31146250512E+02  0.35285366366E+02  0.51100000000E-03 0. -1.
        -11    1    3    3    0    0 -0.95989879028E+01  0.47330903644E+00  0.34575503123E+01  0.10213679289E+02  0.51100000000E-03 0.  1.
        -12    1    3    3    0    0  0.26508210482E+02 -0.13282709813E+01 -0.35729126982E+02  0.44508651313E+02  0.00000000000E+00 0.  1.
</event>
<event>
 7    1  0.1999542E-015  0.9000774E+02  0.7816164E-02  0.1186339E+00
        -11   -1    0    0    0    0  0.00000000000E+00  0.00000000000E+00  0.45593999997E+02  0.45594000000E+02  0.51100000000E-03 0. -1.
         11   -1    0    0    0    0 -0.00000000000E+00 -0.00000000000E+00 -0.45593999997E+02  0.45594000000E+02  0.51100000000E-03 0.  1.
    9900012    2    1    2    0    0 -0.14034252747E+00 -0.11198578798E+01 -0.34528861714E+00  0.90007744975E+02  0.90000006408E+02 0.  0.
         12    1    1    2    0    0  0.14034252747E+00  0.11198578798E+01  0.34528861714E+00  0.11802550255E+01  0.00000000000E+00 0. -1.
         11    1    3    3    0    0  0.16047363569E+02 -0.10354875170E+02  0.32834157031E+02  0.37984512443E+02  0.51100000000E-03 0. -1.
        -11    1    3    3    0    0  0.11820796330E+01  0.70351662759E+01  0.58634697126E+01  0.92342381451E+01  0.51100000000E-03 0.  1.
        -12    1    3    3    0    0 -0.17369785729E+02  0.21998510147E+01 -0.39042915361E+02  0.42788994387E+02  0.00000000000E+00 0.  1.
</event>
<event>
 7    1  0.1999542E-015  0.9000779E+02  0.7816164E-02  0.1186339E+00
        -11   -1    0    0    0    0  0.00000000000E+00  0.00000000000E+00  0.45593999997E+02  0.45594000000E+02  0.51100000000E-03 0. -1.
         11   -1    0    0    0    0 -0.00000000000E+00 -0.00000000000E+00 -0.45593999997E+02  0.45594000000E+02  0.51100000000E-03 0.  1.
    9900012    2    1    2    0    0 -0.81423299285E-01  0.11649300910E+01 -0.17091475453E+00  0.90007786577E+02  0.90000048560E+02 0.  0.
         12    1    1    2    0    0  0.81423299285E-01 -0.11649300910E+01  0.17091475453E+00  0.11802134230E+01  0.00000000000E+00 0. -1.
         11    1    3    3    0    0  0.34079140849E+01 -0.13925178098E+01 -0.81121807152E+01  0.89084488255E+01  0.51100000000E-03 0. -1.
        -11    1    3    3    0    0  0.12460877306E+02  0.36812996525E+02 -0.86737239772E+01  0.39820894820E+02  0.51100000000E-03 0.  1.
         12    1    3    3    0    0 -0.15950214691E+02 -0.34255548624E+02  0.16614989938E+02  0.41278442931E+02  0.00000000000E+00 0. -1.
</event>
<event>
 7    1  0.1999542E-015  0.9000765E+02  0.7816164E-02  0.1186339E+00
        -11   -1    0    0    0    0  0.00000000000E+00  0.00000000000E+00  0.45593999997E+02  0.45594000000E+02  0.51100000000E-03 0.  1.
         11   -1    0    0    0    0 -0.00000000000E+00 -0.00000000000E+00 -0.45593999997E+02  0.45594000000E+02  0.51100000000E-03 0. -1.
    9900012    2    1    2    0    0  0.11391589948E+01 -0.11236032962E+00  0.28793475541E+00  0.90007654931E+02  0.89999915176E+02 0.  0.
         12    1    1    2    0    0 -0.11391589948E+01  0.11236032962E+00 -0.28793475541E+00  0.11803450692E+01  0.00000000000E+00 0. -1.
         11    1    3    3    0    0  0.31708264205E+01  0.24373027272E+00 -0.84430413398E+01  0.90221112807E+01  0.51100000000E-03 0. -1.
        -11    1    3    3    0    0 -0.73649042860E+01 -0.39005665123E+02  0.12922207483E+02  0.41745265280E+02  0.51100000000E-03 0.  1.
         12    1    3    3    0    0  0.53332368603E+01  0.38649574520E+02 -0.41912313875E+01  0.39240278370E+02  0.00000000000E+00 0. -1.
</event>
<event>
 7    1  0.1999542E-015  0.9000772E+02  0.7816164E-02  0.1186339E+00
        -11   -1    0    0    0    0  0.00000000000E+00  0.00000000000E+00  0.45593999997E+02  0.45594000000E+02  0.51100000000E-03 0. -1.
         11   -1    0    0    0    0 -0.00000000000E+00 -0.00000000000E+00 -0.45593999997E+02  0.45594000000E+02  0.51100000000E-03 0.  1.
    9900012    2    1    2    0    0  0.72997153548E+00  0.81239426990E+00  0.44746306304E+00  0.90007717794E+02  0.89999978869E+02 0.  0.
         12    1    1    2    0    0 -0.72997153548E+00 -0.81239426990E+00 -0.44746306304E+00  0.11802822057E+01  0.00000000000E+00 0. -1.
         11    1    3    3    0    0 -0.30934354210E+02 -0.80420388472E+01  0.17503588194E+02  0.36441518343E+02  0.51100000000E-03 0. -1.
        -11    1    3    3    0    0 -0.90434904024E+01  0.32901075074E+01 -0.21596972853E+01  0.98627490434E+01  0.51100000000E-03 0.  1.
        -12    1    3    3    0    0  0.40707816148E+02  0.55643256097E+01 -0.14896427846E+02  0.43703450408E+02  0.00000000000E+00 0.  1.
</event>
<event>
 7    1  0.1999542E-015  0.9000788E+02  0.7816164E-02  0.1186339E+00
        -11   -1    0    0    0    0  0.00000000000E+00  0.00000000000E+00  0.45593999997E+02  0.45594000000E+02  0.51100000000E-03 0.  1.
         11   -1    0    0    0    0 -0.00000000000E+00 -0.00000000000E+00 -0.45593999997E+02  0.45594000000E+02  0.51100000000E-03 0. -1.
    9900012    2    1    2    0    0 -0.51512060664E-01  0.13817072647E-01  0.11789168886E+01  0.90007877365E+02  0.90000140546E+02 0.  0.
         12    1    1    2    0    0  0.51512060664E-01 -0.13817072647E-01 -0.11789168886E+01  0.11801226352E+01  0.00000000000E+00 0. -1.
         11    1    3    3    0    0 -0.34982424112E+00  0.12026209165E+02  0.16976700287E+01  0.12150480141E+02  0.51100000000E-03 0. -1.
        -11    1    3    3    0    0 -0.26543332162E+02  0.11674369180E+02  0.21258760334E+02  0.35955170270E+02  0.51100000000E-03 0.  1.
         12    1    3    3    0    0  0.26841644342E+02 -0.23686761272E+02 -0.21777513474E+02  0.41902226953E+02  0.00000000000E+00 0. -1.
</event>
<event>
 7    1  0.1999542E-015  0.9000773E+02  0.7816164E-02  0.1186339E+00
        -11   -1    0    0    0    0  0.00000000000E+00  0.00000000000E+00  0.45593999997E+02  0.45594000000E+02  0.51100000000E-03 0. -1.
         11   -1    0    0    0    0 -0.00000000000E+00 -0.00000000000E+00 -0.45593999997E+02  0.45594000000E+02  0.51100000000E-03 0.  1.
    9900012    2    1    2    0    0  0.99799212525E+00  0.76654180934E-01  0.62544308010E+00  0.90007727492E+02  0.89999988695E+02 0.  0.
         12    1    1    2    0    0 -0.99799212525E+00 -0.76654180934E-01 -0.62544308010E+00  0.11802725075E+01  0.00000000000E+00 0. -1.
         11    1    3    3    0    0 -0.40592160461E+01 -0.32449838770E+02  0.19251618029E+02  0.37948571358E+02  0.51100000000E-03 0. -1.
        -11    1    3    3    0    0 -0.66631820105E+01  0.15004379569E+01  0.72741893232E+01  0.99781330488E+01  0.51100000000E-03 0.  1.
        -12    1    3    3    0    0  0.11720390182E+02  0.31026054994E+02 -0.25900364272E+02  0.42081023086E+02  0.00000000000E+00 0.  1.
</event>
<event>
 7    1  0.1999542E-015  0.9000774E+02  0.7816164E-02  0.1186339E+00
        -11   -1    0    0    0    0  0.00000000000E+00  0.00000000000E+00  0.45593999997E+02  0.45594000000E+02  0.51100000000E-03 0.  1.
         11   -1    0    0    0    0 -0.00000000000E+00 -0.00000000000E+00 -0.45593999997E+02  0.45594000000E+02  0.51100000000E-03 0. -1.
    9900012    2    1    2    0    0  0.25293191081E+00  0.64483984239E+00  0.95562391887E+00  0.90007741533E+02  0.90000002922E+02 0.  0.
         12    1    1    2    0    0 -0.25293191081E+00 -0.64483984239E+00 -0.95562391887E+00  0.11802584667E+01  0.00000000000E+00 0. -1.
         11    1    3    3    0    0  0.24166892081E+01 -0.27258146415E+01  0.94277813170E+01  0.10107102107E+02  0.51100000000E-03 0. -1.
        -11    1    3    3    0    0 -0.36771347629E+02  0.19033044803E+02 -0.28902275579E+01  0.41505929896E+02  0.51100000000E-03 0.  1.
         12    1    3    3    0    0  0.34607590332E+02 -0.15662390319E+02 -0.55819298402E+01  0.38394709529E+02  0.00000000000E+00 0. -1.
</event>
<event>
 7    1  0.1999542E-015  0.9000813E+02  0.7816164E-02  0.1186338E+00
        -11   -1    0    0    0    0  0.00000000000E+00  0.00000000000E+00  0.45593999997E+02  0.45594000000E+02  0.51100000000E-03 0.  1.
         11   -1    0    0    0    0 -0.00000000000E+00 -0.00000000000E+00 -0.45593999997E+02  0.45594000000E+02  0.51100000000E-03 0. -1.
    9900012    2    1    2    0    0  0.53843078596E+00  0.10438631287E+01  0.11199062760E+00  0.90008127192E+02  0.90000393670E+02 0.  0.
         12    1    1    2    0    0 -0.53843078596E+00 -0.10438631287E+01 -0.11199062760E+00  0.11798728082E+01  0.00000000000E+00 0. -1.
         11    1    3    3    0    0  0.10155820765E+02  0.75610196704E+01  0.21819993216E+01  0.12847989538E+02  0.51100000000E-03 0. -1.
        -11    1    3    3    0    0 -0.36371861734E+01  0.34486423454E+02  0.52756668837E+01  0.35076704338E+02  0.51100000000E-03 0.  1.
         12    1    3    3    0    0 -0.59802038054E+01 -0.41003579995E+02 -0.73456755777E+01  0.42083433316E+02  0.00000000000E+00 0. -1.
</event>
<event>
 7    1  0.1999542E-015  0.9000770E+02  0.7816164E-02  0.1186339E+00
        -11   -1    0    0    0    0  0.00000000000E+00  0.00000000000E+00  0.45593999997E+02  0.45594000000E+02  0.51100000000E-03 0. -1.
         11   -1    0    0    0    0 -0.00000000000E+00 -0.00000000000E+00 -0.45593999997E+02  0.45594000000E+02  0.51100000000E-03 0.  1.
    9900012    2    1    2    0    0 -0.79888048961E+00  0.56455996484E+00 -0.66043416664E+00  0.90007698649E+02  0.89999959471E+02 0.  0.
         12    1    1    2    0    0  0.79888048961E+00 -0.56455996484E+00  0.66043416664E+00  0.11803013509E+01  0.00000000000E+00 0. -1.
         11    1    3    3    0    0  0.33746521196E+01  0.62073576288E+01  0.38068989636E+02  0.38719084930E+02  0.51100000000E-03 0. -1.
        -11    1    3    3    0    0 -0.40677685542E-01  0.85156950466E+01  0.13127534026E+01  0.86163819877E+01  0.51100000000E-03 0.  1.
        -12    1    3    3    0    0 -0.41328549237E+01 -0.14158492710E+02 -0.40042177205E+02  0.42672231732E+02  0.00000000000E+00 0.  1.
</event>
<event>
 7    1  0.1999542E-015  0.9000773E+02  0.7816164E-02  0.1186339E+00
        -11   -1    0    0    0    0  0.00000000000E+00  0.00000000000E+00  0.45593999997E+02  0.45594000000E+02  0.51100000000E-03 0.  1.
         11   -1    0    0    0    0 -0.00000000000E+00 -0.00000000000E+00 -0.45593999997E+02  0.45594000000E+02  0.51100000000E-03 0. -1.
    9900012    2    1    2    0    0  0.11032662378E+01  0.30672333620E+00 -0.28592693872E+00  0.90007733161E+02  0.89999994439E+02 0.  0.
         12    1    1    2    0    0 -0.11032662378E+01 -0.30672333620E+00  0.28592693872E+00  0.11802668388E+01  0.00000000000E+00 0. -1.
         11    1    3    3    0    0 -0.28941181209E+01 -0.23133225119E+02 -0.30643590479E+02  0.38503917486E+02  0.51100000000E-03 0. -1.
        -11    1    3    3    0    0  0.36398824488E+01 -0.15430094183E+01 -0.61222415572E+01  0.72877612648E+01  0.51100000000E-03 0.  1.
        -12    1    3    3    0    0  0.35750190988E+00  0.24982957873E+02  0.36479905097E+02  0.44216054410E+02  0.00000000000E+00 0.  1.
</event>
<event>
 7    1  0.1999542E-015  0.9000774E+02  0.7816164E-02  0.1186339E+00
        -11   -1    0    0    0    0  0.00000000000E+00  0.00000000000E+00  0.45593999997E+02  0.45594000000E+02  0.51100000000E-03 0.  1.
         11   -1    0    0    0    0 -0.00000000000E+00 -0.00000000000E+00 -0.45593999997E+02  0.45594000000E+02  0.51100000000E-03 0. -1.
    9900012    2    1    2    0    0 -0.11340643128E+01  0.32645348170E+00  0.18270951833E-01  0.90007742584E+02  0.90000003986E+02 0.  0.
         12    1    1    2    0    0  0.11340643128E+01 -0.32645348170E+00 -0.18270951833E-01  0.11802574164E+01  0.00000000000E+00 0. -1.
         11    1    3    3    0    0 -0.99396485871E+00 -0.33031028238E+01  0.50607862987E+01  0.61245418300E+01  0.51100000000E-03 0. -1.
        -11    1    3    3    0    0  0.47395437858E+01  0.13171515945E+02  0.37491602584E+02  0.40019649825E+02  0.51100000000E-03 0.  1.
         12    1    3    3    0    0 -0.48796432399E+01 -0.95419596398E+01 -0.42534117930E+02  0.43863550928E+02  0.00000000000E+00 0. -1.
</event>
<event>
 7    1  0.1999542E-015  0.9000780E+02  0.7816164E-02  0.1186339E+00
        -11   -1    0    0    0    0  0.00000000000E+00  0.00000000000E+00  0.45593999997E+02  0.45594000000E+02  0.51100000000E-03 0.  1.
         11   -1    0    0    0    0 -0.00000000000E+00 -0.00000000000E+00 -0.45593999997E+02  0.45594000000E+02  0.51100000000E-03 0. -1.
    9900012    2    1    2    0    0 -0.42365185219E+00  0.72386165473E+00  0.83031088408E+00  0.90007799699E+02  0.90000061855E+02 0.  0.
         12    1    1    2    0    0  0.42365185219E+00 -0.72386165473E+00 -0.83031088408E+00  0.11802003013E+01  0.00000000000E+00 0. -1.
         11    1    3    3    0    0 -0.79838952177E+01 -0.49960051602E+01  0.78924579009E+01  0.12287942968E+02  0.51100000000E-03 0. -1.
        -11    1    3    3    0    0  0.35725910441E+02  0.11849822948E+02  0.15906448242E+02  0.40862869168E+02  0.51100000000E-03 0.  1.
         12    1    3    3    0    0 -0.28165667075E+02 -0.61299561334E+01 -0.22968595259E+02  0.36856987562E+02  0.00000000000E+00 0. -1.
</event>
<event>
 7    1  0.1999542E-015  0.9000779E+02  0.7816164E-02  0.1186339E+00
        -11   -1    0    0    0    0  0.00000000000E+00  0.00000000000E+00  0.45593999997E+02  0.45594000000E+02  0.51100000000E-03 0.  1.
         11   -1    0    0    0    0 -0.00000000000E+00 -0.00000000000E+00 -0.45593999997E+02  0.45594000000E+02  0.51100000000E-03 0. -1.
    9900012    2    1    2    0    0 -0.25208965677E+00  0.42964365864E+00  0.10699270853E+01  0.90007793731E+02  0.90000055809E+02 0.  0.
         12    1    1    2    0    0  0.25208965677E+00 -0.42964365864E+00 -0.10699270853E+01  0.11802062686E+01  0.00000000000E+00 0. -1.
         11    1    3    3    0    0  0.25009400178E+00 -0.32930158228E+01  0.88464268684E+01  0.94427627746E+01  0.51100000000E-03 0. -1.
        -11    1    3    3    0    0  0.10881605706E+02  0.29726372955E+02  0.22672019225E+02  0.38936962488E+02  0.51100000000E-03 0.  1.
         12    1    3    3    0    0 -0.11383789364E+02 -0.26003713473E+02 -0.30448519008E+02  0.41628068469E+02  0.00000000000E+00 0. -1.
</event>
<event>
 7    1  0.1999542E-015  0.9000806E+02  0.7816164E-02  0.1186338E+00
        -11   -1    0    0    0    0  0.00000000000E+00  0.00000000000E+00  0.45593999997E+02  0.45594000000E+02  0.51100000000E-03 0. -1.
         11   -1    0    0    0    0 -0.00000000000E+00 -0.00000000000E+00 -0.45593999997E+02  0.45594000000E+02  0.51100000000E-03 0.  1.
    9900012    2    1    2    0    0  0.92235410880E+00 -0.72745647672E+00  0.11106949871E+00  0.90008056586E+02  0.90000322132E+02 0.  0.
         12    1    1    2    0    0 -0.92235410880E+00  0.72745647672E+00 -0.11106949871E+00  0.11799434144E+01  0.00000000000E+00 0. -1.
         11    1    3    3    0    0  0.11261243908E+02  0.30373380429E+01  0.11833736032E+00  0.11664263403E+02  0.51100000000E-03 0. -1.
        -11    1    3    3    0    0  0.22080055588E+02 -0.57709609268E+01 -0.27537611926E+02  0.35765247317E+02  0.51100000000E-03 0.  1.
         12    1    3    3    0    0 -0.32418945388E+02  0.20061664072E+01  0.27530344064E+02  0.42578545865E+02  0.00000000000E+00 0. -1.
</event>
<event>
 7    1  0.1999542E-015  0.9000771E+02  0.7816164E-02  0.1186339E+00
        -11   -1    0    0    0    0  0.00000000000E+00  0.00000000000E+00  0.45593999997E+02  0.45594000000E+02  0.51100000000E-03 0.  1.
         11   -1    0    0    0    0 -0.00000000000E+00 -0.00000000000E+00 -0.45593999997E+02  0.45594000000E+02  0.51100000000E-03 0. -1.
    9900012    2    1    2    0    0  0.67550899150E+00 -0.10638667398E+00  0.96199976469E+00  0.90007714412E+02  0.89999975442E+02 0.  0.
         12    1    1    2    0    0 -0.67550899150E+00  0.10638667398E+00 -0.96199976469E+00  0.11802855880E+01  0.00000000000E+00 0. -1.
         11    1    3    3    0    0 -0.30267445474E+02  0.20571583648E+02 -0.15692494063E+02  0.39819124544E+02  0.51100000000E-03 0. -1.
        -11    1    3    3    0    0 -0.49449868623E+01 -0.72870839399E+01  0.12179718581E+01  0.88903286286E+01  0.51100000000E-03 0.  1.
        -12    1    3    3    0    0  0.35887941328E+02 -0.13390886382E+02  0.15436521969E+02  0.41298261239E+02  0.00000000000E+00 0.  1.
</event>
<event>
 7    1  0.1999542E-015  0.9000775E+02  0.7816164E-02  0.1186339E+00
        -11   -1    0    0    0    0  0.00000000000E+00  0.00000000000E+00  0.45593999997E+02  0.45594000000E+02  0.51100000000E-03 0. -1.
         11   -1    0    0    0    0 -0.00000000000E+00 -0.00000000000E+00 -0.45593999997E+02  0.45594000000E+02  0.51100000000E-03 0.  1.
    9900012    2    1    2    0    0  0.96846862618E+00  0.54940756307E+00 -0.39142351261E+00  0.90007748960E+02  0.90000010447E+02 0.  0.
         12    1    1    2    0    0 -0.96846862618E+00 -0.54940756307E+00  0.39142351261E+00  0.11802510396E+01  0.00000000000E+00 0. -1.
         11    1    3    3    0    0  0.20971420360E+02  0.29006119741E+02  0.25623713687E+01  0.35884832474E+02  0.51100000000E-03 0. -1.
        -11    1    3    3    0    0  0.67239138690E+01  0.44096732005E+01 -0.81435499844E+01  0.11444371632E+02  0.51100000000E-03 0.  1.
        -12    1    3    3    0    0 -0.26726865603E+02 -0.32866385379E+02  0.51897551030E+01  0.42678544854E+02  0.00000000000E+00 0.  1.
</event>
<event>
 7    1  0.1999542E-015  0.9000769E+02  0.7816164E-02  0.1186339E+00
        -11   -1    0    0    0    0  0.00000000000E+00  0.00000000000E+00  0.45593999997E+02  0.45594000000E+02  0.51100000000E-03 0.  1.
         11   -1    0    0    0    0 -0.00000000000E+00 -0.00000000000E+00 -0.45593999997E+02  0.45594000000E+02  0.51100000000E-03 0. -1.
    9900012    2    1    2    0    0  0.73752874273E+00  0.90532435612E+00  0.17195410647E+00  0.90007691121E+02  0.89999951843E+02 0.  0.
         12    1    1    2    0    0 -0.73752874273E+00 -0.90532435612E+00 -0.17195410647E+00  0.11803088794E+01  0.00000000000E+00 0. -1.
         11    1    3    3    0    0 -0.14914675433E+02  0.62130241979E+01 -0.36121581887E+02  0.39570416869E+02  0.51100000000E-03 0. -1.
        -11    1    3    3    0    0  0.11465955643E+01 -0.13863998982E+02  0.47865884889E+01  0.14711783671E+02  0.51100000000E-03 0.  1.
        -12    1    3    3    0    0  0.14505608612E+02  0.85562991401E+01  0.31506947504E+02  0.35725490580E+02  0.00000000000E+00 0.  1.
</event>
<event>
 7    1  0.1999542E-015  0.9000770E+02  0.7816164E-02  0.1186339E+00
        -11   -1    0    0    0    0  0.00000000000E+00  0.00000000000E+00  0.45593999997E+02  0.45594000000E+02  0.51100000000E-03 0. -1.
         11   -1    0    0    0    0 -0.00000000000E+00 -0.00000000000E+00 -0.45593999997E+02  0.45594000000E+02  0.51100000000E-03 0.  1.
    9900012    2    1    2    0    0 -0.41324604793E+00 -0.71391343008E+00 -0.84419272157E+00  0.90007700871E+02  0.89999961723E+02 0.  0.
         12    1    1    2    0    0  0.41324604793E+00  0.71391343008E+00  0.84419272157E+00  0.11802991286E+01  0.00000000000E+00 0. -1.
         11    1    3    3    0    0 -0.10267077324E+00 -0.20180336607E+02 -0.13723014701E+02  0.24404459830E+02  0.51100000000E-03 0. -1.
        -11    1    3    3    0    0  0.31731998394E+01  0.16880640997E+02 -0.23421454277E+02  0.29044616685E+02  0.51100000000E-03 0.  1.
         12    1    3    3    0    0 -0.34837751141E+01  0.25857821803E+01  0.36300276256E+02  0.36558624356E+02  0.00000000000E+00 0. -1.
</event>
<event>
 7    1  0.1999542E-015  0.9000766E+02  0.7816164E-02  0.1186339E+00
        -11   -1    0    0    0    0  0.00000000000E+00  0.00000000000E+00  0.45593999997E+02  0.45594000000E+02  0.51100000000E-03 0. -1.
         11   -1    0    0    0    0 -0.00000000000E+00 -0.00000000000E+00 -0.45593999997E+02  0.45594000000E+02  0.51100000000E-03 0.  1.
    9900012    2    1    2    0    0  0.69594631531E+00  0.31108028272E+00  0.90115981940E+00  0.90007660542E+02  0.89999920861E+02 0.  0.
         12    1    1    2    0    0 -0.69594631531E+00 -0.31108028272E+00 -0.90115981940E+00  0.11803394580E+01  0.00000000000E+00 0. -1.
         11    1    3    3    0    0  0.45908036886E+01 -0.15123784549E+02  0.40201487887E+01  0.16308462041E+02  0.51100000000E-03 0. -1.
        -11    1    3    3    0    0  0.83586974525E+01  0.10120009509E+02 -0.35941456158E+02  0.38263176640E+02  0.51100000000E-03 0.  1.
         12    1    3    3    0    0 -0.12253554826E+02  0.53148553222E+01  0.32822467189E+02  0.35436021861E+02  0.00000000000E+00 0. -1.
</event>
<event>
 7    1  0.1999542E-015  0.9000779E+02  0.7816164E-02  0.1186339E+00
        -11   -1    0    0    0    0  0.00000000000E+00  0.00000000000E+00  0.45593999997E+02  0.45594000000E+02  0.51100000000E-03 0. -1.
         11   -1    0    0    0    0 -0.00000000000E+00 -0.00000000000E+00 -0.45593999997E+02  0.45594000000E+02  0.51100000000E-03 0.  1.
    9900012    2    1    2    0    0 -0.12463682103E+00  0.11188485825E+01 -0.35430855824E+00  0.90007791950E+02  0.90000054003E+02 0.  0.
         12    1    1    2    0    0  0.12463682103E+00 -0.11188485825E+01  0.35430855824E+00  0.11802080504E+01  0.00000000000E+00 0. -1.
         11    1    3    3    0    0 -0.12332529323E+02 -0.19921696894E+02 -0.33832489795E+01  0.23673015451E+02  0.51100000000E-03 0. -1.
        -11    1    3    3    0    0  0.94567019098E+00 -0.20745030377E+02 -0.69937759375E+01  0.21912632876E+02  0.51100000000E-03 0.  1.
        -12    1    3    3    0    0  0.11262222311E+02  0.41785575853E+02  0.10022716359E+02  0.44422143622E+02  0.00000000000E+00 0.  1.
</event>
<event>
 7    1  0.1999542E-015  0.9000771E+02  0.7816164E-02  0.1186339E+00
        -11   -1    0    0    0    0  0.00000000000E+00  0.00000000000E+00  0.45593999997E+02  0.45594000000E+02  0.51100000000E-03 0.  1.
         11   -1    0    0    0    0 -0.00000000000E+00 -0.00000000000E+00 -0.45593999997E+02  0.45594000000E+02  0.51100000000E-03 0. -1.
    9900012    2    1    2    0    0 -0.88612859229E+00  0.54092968062E+00  0.56148457380E+00  0.90007706084E+02  0.89999967004E+02 0.  0.
         12    1    1    2    0    0  0.88612859229E+00 -0.54092968062E+00 -0.56148457380E+00  0.11802939160E+01  0.00000000000E+00 0. -1.
         11    1    3    3    0    0  0.94808395520E+01 -0.48015424034E+01  0.12133537980E+01  0.10696417894E+02  0.51100000000E-03 0. -1.
        -11    1    3    3    0    0  0.20408620622E+01  0.28306616642E+02  0.28473264206E+02  0.40201448213E+02  0.51100000000E-03 0.  1.
         12    1    3    3    0    0 -0.12407830206E+02 -0.22964144558E+02 -0.29125133430E+02  0.39109839977E+02  0.00000000000E+00 0. -1.
</event>
<event>
 7    1  0.1999542E-015  0.9000763E+02  0.7816164E-02  0.1186339E+00
        -11   -1    0    0    0    0  0.00000000000E+00  0.00000000000E+00  0.45593999997E+02  0.45594000000E+02  0.51100000000E-03 0.  1.
         11   -1    0    0    0    0 -0.00000000000E+00 -0.00000000000E+00 -0.45593999997E+02  0.45594000000E+02  0.51100000000E-03 0. -1.
    9900012    2    1    2    0    0 -0.61641171587E+00 -0.54931217147E+00  0.84354629261E+00  0.90007628189E+02  0.89999888081E+02 0.  0.
         12    1    1    2    0    0  0.61641171587E+00  0.54931217147E+00 -0.84354629261E+00  0.11803718113E+01  0.00000000000E+00 0. -1.
         11    1    3    3    0    0  0.43135759362E+01  0.78136691957E+01  0.66063656933E+01  0.11104252861E+02  0.51100000000E-03 0. -1.
        -11    1    3    3    0    0  0.34557257116E+02 -0.93798985707E+01  0.86813128853E+01  0.36844968588E+02  0.51100000000E-03 0.  1.
         12    1    3    3    0    0 -0.39487244768E+02  0.10169172035E+01 -0.14444132286E+02  0.42058406740E+02  0.00000000000E+00 0. -1.
</event>
<event>
 7    1  0.2016196E-015  0.9000777E+02  0.7816164E-02  0.1186339E+00
        -11   -1    0    0    0    0  0.00000000000E+00  0.00000000000E+00  0.45593999997E+02  0.45594000000E+02  0.51100000000E-03 0. -1.
         11   -1    0    0    0    0 -0.00000000000E+00 -0.00000000000E+00 -0.45593999997E+02  0.45594000000E+02  0.51100000000E-03 0.  1.
    9900012    2    1    2    0    0  0.81439630165E-01  0.72232614656E-01 -0.11752007985E+01  0.90007768294E+02  0.90000030035E+02 0.  0.
         12    1    1    2    0    0 -0.81439630165E-01 -0.72232614656E-01  0.11752007985E+01  0.11802317064E+01  0.00000000000E+00 0. -1.
         11    1    3    3    0    0 -0.37620980579E+01 -0.27156475744E+02  0.31516816972E+02  0.41772446768E+02  0.51100000000E-03 0. -1.
        -11    1    3    3    0    0 -0.72292642015E+01  0.14409712880E+01 -0.60032161973E+01  0.95066957519E+01  0.51100000000E-03 0.  1.
        -12    1    3    3    0    0  0.11072801890E+02  0.25787737071E+02 -0.26688801573E+02  0.38728625774E+02  0.00000000000E+00 0.  1.
</event>
<event>
 7    1  0.1999542E-015  0.9000683E+02  0.7816164E-02  0.1186341E+00
        -11   -1    0    0    0    0  0.00000000000E+00  0.00000000000E+00  0.45593999997E+02  0.45594000000E+02  0.51100000000E-03 0. -1.
         11   -1    0    0    0    0 -0.00000000000E+00 -0.00000000000E+00 -0.45593999997E+02  0.45594000000E+02  0.51100000000E-03 0.  1.
    9900012    2    1    2    0    0  0.55554294015E+00  0.95142806253E+00 -0.42581259929E+00  0.90006831220E+02  0.89999080588E+02 0.  0.
         12    1    1    2    0    0 -0.55554294015E+00 -0.95142806253E+00  0.42581259929E+00  0.11811687797E+01  0.00000000000E+00 0. -1.
         11    1    3    3    0    0 -0.51864195557E+01  0.48305755904E+00 -0.78211837488E+00  0.52672575242E+01  0.51100000000E-03 0. -1.
        -11    1    3    3    0    0 -0.45176599019E+01 -0.36915527750E+02 -0.18604623737E+02  0.41584822528E+02  0.51100000000E-03 0.  1.
         12    1    3    3    0    0  0.10259622398E+02  0.37383898254E+02  0.18960929513E+02  0.43154751168E+02  0.00000000000E+00 0. -1.
</event>
<event>
 7    1  0.1999542E-015  0.9000864E+02  0.7816164E-02  0.1186337E+00
        -11   -1    0    0    0    0  0.00000000000E+00  0.00000000000E+00  0.45593999997E+02  0.45594000000E+02  0.51100000000E-03 0. -1.
         11   -1    0    0    0    0 -0.00000000000E+00 -0.00000000000E+00 -0.45593999997E+02  0.45594000000E+02  0.51100000000E-03 0.  1.
    9900012    2    1    2    0    0 -0.78948483954E+00 -0.13782964233E+00 -0.86521849641E+00  0.90008641544E+02  0.90000914807E+02 0.  0.
         12    1    1    2    0    0  0.78948483954E+00  0.13782964233E+00  0.86521849641E+00  0.11793584564E+01  0.00000000000E+00 0. -1.
         11    1    3    3    0    0 -0.24904418630E+02 -0.11216536334E+01  0.34911318773E+02  0.42898582179E+02  0.51100000000E-03 0. -1.
        -11    1    3    3    0    0  0.39575833972E+01 -0.65878010182E+01 -0.38359708084E+01  0.85893108516E+01  0.51100000000E-03 0.  1.
        -12    1    3    3    0    0  0.20157350394E+02  0.75716250093E+01 -0.31940566461E+02  0.38520748513E+02  0.00000000000E+00 0.  1.
</event>
<event>
 7    1  0.1999542E-015  0.9000778E+02  0.7816164E-02  0.1186339E+00
        -11   -1    0    0    0    0  0.00000000000E+00  0.00000000000E+00  0.45593999997E+02  0.45594000000E+02  0.51100000000E-03 0. -1.
         11   -1    0    0    0    0 -0.00000000000E+00 -0.00000000000E+00 -0.45593999997E+02  0.45594000000E+02  0.51100000000E-03 0.  1.
    9900012    2    1    2    0    0  0.61706873439E+00  0.90017141877E+00 -0.44926630982E+00  0.90007778570E+02  0.90000040447E+02 0.  0.
         12    1    1    2    0    0 -0.61706873439E+00 -0.90017141877E+00  0.44926630982E+00  0.11802214298E+01  0.00000000000E+00 0. -1.
         11    1    3    3    0    0  0.92405699441E+01  0.27717647763E+02  0.26518289536E+02  0.39457265625E+02  0.51100000000E-03 0. -1.
        -11    1    3    3    0    0  0.22047349708E+00  0.72277298207E+01 -0.23003471438E+01  0.75881673787E+01  0.51100000000E-03 0.  1.
        -12    1    3    3    0    0 -0.88439747068E+01 -0.34045206165E+02 -0.24667208702E+02  0.42962345567E+02  0.00000000000E+00 0.  1.
</event>
<event>
 7    1  0.2633178E-015  0.9000777E+02  0.7816164E-02  0.1186339E+00
        -11   -1    0    0    0    0  0.00000000000E+00  0.00000000000E+00  0.45593999997E+02  0.45594000000E+02  0.51100000000E-03 0.  1.
         11   -1    0    0    0    0 -0.00000000000E+00 -0.00000000000E+00 -0.45593999997E+02  0.45594000000E+02  0.51100000000E-03 0. -1.
    9900012    2    1    2    0    0  0.96131599849E+00 -0.20869838624E-01  0.68438518150E+00  0.90007768211E+02  0.90000029951E+02 0.  0.
         12    1    1    2    0    0 -0.96131599849E+00  0.20869838624E-01 -0.68438518150E+00  0.11802317890E+01  0.00000000000E+00 0. -1.
         11    1    3    3    0    0 -0.87698604836E+01  0.22571925752E+02 -0.32425416011E+02  0.40469863959E+02  0.51100000000E-03 0. -1.
        -11    1    3    3    0    0  0.91598842016E+01 -0.19859270615E+01 -0.12628409455E+01  0.94573861292E+01  0.51100000000E-03 0.  1.
        -12    1    3    3    0    0  0.57129228048E+00 -0.20606868530E+02  0.34372642138E+02  0.40080518123E+02  0.00000000000E+00 0.  1.
</event>
<event>
 7    1  0.1999542E-015  0.9000787E+02  0.7816164E-02  0.1186339E+00
        -11   -1    0    0    0    0  0.00000000000E+00  0.00000000000E+00  0.45593999997E+02  0.45594000000E+02  0.51100000000E-03 0.  1.
         11   -1    0    0    0    0 -0.00000000000E+00 -0.00000000000E+00 -0.45593999997E+02  0.45594000000E+02  0.51100000000E-03 0. -1.
    9900012    2    1    2    0    0  0.22149702452E+00  0.55180777717E+00  0.10193901323E+01  0.90007869076E+02  0.90000132148E+02 0.  0.
         12    1    1    2    0    0 -0.22149702452E+00 -0.55180777717E+00 -0.10193901323E+01  0.11801309235E+01  0.00000000000E+00 0. -1.
         11    1    3    3    0    0  0.16744312328E+01 -0.14064647000E+02  0.10698567049E+02  0.17750418371E+02  0.51100000000E-03 0. -1.
        -11    1    3    3    0    0 -0.13697266565E+01  0.37436564247E+01  0.30435424762E+02  0.30695377425E+02  0.51100000000E-03 0.  1.
         12    1    3    3    0    0 -0.83207551770E-01  0.10872798352E+02 -0.40114601679E+02  0.41562073281E+02  0.00000000000E+00 0. -1.
</event>
<event>
 7    1  0.1999542E-015  0.9000770E+02  0.7816164E-02  0.1186339E+00
        -11   -1    0    0    0    0  0.00000000000E+00  0.00000000000E+00  0.45593999997E+02  0.45594000000E+02  0.51100000000E-03 0. -1.
         11   -1    0    0    0    0 -0.00000000000E+00 -0.00000000000E+00 -0.45593999997E+02  0.45594000000E+02  0.51100000000E-03 0.  1.
    9900012    2    1    2    0    0 -0.99964375231E+00  0.36054879879E-01 -0.62651081065E+00  0.90007701995E+02  0.89999962861E+02 0.  0.
         12    1    1    2    0    0  0.99964375231E+00 -0.36054879879E-01  0.62651081065E+00  0.11802980055E+01  0.00000000000E+00 0. -1.
         11    1    3    3    0    0 -0.47262903225E+01 -0.15028833606E+02  0.31199073202E+02  0.34951192093E+02  0.51100000000E-03 0. -1.
        -11    1    3    3    0    0  0.14668564098E+01 -0.87339805795E+01  0.57224217439E+01  0.10544201979E+02  0.51100000000E-03 0.  1.
        -12    1    3    3    0    0  0.22597901604E+01  0.23798869065E+02 -0.37548005757E+02  0.44512307923E+02  0.00000000000E+00 0.  1.
</event>
<event>
 7    1  0.1999542E-015  0.9000776E+02  0.7816164E-02  0.1186339E+00
        -11   -1    0    0    0    0  0.00000000000E+00  0.00000000000E+00  0.45593999997E+02  0.45594000000E+02  0.51100000000E-03 0. -1.
         11   -1    0    0    0    0 -0.00000000000E+00 -0.00000000000E+00 -0.45593999997E+02  0.45594000000E+02  0.51100000000E-03 0.  1.
    9900012    2    1    2    0    0 -0.66592570997E+00 -0.39437479437E+00  0.89105587960E+00  0.90007758876E+02  0.90000020493E+02 0.  0.
         12    1    1    2    0    0  0.66592570997E+00  0.39437479437E+00 -0.89105587960E+00  0.11802411238E+01  0.00000000000E+00 0. -1.
         11    1    3    3    0    0 -0.30901695030E+02 -0.41573147533E+01  0.25824217986E+02  0.40485654948E+02  0.51100000000E-03 0. -1.
        -11    1    3    3    0    0  0.35901931247E+01  0.91524257898E+01  0.32594466815E+01  0.10357624122E+02  0.51100000000E-03 0.  1.
        -12    1    3    3    0    0  0.26645576195E+02 -0.53894858309E+01 -0.28192608788E+02  0.39164479807E+02  0.00000000000E+00 0.  1.
</event>
<event>
 7    1  0.1999542E-015  0.9000778E+02  0.7816164E-02  0.1186339E+00
        -11   -1    0    0    0    0  0.00000000000E+00  0.00000000000E+00  0.45593999997E+02  0.45594000000E+02  0.51100000000E-03 0. -1.
         11   -1    0    0    0    0 -0.00000000000E+00 -0.00000000000E+00 -0.45593999997E+02  0.45594000000E+02  0.51100000000E-03 0.  1.
    9900012    2    1    2    0    0 -0.11062450562E+01  0.21090881388E+00 -0.35307259026E+00  0.90007779298E+02  0.90000041184E+02 0.  0.
         12    1    1    2    0    0  0.11062450562E+01 -0.21090881388E+00  0.35307259026E+00  0.11802207023E+01  0.00000000000E+00 0. -1.
         11    1    3    3    0    0  0.21625479331E+01  0.48315887875E+01  0.48820941105E+01  0.72010906770E+01  0.51100000000E-03 0. -1.
        -11    1    3    3    0    0  0.38148904773E+02 -0.63382071034E+01 -0.12664785635E+02  0.40692856868E+02  0.51100000000E-03 0.  1.
         12    1    3    3    0    0 -0.41417697762E+02  0.17175271298E+01  0.74296189346E+01  0.42113831752E+02  0.00000000000E+00 0. -1.
</event>
<event>
 7    1  0.1999542E-015  0.9000787E+02  0.7816164E-02  0.1186339E+00
        -11   -1    0    0    0    0  0.00000000000E+00  0.00000000000E+00  0.45593999997E+02  0.45594000000E+02  0.51100000000E-03 0.  1.
         11   -1    0    0    0    0 -0.00000000000E+00 -0.00000000000E+00 -0.45593999997E+02  0.45594000000E+02  0.51100000000E-03 0. -1.
    9900012    2    1    2    0    0 -0.99108549052E+00  0.32759189932E+00  0.55057158604E+00  0.90007874594E+02  0.90000137739E+02 0.  0.
         12    1    1    2    0    0  0.99108549052E+00 -0.32759189932E+00 -0.55057158604E+00  0.11801254058E+01  0.00000000000E+00 0. -1.
         11    1    3    3    0    0 -0.17979054629E+01 -0.76611705168E+01  0.61188328542E+01  0.99682552887E+01  0.51100000000E-03 0. -1.
        -11    1    3    3    0    0 -0.13545202914E+02 -0.32646706748E+02  0.49206998700E+01  0.35686037479E+02  0.51100000000E-03 0.  1.
         12    1    3    3    0    0  0.14352022886E+02  0.40635469164E+02 -0.10488961138E+02  0.44353581827E+02  0.00000000000E+00 0. -1.
</event>
<event>
 7    1  0.1999542E-015  0.9000776E+02  0.7816164E-02  0.1186339E+00
        -11   -1    0    0    0    0  0.00000000000E+00  0.00000000000E+00  0.45593999997E+02  0.45594000000E+02  0.51100000000E-03 0. -1.
         11   -1    0    0    0    0 -0.00000000000E+00 -0.00000000000E+00 -0.45593999997E+02  0.45594000000E+02  0.51100000000E-03 0.  1.
    9900012    2    1    2    0    0  0.53955291441E-01  0.86002591403E+00 -0.80648133606E+00  0.90007759392E+02  0.90000021016E+02 0.  0.
         12    1    1    2    0    0 -0.53955291441E-01 -0.86002591403E+00  0.80648133606E+00  0.11802406075E+01  0.00000000000E+00 0. -1.
         11    1    3    3    0    0  0.31910665755E+02  0.28005279503E+02 -0.43444042652E+01  0.42678567427E+02  0.51100000000E-03 0. -1.
        -11    1    3    3    0    0  0.65869798967E+00 -0.35960153762E+01  0.60874492462E+01  0.71008624978E+01  0.51100000000E-03 0.  1.
        -12    1    3    3    0    0 -0.32515408453E+02 -0.23549238213E+02 -0.25495263170E+01  0.40228329467E+02  0.00000000000E+00 0.  1.
</event>
<event>
 7    1  0.1999542E-015  0.9000773E+02  0.7816164E-02  0.1186339E+00
        -11   -1    0    0    0    0  0.00000000000E+00  0.00000000000E+00  0.45593999997E+02  0.45594000000E+02  0.51100000000E-03 0. -1.
         11   -1    0    0    0    0 -0.00000000000E+00 -0.00000000000E+00 -0.45593999997E+02  0.45594000000E+02  0.51100000000E-03 0.  1.
    9900012    2    1    2    0    0  0.21903599896E+00 -0.28023653297E+00  0.11253985433E+01  0.90007732588E+02  0.89999993858E+02 0.  0.
         12    1    1    2    0    0 -0.21903599896E+00  0.28023653297E+00 -0.11253985433E+01  0.11802674123E+01  0.00000000000E+00 0. -1.
         11    1    3    3    0    0 -0.67699830746E+01 -0.56589348389E+01  0.40251387706E+01  0.96983481441E+01  0.51100000000E-03 0. -1.
        -11    1    3    3    0    0 -0.20333809649E+02  0.30263559779E+02 -0.17662692609E+02  0.40513177804E+02  0.51100000000E-03 0.  1.
         12    1    3    3    0    0  0.27322828722E+02 -0.24884861473E+02  0.14762952381E+02  0.39796206640E+02  0.00000000000E+00 0. -1.
</event>
<event>
 7    1  0.1999542E-015  0.9000777E+02  0.7816164E-02  0.1186339E+00
        -11   -1    0    0    0    0  0.00000000000E+00  0.00000000000E+00  0.45593999997E+02  0.45594000000E+02  0.51100000000E-03 0.  1.
         11   -1    0    0    0    0 -0.00000000000E+00 -0.00000000000E+00 -0.45593999997E+02  0.45594000000E+02  0.51100000000E-03 0. -1.
    9900012    2    1    2    0    0  0.93383416595E+00  0.22797694810E+00  0.68477537401E+00  0.90007772458E+02  0.90000034254E+02 0.  0.
         12    1    1    2    0    0 -0.93383416595E+00 -0.22797694810E+00 -0.68477537401E+00  0.11802275421E+01  0.00000000000E+00 0. -1.
         11    1    3    3    0    0  0.81602367095E+01  0.88610726487E+00  0.22582219754E+01  0.85131789592E+01  0.51100000000E-03 0. -1.
        -11    1    3    3    0    0 -0.10251607393E+02  0.25506075478E+02  0.29792372302E+02  0.40536906494E+02  0.51100000000E-03 0.  1.
         12    1    3    3    0    0  0.30252048491E+01 -0.26164205795E+02 -0.31365818904E+02  0.40957687005E+02  0.00000000000E+00 0. -1.
</event>
<event>
 7    1  0.1999542E-015  0.9000768E+02  0.7816164E-02  0.1186339E+00
        -11   -1    0    0    0    0  0.00000000000E+00  0.00000000000E+00  0.45593999997E+02  0.45594000000E+02  0.51100000000E-03 0.  1.
         11   -1    0    0    0    0 -0.00000000000E+00 -0.00000000000E+00 -0.45593999997E+02  0.45594000000E+02  0.51100000000E-03 0. -1.
    9900012    2    1    2    0    0 -0.51077674544E+00  0.28812651609E+00  0.10243251566E+01  0.90007681484E+02  0.89999942079E+02 0.  0.
         12    1    1    2    0    0  0.51077674544E+00 -0.28812651609E+00 -0.10243251566E+01  0.11803185161E+01  0.00000000000E+00 0. -1.
         11    1    3    3    0    0 -0.81313154668E+01 -0.18151985730E+02 -0.32476736498E+02  0.38083477927E+02  0.51100000000E-03 0. -1.
        -11    1    3    3    0    0 -0.65297844700E+01  0.35675822204E+01 -0.45264474507E+01  0.87094463033E+01  0.51100000000E-03 0.  1.
        -12    1    3    3    0    0  0.14150323191E+02  0.14872530026E+02  0.38027509105E+02  0.43214757254E+02  0.00000000000E+00 0.  1.
</event>
<event>
 7    1  0.1999542E-015  0.9000792E+02  0.7816164E-02  0.1186339E+00
        -11   -1    0    0    0    0  0.00000000000E+00  0.00000000000E+00  0.45593999997E+02  0.45594000000E+02  0.51100000000E-03 0. -1.
         11   -1    0    0    0    0 -0.00000000000E+00 -0.00000000000E+00 -0.45593999997E+02  0.45594000000E+02  0.51100000000E-03 0.  1.
    9900012    2    1    2    0    0 -0.22745646205E+00 -0.75869281589E+00 -0.87477383806E+00  0.90007923520E+02  0.90000187310E+02 0.  0.
         12    1    1    2    0    0  0.22745646205E+00  0.75869281589E+00  0.87477383806E+00  0.11800764801E+01  0.00000000000E+00 0. -1.
         11    1    3    3    0    0 -0.22185671974E+02  0.26687554144E+02  0.75312005797E+01  0.35512653654E+02  0.51100000000E-03 0. -1.
        -11    1    3    3    0    0 -0.92432123516E+01  0.33748731384E-01  0.53762775131E+01  0.10693104026E+02  0.51100000000E-03 0.  1.
        -12    1    3    3    0    0  0.31201427864E+02 -0.27479995691E+02 -0.13782251931E+02  0.43802165839E+02  0.00000000000E+00 0.  1.
</event>
<event>
 7    1  0.1999542E-015  0.9000779E+02  0.7816164E-02  0.1186339E+00
        -11   -1    0    0    0    0  0.00000000000E+00  0.00000000000E+00  0.45593999997E+02  0.45594000000E+02  0.51100000000E-03 0. -1.
         11   -1    0    0    0    0 -0.00000000000E+00 -0.00000000000E+00 -0.45593999997E+02  0.45594000000E+02  0.51100000000E-03 0.  1.
    9900012    2    1    2    0    0  0.15386380910E+00  0.30053493746E-01 -0.11697545005E+01  0.90007786936E+02  0.90000048924E+02 0.  0.
         12    1    1    2    0    0 -0.15386380910E+00 -0.30053493746E-01  0.11697545005E+01  0.11802130637E+01  0.00000000000E+00 0. -1.
         11    1    3    3    0    0 -0.12135872578E+02  0.30043222116E+02  0.16954147759E+02  0.36569354996E+02  0.51100000000E-03 0. -1.
        -11    1    3    3    0    0 -0.37456801485E+01 -0.17944835043E+00  0.91909463639E+01  0.99265208815E+01  0.51100000000E-03 0.  1.
        -12    1    3    3    0    0  0.16035416535E+02 -0.29833720272E+02 -0.27314848623E+02  0.43511911059E+02  0.00000000000E+00 0.  1.
</event>
<event>
 7    1  0.1999542E-015  0.9000747E+02  0.7816164E-02  0.1186340E+00
        -11   -1    0    0    0    0  0.00000000000E+00  0.00000000000E+00  0.45593999997E+02  0.45594000000E+02  0.51100000000E-03 0. -1.
         11   -1    0    0    0    0 -0.00000000000E+00 -0.00000000000E+00 -0.45593999997E+02  0.45594000000E+02  0.51100000000E-03 0.  1.
    9900012    2    1    2    0    0  0.51735796947E+00  0.58991109780E+00 -0.88203582151E+00  0.90007474031E+02  0.89999731888E+02 0.  0.
         12    1    1    2    0    0 -0.51735796947E+00 -0.58991109780E+00  0.88203582151E+00  0.11805259685E+01  0.00000000000E+00 0. -1.
         11    1    3    3    0    0 -0.10530676940E+02  0.31345387108E+02  0.27093368119E+02  0.42749023919E+02  0.51100000000E-03 0. -1.
        -11    1    3    3    0    0  0.26851197228E+01 -0.19544664685E+00 -0.10978208079E+02  0.11303500352E+02  0.51100000000E-03 0.  1.
        -12    1    3    3    0    0  0.83629151867E+01 -0.30560029363E+02 -0.16997195862E+02  0.35954949760E+02  0.00000000000E+00 0.  1.
</event>
<event>
 7    1  0.1999542E-015  0.9000768E+02  0.7816164E-02  0.1186339E+00
        -11   -1    0    0    0    0  0.00000000000E+00  0.00000000000E+00  0.45593999997E+02  0.45594000000E+02  0.51100000000E-03 0.  1.
         11   -1    0    0    0    0 -0.00000000000E+00 -0.00000000000E+00 -0.45593999997E+02  0.45594000000E+02  0.51100000000E-03 0. -1.
    9900012    2    1    2    0    0 -0.20408588090E+00 -0.11069309365E+01  0.35526886729E+00  0.90007676691E+02  0.89999937224E+02 0.  0.
         12    1    1    2    0    0  0.20408588090E+00  0.11069309365E+01 -0.35526886729E+00  0.11803233087E+01  0.00000000000E+00 0. -1.
         11    1    3    3    0    0 -0.39950270299E+02 -0.13449900590E+02 -0.40238559461E+01  0.42345192641E+02  0.51100000000E-03 0. -1.
        -11    1    3    3    0    0  0.37601536465E+01  0.52803231752E+01  0.85763308671E+01  0.10750535786E+02  0.51100000000E-03 0.  1.
        -12    1    3    3    0    0  0.35986030772E+02  0.70626464782E+01 -0.41972060538E+01  0.36911948264E+02  0.00000000000E+00 0.  1.
</event>
<event>
 7    1  0.1999542E-015  0.9000777E+02  0.7816164E-02  0.1186339E+00
        -11   -1    0    0    0    0  0.00000000000E+00  0.00000000000E+00  0.45593999997E+02  0.45594000000E+02  0.51100000000E-03 0. -1.
         11   -1    0    0    0    0 -0.00000000000E+00 -0.00000000000E+00 -0.45593999997E+02  0.45594000000E+02  0.51100000000E-03 0.  1.
    9900012    2    1    2    0    0 -0.53226696061E+00  0.94772855201E+00 -0.45983046148E+00  0.90007770540E+02  0.90000032311E+02 0.  0.
         12    1    1    2    0    0  0.53226696061E+00 -0.94772855201E+00  0.45983046148E+00  0.11802294603E+01  0.00000000000E+00 0. -1.
         11    1    3    3    0    0 -0.77604122700E+01 -0.36520530421E+01 -0.85423097329E+01  0.12105062819E+02  0.51100000000E-03 0. -1.
        -11    1    3    3    0    0  0.39384319434E+02 -0.54061133862E+01 -0.80509986174E+01  0.40560686116E+02  0.51100000000E-03 0.  1.
         12    1    3    3    0    0 -0.32156174125E+02  0.10005894980E+02  0.16133477889E+02  0.37342021604E+02  0.00000000000E+00 0. -1.
</event>
<event>
 7    1  0.1999542E-015  0.9000767E+02  0.7816164E-02  0.1186339E+00
        -11   -1    0    0    0    0  0.00000000000E+00  0.00000000000E+00  0.45593999997E+02  0.45594000000E+02  0.51100000000E-03 0. -1.
         11   -1    0    0    0    0 -0.00000000000E+00 -0.00000000000E+00 -0.45593999997E+02  0.45594000000E+02  0.51100000000E-03 0.  1.
    9900012    2    1    2    0    0 -0.24315917736E+00  0.99745930506E+00 -0.58233922020E+00  0.90007673597E+02  0.89999934088E+02 0.  0.
         12    1    1    2    0    0  0.24315917736E+00 -0.99745930506E+00  0.58233922020E+00  0.11803264032E+01  0.00000000000E+00 0. -1.
         11    1    3    3    0    0  0.67455865435E+01  0.22797569666E+01 -0.61931934260E+01  0.94369420214E+01  0.51100000000E-03 0. -1.
        -11    1    3    3    0    0 -0.25331562650E+02  0.29669243957E+02 -0.11582198071E+02  0.40695201384E+02  0.51100000000E-03 0.  1.
         12    1    3    3    0    0  0.18342816929E+02 -0.30951541619E+02  0.17193052276E+02  0.39875530191E+02  0.00000000000E+00 0. -1.
</event>
<event>
 7    1  0.1999542E-015  0.9000766E+02  0.7816164E-02  0.1186339E+00
        -11   -1    0    0    0    0  0.00000000000E+00  0.00000000000E+00  0.45593999997E+02  0.45594000000E+02  0.51100000000E-03 0.  1.
         11   -1    0    0    0    0 -0.00000000000E+00 -0.00000000000E+00 -0.45593999997E+02  0.45594000000E+02  0.51100000000E-03 0. -1.
    9900012    2    1    2    0    0 -0.44248841745E+00 -0.90648799749E+00  0.61292394871E+00  0.90007664346E+02  0.89999924715E+02 0.  0.
         12    1    1    2    0    0  0.44248841745E+00  0.90648799749E+00 -0.61292394871E+00  0.11803356540E+01  0.00000000000E+00 0. -1.
         11    1    3    3    0    0  0.12445748422E+02  0.32492326601E+02 -0.29790539656E+01  0.34921665260E+02  0.51100000000E-03 0. -1.
        -11    1    3    3    0    0  0.12755395472E+01  0.81157838544E+01 -0.60150061258E+01  0.10182006073E+02  0.51100000000E-03 0.  1.
        -12    1    3    3    0    0 -0.14163776387E+02 -0.41514598453E+02  0.96069840401E+01  0.44903993014E+02  0.00000000000E+00 0.  1.
</event>
<event>
 7    1  0.1999542E-015  0.9000777E+02  0.7816164E-02  0.1186339E+00
        -11   -1    0    0    0    0  0.00000000000E+00  0.00000000000E+00  0.45593999997E+02  0.45594000000E+02  0.51100000000E-03 0.  1.
         11   -1    0    0    0    0 -0.00000000000E+00 -0.00000000000E+00 -0.45593999997E+02  0.45594000000E+02  0.51100000000E-03 0. -1.
    9900012    2    1    2    0    0 -0.41760453734E+00 -0.75553987661E+00  0.80480325275E+00  0.90007770221E+02  0.90000031988E+02 0.  0.
         12    1    1    2    0    0  0.41760453734E+00  0.75553987661E+00 -0.80480325275E+00  0.11802297786E+01  0.00000000000E+00 0. -1.
         11    1    3    3    0    0 -0.18235596753E+02 -0.47447949122E+01  0.17402071158E+02  0.25649213410E+02  0.51100000000E-03 0. -1.
        -11    1    3    3    0    0  0.55082978932E+01 -0.10200156111E+02  0.20059875494E+02  0.23168580782E+02  0.51100000000E-03 0.  1.
         12    1    3    3    0    0  0.12309694323E+02  0.14189411146E+02 -0.36657143400E+02  0.41189976029E+02  0.00000000000E+00 0. -1.
</event>
<event>
 7    1  0.1999542E-015  0.9000761E+02  0.7816164E-02  0.1186339E+00
        -11   -1    0    0    0    0  0.00000000000E+00  0.00000000000E+00  0.45593999997E+02  0.45594000000E+02  0.51100000000E-03 0. -1.
         11   -1    0    0    0    0 -0.00000000000E+00 -0.00000000000E+00 -0.45593999997E+02  0.45594000000E+02  0.51100000000E-03 0.  1.
    9900012    2    1    2    0    0 -0.81425407405E+00 -0.49107644171E+00 -0.69940358030E+00  0.90007605516E+02  0.89999865109E+02 0.  0.
         12    1    1    2    0    0  0.81425407405E+00  0.49107644171E+00  0.69940358030E+00  0.11803944836E+01  0.00000000000E+00 0. -1.
         11    1    3    3    0    0  0.33471433295E+01  0.27845389587E+01 -0.79904853703E+01  0.90997188085E+01  0.51100000000E-03 0. -1.
        -11    1    3    3    0    0 -0.28370633180E+02 -0.72946304223E+01 -0.26259305680E+02  0.39340254131E+02  0.51100000000E-03 0.  1.
         12    1    3    3    0    0  0.24209235776E+02  0.40190150219E+01  0.33550387470E+02  0.41567632577E+02  0.00000000000E+00 0. -1.
</event>
<event>
 7    1  0.1999542E-015  0.9000737E+02  0.7816164E-02  0.1186340E+00
        -11   -1    0    0    0    0  0.00000000000E+00  0.00000000000E+00  0.45593999997E+02  0.45594000000E+02  0.51100000000E-03 0.  1.
         11   -1    0    0    0    0 -0.00000000000E+00 -0.00000000000E+00 -0.45593999997E+02  0.45594000000E+02  0.51100000000E-03 0. -1.
    9900012    2    1    2    0    0  0.81537517884E+00  0.58158872700E+00  0.62513515949E+00  0.90007374701E+02  0.89999631246E+02 0.  0.
         12    1    1    2    0    0 -0.81537517884E+00 -0.58158872700E+00 -0.62513515949E+00  0.11806252993E+01  0.00000000000E+00 0. -1.
         11    1    3    3    0    0 -0.22297921960E+01 -0.11701815042E+02  0.38531024507E+01  0.12520017862E+02  0.51100000000E-03 0. -1.
        -11    1    3    3    0    0  0.16432656218E+02 -0.24413749228E+02  0.16485757078E+02  0.33731936328E+02  0.51100000000E-03 0.  1.
         12    1    3    3    0    0 -0.13387488843E+02  0.36697152997E+02 -0.19713724369E+02  0.43755420511E+02  0.00000000000E+00 0. -1.
</event>
<event>
 7    1  0.1999542E-015  0.9000776E+02  0.7816164E-02  0.1186339E+00
        -11   -1    0    0    0    0  0.00000000000E+00  0.00000000000E+00  0.45593999997E+02  0.45594000000E+02  0.51100000000E-03 0. -1.
         11   -1    0    0    0    0 -0.00000000000E+00 -0.00000000000E+00 -0.45593999997E+02  0.45594000000E+02  0.51100000000E-03 0.  1.
    9900012    2    1    2    0    0  0.28874024048E+00 -0.95386978969E+00 -0.63224181082E+00  0.90007759258E+02  0.90000020880E+02 0.  0.
         12    1    1    2    0    0 -0.28874024048E+00  0.95386978969E+00  0.63224181082E+00  0.11802407422E+01  0.00000000000E+00 0. -1.
         11    1    3    3    0    0  0.14206324843E+02  0.29590607267E+02 -0.78834235020E+01  0.33757548346E+02  0.51100000000E-03 0. -1.
        -11    1    3    3    0    0 -0.18552981328E+01  0.11146179801E+02 -0.29262766265E+01  0.11672298422E+02  0.51100000000E-03 0.  1.
        -12    1    3    3    0    0 -0.12062286470E+02 -0.41690656857E+02  0.10177458318E+02  0.44577912489E+02  0.00000000000E+00 0.  1.
</event>
<event>
 7    1  0.1999542E-015  0.9000775E+02  0.7816164E-02  0.1186339E+00
        -11   -1    0    0    0    0  0.00000000000E+00  0.00000000000E+00  0.45593999997E+02  0.45594000000E+02  0.51100000000E-03 0. -1.
         11   -1    0    0    0    0 -0.00000000000E+00 -0.00000000000E+00 -0.45593999997E+02  0.45594000000E+02  0.51100000000E-03 0.  1.
    9900012    2    1    2    0    0  0.38776298475E+00  0.80930635212E+00 -0.76658299082E+00  0.90007751558E+02  0.90000013078E+02 0.  0.
         12    1    1    2    0    0 -0.38776298475E+00 -0.80930635212E+00  0.76658299082E+00  0.11802484424E+01  0.00000000000E+00 0. -1.
         11    1    3    3    0    0  0.91765188050E+01  0.11939152507E+01  0.30013945407E+01  0.97284274399E+01  0.51100000000E-03 0. -1.
        -11    1    3    3    0    0 -0.16564015830E+02  0.34078087685E+02  0.14422386335E+02  0.40542421098E+02  0.51100000000E-03 0.  1.
         12    1    3    3    0    0  0.77752600094E+01 -0.34462696583E+02 -0.18190363866E+02  0.39736903020E+02  0.00000000000E+00 0. -1.
</event>
<event>
 7    1  0.1999542E-015  0.9000782E+02  0.7816164E-02  0.1186339E+00
        -11   -1    0    0    0    0  0.00000000000E+00  0.00000000000E+00  0.45593999997E+02  0.45594000000E+02  0.51100000000E-03 0. -1.
         11   -1    0    0    0    0 -0.00000000000E+00 -0.00000000000E+00 -0.45593999997E+02  0.45594000000E+02  0.51100000000E-03 0.  1.
    9900012    2    1    2    0    0 -0.19012290713E+00 -0.53530441109E+00 -0.10344737420E+01  0.90007816347E+02  0.90000078723E+02 0.  0.
         12    1    1    2    0    0  0.19012290713E+00  0.53530441109E+00  0.10344737420E+01  0.11801836532E+01  0.00000000000E+00 0. -1.
         11    1    3    3    0    0 -0.32488440136E+01 -0.80650323148E+01 -0.28691598347E+01  0.91559713893E+01  0.51100000000E-03 0. -1.
        -11    1    3    3    0    0  0.21298711749E+02 -0.29043957004E+02 -0.11587441174E+02  0.37834578811E+02  0.51100000000E-03 0.  1.
         12    1    3    3    0    0 -0.18239990642E+02  0.36573684907E+02  0.13422127267E+02  0.43017266146E+02  0.00000000000E+00 0. -1.
</event>
<event>
 7    1  0.1999542E-015  0.9000776E+02  0.7816164E-02  0.1186339E+00
        -11   -1    0    0    0    0  0.00000000000E+00  0.00000000000E+00  0.45593999997E+02  0.45594000000E+02  0.51100000000E-03 0.  1.
         11   -1    0    0    0    0 -0.00000000000E+00 -0.00000000000E+00 -0.45593999997E+02  0.45594000000E+02  0.51100000000E-03 0. -1.
    9900012    2    1    2    0    0 -0.96299825399E+00 -0.25374140486E+00  0.63341129975E+00  0.90007762646E+02  0.90000024313E+02 0.  0.
         12    1    1    2    0    0  0.96299825399E+00  0.25374140486E+00 -0.63341129975E+00  0.11802373543E+01  0.00000000000E+00 0. -1.
         11    1    3    3    0    0  0.74708604046E+01  0.18078056651E+02 -0.32847006020E+02  0.38230298092E+02  0.51100000000E-03 0. -1.
        -11    1    3    3    0    0  0.40288915389E+01  0.79363868635E+01  0.24013211868E+01  0.92187063725E+01  0.51100000000E-03 0.  1.
        -12    1    3    3    0    0 -0.12462750197E+02 -0.26268184920E+02  0.31079096133E+02  0.42558758181E+02  0.00000000000E+00 0.  1.
</event>
<event>
 7    1  0.1999542E-015  0.9000741E+02  0.7816164E-02  0.1186340E+00
        -11   -1    0    0    0    0  0.00000000000E+00  0.00000000000E+00  0.45593999997E+02  0.45594000000E+02  0.51100000000E-03 0. -1.
         11   -1    0    0    0    0 -0.00000000000E+00 -0.00000000000E+00 -0.45593999997E+02  0.45594000000E+02  0.51100000000E-03 0.  1.
    9900012    2    1    2    0    0  0.26188872151E+00  0.87875390423E-01 -0.11478137094E+01  0.90007413663E+02  0.89999670723E+02 0.  0.
         12    1    1    2    0    0 -0.26188872151E+00 -0.87875390423E-01  0.11478137094E+01  0.11805863366E+01  0.00000000000E+00 0. -1.
         11    1    3    3    0    0  0.22660341789E+02 -0.19417802643E+02 -0.22310770052E+02  0.37260067231E+02  0.51100000000E-03 0. -1.
        -11    1    3    3    0    0  0.73866721611E+01 -0.55090371753E+01  0.21933609724E+01  0.94722356828E+01  0.51100000000E-03 0.  1.
        -12    1    3    3    0    0 -0.29785125229E+02  0.25014715209E+02  0.18969595370E+02  0.43275110750E+02  0.00000000000E+00 0.  1.
</event>
<event>
 7    1  0.1999542E-015  0.9000719E+02  0.7816164E-02  0.1186340E+00
        -11   -1    0    0    0    0  0.00000000000E+00  0.00000000000E+00  0.45593999997E+02  0.45594000000E+02  0.51100000000E-03 0.  1.
         11   -1    0    0    0    0 -0.00000000000E+00 -0.00000000000E+00 -0.45593999997E+02  0.45594000000E+02  0.51100000000E-03 0. -1.
    9900012    2    1    2    0    0  0.75757279810E+00 -0.88474123737E+00  0.19395892210E+00  0.90007193638E+02  0.89999447792E+02 0.  0.
         12    1    1    2    0    0 -0.75757279810E+00  0.88474123737E+00 -0.19395892210E+00  0.11808063622E+01  0.00000000000E+00 0. -1.
         11    1    3    3    0    0  0.61419381821E+00  0.70226578780E+01 -0.71199003338E+01  0.10019378161E+02  0.51100000000E-03 0. -1.
        -11    1    3    3    0    0 -0.29574201792E+02  0.60054302921E+01  0.28026110356E+02  0.41184480895E+02  0.51100000000E-03 0.  1.
         12    1    3    3    0    0  0.29717580772E+02 -0.13912829407E+02 -0.20712251100E+02  0.38803334582E+02  0.00000000000E+00 0. -1.
</event>
<event>
 7    1  0.1999542E-015  0.9000771E+02  0.7816164E-02  0.1186339E+00
        -11   -1    0    0    0    0  0.00000000000E+00  0.00000000000E+00  0.45593999997E+02  0.45594000000E+02  0.51100000000E-03 0.  1.
         11   -1    0    0    0    0 -0.00000000000E+00 -0.00000000000E+00 -0.45593999997E+02  0.45594000000E+02  0.51100000000E-03 0. -1.
    9900012    2    1    2    0    0  0.98266921924E+00  0.32134674387E+00  0.56937237505E+00  0.90007708754E+02  0.89999969709E+02 0.  0.
         12    1    1    2    0    0 -0.98266921924E+00 -0.32134674387E+00 -0.56937237505E+00  0.11802912461E+01  0.00000000000E+00 0. -1.
         11    1    3    3    0    0  0.54439598851E+01  0.36552518461E+02  0.11714197773E+02  0.38767844082E+02  0.51100000000E-03 0. -1.
        -11    1    3    3    0    0 -0.31219939035E+01  0.16564930011E+01  0.80167486756E+01  0.87612256326E+01  0.51100000000E-03 0.  1.
        -12    1    3    3    0    0 -0.13392967623E+01 -0.37887664718E+02 -0.19161574074E+02  0.42478639039E+02  0.00000000000E+00 0.  1.
</event>
<event>
 7    1  0.1999542E-015  0.9000767E+02  0.7816164E-02  0.1186339E+00
        -11   -1    0    0    0    0  0.00000000000E+00  0.00000000000E+00  0.45593999997E+02  0.45594000000E+02  0.51100000000E-03 0.  1.
         11   -1    0    0    0    0 -0.00000000000E+00 -0.00000000000E+00 -0.45593999997E+02  0.45594000000E+02  0.51100000000E-03 0. -1.
    9900012    2    1    2    0    0  0.34822718020E-01  0.11661965161E+01 -0.17878388302E+00  0.90007665042E+02  0.89999925421E+02 0.  0.
         12    1    1    2    0    0 -0.34822718020E-01 -0.11661965161E+01  0.17878388302E+00  0.11803349579E+01  0.00000000000E+00 0. -1.
         11    1    3    3    0    0  0.66583771289E+01  0.54309771582E+00 -0.72307570319E+01  0.98444293200E+01  0.51100000000E-03 0. -1.
        -11    1    3    3    0    0 -0.34734008829E+02 -0.16877470248E+02 -0.13826132389E+02  0.41017829153E+02  0.51100000000E-03 0.  1.
         12    1    3    3    0    0  0.28110454418E+02  0.17500569048E+02  0.20878105538E+02  0.39145406569E+02  0.00000000000E+00 0. -1.
</event>
<event>
 7    1  0.1999542E-015  0.9000776E+02  0.7816164E-02  0.1186339E+00
        -11   -1    0    0    0    0  0.00000000000E+00  0.00000000000E+00  0.45593999997E+02  0.45594000000E+02  0.51100000000E-03 0.  1.
         11   -1    0    0    0    0 -0.00000000000E+00 -0.00000000000E+00 -0.45593999997E+02  0.45594000000E+02  0.51100000000E-03 0. -1.
    9900012    2    1    2    0    0 -0.77146924662E+00  0.86745361048E+00  0.21287915492E+00  0.90007763541E+02  0.90000025220E+02 0.  0.
         12    1    1    2    0    0  0.77146924662E+00 -0.86745361048E+00 -0.21287915492E+00  0.11802364591E+01  0.00000000000E+00 0. -1.
         11    1    3    3    0    0  0.51596432794E+01 -0.59330070754E+01  0.28853668503E+01  0.83754303680E+01  0.51100000000E-03 0. -1.
        -11    1    3    3    0    0  0.34300448903E+02 -0.35777581382E+00  0.14584974239E+02  0.37274257502E+02  0.51100000000E-03 0.  1.
         12    1    3    3    0    0 -0.40231561429E+02  0.71582364997E+01 -0.17257461934E+02  0.44358075671E+02  0.00000000000E+00 0. -1.
</event>
<event>
 7    1  0.1999542E-015  0.9000768E+02  0.7816164E-02  0.1186339E+00
        -11   -1    0    0    0    0  0.00000000000E+00  0.00000000000E+00  0.45593999997E+02  0.45594000000E+02  0.51100000000E-03 0.  1.
         11   -1    0    0    0    0 -0.00000000000E+00 -0.00000000000E+00 -0.45593999997E+02  0.45594000000E+02  0.51100000000E-03 0. -1.
    9900012    2    1    2    0    0 -0.33202610659E+00 -0.79953001019E+00  0.80229034541E+00  0.90007678276E+02  0.89999938830E+02 0.  0.
         12    1    1    2    0    0  0.33202610659E+00  0.79953001019E+00 -0.80229034541E+00  0.11803217235E+01  0.00000000000E+00 0. -1.
         11    1    3    3    0    0 -0.16507825603E+01 -0.67524891891E+01  0.65165196538E+01  0.95281804124E+01  0.51100000000E-03 0. -1.
        -11    1    3    3    0    0  0.36796798938E+02 -0.71512344905E+01  0.11093262924E+02  0.39092263293E+02  0.51100000000E-03 0.  1.
         12    1    3    3    0    0 -0.35478042485E+02  0.13104193669E+02 -0.16807492232E+02  0.41387234571E+02  0.00000000000E+00 0. -1.
</event>
<event>
 7    1  0.1999542E-015  0.9000771E+02  0.7816164E-02  0.1186339E+00
        -11   -1    0    0    0    0  0.00000000000E+00  0.00000000000E+00  0.45593999997E+02  0.45594000000E+02  0.51100000000E-03 0.  1.
         11   -1    0    0    0    0 -0.00000000000E+00 -0.00000000000E+00 -0.45593999997E+02  0.45594000000E+02  0.51100000000E-03 0. -1.
    9900012    2    1    2    0    0  0.27650479189E+00  0.87281340283E+00  0.74486169567E+00  0.90007713136E+02  0.89999974149E+02 0.  0.
         12    1    1    2    0    0 -0.27650479189E+00 -0.87281340283E+00 -0.74486169567E+00  0.11802868642E+01  0.00000000000E+00 0. -1.
         11    1    3    3    0    0 -0.64512355333E+01 -0.59510663912E+01  0.10448397567E+01  0.88388529503E+01  0.51100000000E-03 0. -1.
        -11    1    3    3    0    0 -0.30640917456E+02  0.13121387649E+02  0.19287586281E+02  0.38510357324E+02  0.51100000000E-03 0.  1.
         12    1    3    3    0    0  0.37368657781E+02 -0.62975078553E+01 -0.19587564342E+02  0.42658502862E+02  0.00000000000E+00 0. -1.
</event>
<event>
 7    1  0.1999542E-015  0.9000781E+02  0.7816164E-02  0.1186339E+00
        -11   -1    0    0    0    0  0.00000000000E+00  0.00000000000E+00  0.45593999997E+02  0.45594000000E+02  0.51100000000E-03 0.  1.
         11   -1    0    0    0    0 -0.00000000000E+00 -0.00000000000E+00 -0.45593999997E+02  0.45594000000E+02  0.51100000000E-03 0. -1.
    9900012    2    1    2    0    0  0.81510648212E+00  0.84464370598E+00  0.12262054244E+00  0.90007806217E+02  0.90000068459E+02 0.  0.
         12    1    1    2    0    0 -0.81510648212E+00 -0.84464370598E+00 -0.12262054244E+00  0.11801937827E+01  0.00000000000E+00 0. -1.
         11    1    3    3    0    0  0.69489795793E+01 -0.64153108931E+01 -0.35652099225E+02  0.36885182804E+02  0.51100000000E-03 0. -1.
        -11    1    3    3    0    0  0.10548539916E+02  0.15602486225E+00 -0.24367091417E+01  0.10827446136E+02  0.51100000000E-03 0.  1.
        -12    1    3    3    0    0 -0.16682413013E+02  0.71039297368E+01  0.38211428909E+02  0.42295177278E+02  0.00000000000E+00 0.  1.
</event>
<event>
 7    1  0.1999542E-015  0.9000776E+02  0.7816164E-02  0.1186339E+00
        -11   -1    0    0    0    0  0.00000000000E+00  0.00000000000E+00  0.45593999997E+02  0.45594000000E+02  0.51100000000E-03 0.  1.
         11   -1    0    0    0    0 -0.00000000000E+00 -0.00000000000E+00 -0.45593999997E+02  0.45594000000E+02  0.51100000000E-03 0. -1.
    9900012    2    1    2    0    0  0.39393871943E+00 -0.10611105622E+01  0.33440917733E+00  0.90007757297E+02  0.90000018893E+02 0.  0.
         12    1    1    2    0    0 -0.39393871943E+00  0.10611105622E+01 -0.33440917733E+00  0.11802427029E+01  0.00000000000E+00 0. -1.
         11    1    3    3    0    0  0.26617002349E+02 -0.10602291277E+02 -0.39631178557E+01  0.28923687485E+02  0.51100000000E-03 0. -1.
        -11    1    3    3    0    0  0.11153937918E+02 -0.12625492705E+02  0.51615636743E+01  0.17619737142E+02  0.51100000000E-03 0.  1.
        -12    1    3    3    0    0 -0.37377001547E+02  0.22166673420E+02 -0.86403664120E+00  0.43464332670E+02  0.00000000000E+00 0.  1.
</event>
<event>
 7    1  0.1999542E-015  0.9000844E+02  0.7816164E-02  0.1186338E+00
        -11   -1    0    0    0    0  0.00000000000E+00  0.00000000000E+00  0.45593999997E+02  0.45594000000E+02  0.51100000000E-03 0. -1.
         11   -1    0    0    0    0 -0.00000000000E+00 -0.00000000000E+00 -0.45593999997E+02  0.45594000000E+02  0.51100000000E-03 0.  1.
    9900012    2    1    2    0    0 -0.21202718133E+00 -0.73295976338E+00 -0.89954607634E+00  0.90008437079E+02  0.90000707646E+02 0.  0.
         12    1    1    2    0    0  0.21202718133E+00  0.73295976338E+00  0.89954607634E+00  0.11795629207E+01  0.00000000000E+00 0. -1.
         11    1    3    3    0    0  0.69160930077E+01 -0.19985641460E+02 -0.14837797617E+02  0.25834443006E+02  0.51100000000E-03 0. -1.
        -11    1    3    3    0    0 -0.19154625832E+02  0.22478826028E+02 -0.14668208108E+02  0.32975045712E+02  0.51100000000E-03 0.  1.
        -12    1    3    3    0    0  0.12026505643E+02 -0.32261443310E+01  0.28606459649E+02  0.31198948361E+02  0.00000000000E+00 0.  1.
</event>
<event>
 7    1  0.1999542E-015  0.9000764E+02  0.7816164E-02  0.1186339E+00
        -11   -1    0    0    0    0  0.00000000000E+00  0.00000000000E+00  0.45593999997E+02  0.45594000000E+02  0.51100000000E-03 0. -1.
         11   -1    0    0    0    0 -0.00000000000E+00 -0.00000000000E+00 -0.45593999997E+02  0.45594000000E+02  0.51100000000E-03 0.  1.
    9900012    2    1    2    0    0 -0.46774675613E+00 -0.10437587488E+01 -0.29158944604E+00  0.90007642529E+02  0.89999902611E+02 0.  0.
         12    1    1    2    0    0  0.46774675613E+00  0.10437587488E+01  0.29158944604E+00  0.11803574707E+01  0.00000000000E+00 0. -1.
         11    1    3    3    0    0  0.32143465485E+01  0.78871602068E+01 -0.63147123845E+01  0.10602589902E+02  0.51100000000E-03 0. -1.
        -11    1    3    3    0    0  0.21263147917E+02 -0.96212500206E+01 -0.28481319118E+02  0.36822214087E+02  0.51100000000E-03 0.  1.
         12    1    3    3    0    0 -0.24945241221E+02  0.69033106500E+00  0.34504442057E+02  0.42582838541E+02  0.00000000000E+00 0. -1.
</event>
<event>
 7    1  0.1999542E-015  0.9000765E+02  0.7816164E-02  0.1186339E+00
        -11   -1    0    0    0    0  0.00000000000E+00  0.00000000000E+00  0.45593999997E+02  0.45594000000E+02  0.51100000000E-03 0.  1.
         11   -1    0    0    0    0 -0.00000000000E+00 -0.00000000000E+00 -0.45593999997E+02  0.45594000000E+02  0.51100000000E-03 0. -1.
    9900012    2    1    2    0    0  0.45125678723E+00 -0.10771972638E+01 -0.17097825189E+00  0.90007652511E+02  0.89999912724E+02 0.  0.
         12    1    1    2    0    0 -0.45125678723E+00  0.10771972638E+01  0.17097825189E+00  0.11803474894E+01  0.00000000000E+00 0. -1.
         11    1    3    3    0    0 -0.11143366197E+02  0.40349510301E+01 -0.52933123168E+01  0.12979776406E+02  0.51100000000E-03 0. -1.
        -11    1    3    3    0    0 -0.28202450880E+01  0.34459597702E+02  0.48365078056E+01  0.34911451762E+02  0.51100000000E-03 0.  1.
         12    1    3    3    0    0  0.14414868072E+02 -0.39571745996E+02  0.28582625932E+00  0.42116424342E+02  0.00000000000E+00 0. -1.
</event>
<event>
 7    1  0.1999542E-015  0.9000776E+02  0.7816164E-02  0.1186339E+00
        -11   -1    0    0    0    0  0.00000000000E+00  0.00000000000E+00  0.45593999997E+02  0.45594000000E+02  0.51100000000E-03 0.  1.
         11   -1    0    0    0    0 -0.00000000000E+00 -0.00000000000E+00 -0.45593999997E+02  0.45594000000E+02  0.51100000000E-03 0. -1.
    9900012    2    1    2    0    0  0.11026066924E+01 -0.71200494011E-01  0.41492987626E+00  0.90007755182E+02  0.90000016750E+02 0.  0.
         12    1    1    2    0    0 -0.11026066924E+01  0.71200494011E-01 -0.41492987626E+00  0.11802448182E+01  0.00000000000E+00 0. -1.
         11    1    3    3    0    0  0.32194983706E+02 -0.80063625883E+01 -0.29614349211E+02  0.44470535157E+02  0.51100000000E-03 0. -1.
        -11    1    3    3    0    0 -0.34247881955E+01 -0.98555011002E+00  0.89366176966E+01  0.96209988733E+01  0.51100000000E-03 0.  1.
        -12    1    3    3    0    0 -0.27667588818E+02  0.89207122043E+01  0.21092661391E+02  0.35916221151E+02  0.00000000000E+00 0.  1.
</event>
<event>
 7    1  0.1999542E-015  0.9000823E+02  0.7816164E-02  0.1186338E+00
        -11   -1    0    0    0    0  0.00000000000E+00  0.00000000000E+00  0.45593999997E+02  0.45594000000E+02  0.51100000000E-03 0.  1.
         11   -1    0    0    0    0 -0.00000000000E+00 -0.00000000000E+00 -0.45593999997E+02  0.45594000000E+02  0.51100000000E-03 0. -1.
    9900012    2    1    2    0    0 -0.66643904250E-01  0.59678277619E+00  0.10155084755E+01  0.90008233686E+02  0.90000501569E+02 0.  0.
         12    1    1    2    0    0  0.66643904250E-01 -0.59678277619E+00 -0.10155084755E+01  0.11797663140E+01  0.00000000000E+00 0. -1.
         11    1    3    3    0    0 -0.20633590215E+02 -0.13940572541E+02 -0.25882795442E+02  0.35916621613E+02  0.51100000000E-03 0. -1.
        -11    1    3    3    0    0  0.16242401705E+01 -0.92151165193E+01 -0.45157213241E+01  0.10389815587E+02  0.51100000000E-03 0.  1.
        -12    1    3    3    0    0  0.18942706140E+02  0.23752471836E+02  0.31414025241E+02  0.43701796486E+02  0.00000000000E+00 0.  1.
</event>
<event>
 7    1  0.1999542E-015  0.9000780E+02  0.7816164E-02  0.1186339E+00
        -11   -1    0    0    0    0  0.00000000000E+00  0.00000000000E+00  0.45593999997E+02  0.45594000000E+02  0.51100000000E-03 0. -1.
         11   -1    0    0    0    0 -0.00000000000E+00 -0.00000000000E+00 -0.45593999997E+02  0.45594000000E+02  0.51100000000E-03 0.  1.
    9900012    2    1    2    0    0 -0.52189811025E-01 -0.90741123218E+00 -0.75283488942E+00  0.90007796928E+02  0.90000059047E+02 0.  0.
         12    1    1    2    0    0  0.52189811025E-01  0.90741123218E+00  0.75283488942E+00  0.11802030721E+01  0.00000000000E+00 0. -1.
         11    1    3    3    0    0 -0.36475275856E+02  0.41754356142E+01  0.20671495124E+02  0.42133012262E+02  0.51100000000E-03 0. -1.
        -11    1    3    3    0    0  0.51552392740E+01  0.74092174327E+01 -0.31207725008E+01  0.95505086881E+01  0.51100000000E-03 0.  1.
        -12    1    3    3    0    0  0.31267846771E+02 -0.12492064279E+02 -0.18303557513E+02  0.38324275978E+02  0.00000000000E+00 0.  1.
</event>
<event>
 7    1  0.1999542E-015  0.9000793E+02  0.7816164E-02  0.1186339E+00
        -11   -1    0    0    0    0  0.00000000000E+00  0.00000000000E+00  0.45593999997E+02  0.45594000000E+02  0.51100000000E-03 0.  1.
         11   -1    0    0    0    0 -0.00000000000E+00 -0.00000000000E+00 -0.45593999997E+02  0.45594000000E+02  0.51100000000E-03 0. -1.
    9900012    2    1    2    0    0  0.34430228484E+00  0.11199924308E+01  0.14015588813E+00  0.90007927637E+02  0.90000191482E+02 0.  0.
         12    1    1    2    0    0 -0.34430228484E+00 -0.11199924308E+01 -0.14015588813E+00  0.11800723628E+01  0.00000000000E+00 0. -1.
         11    1    3    3    0    0 -0.20143719634E+01 -0.85827724318E+00 -0.88677568970E+01  0.91340816111E+01  0.51100000000E-03 0. -1.
        -11    1    3    3    0    0 -0.23472905981E+02  0.25721249533E+02 -0.15459601157E+02  0.38099334127E+02  0.51100000000E-03 0.  1.
         12    1    3    3    0    0  0.25831580229E+02 -0.23742979859E+02  0.24467513942E+02  0.42774511899E+02  0.00000000000E+00 0. -1.
</event>
<event>
 7    1  0.1999542E-015  0.9000782E+02  0.7816164E-02  0.1186339E+00
        -11   -1    0    0    0    0  0.00000000000E+00  0.00000000000E+00  0.45593999997E+02  0.45594000000E+02  0.51100000000E-03 0. -1.
         11   -1    0    0    0    0 -0.00000000000E+00 -0.00000000000E+00 -0.45593999997E+02  0.45594000000E+02  0.51100000000E-03 0.  1.
    9900012    2    1    2    0    0 -0.89552913962E+00  0.60433789021E+00 -0.47501303115E+00  0.90007816071E+02  0.90000078444E+02 0.  0.
         12    1    1    2    0    0  0.89552913962E+00 -0.60433789021E+00  0.47501303115E+00  0.11801839286E+01  0.00000000000E+00 0. -1.
         11    1    3    3    0    0  0.14551562142E+02 -0.28599999208E+02 -0.15125315713E+02  0.35475105231E+02  0.51100000000E-03 0. -1.
        -11    1    3    3    0    0 -0.54755081052E+01 -0.82302629760E+01 -0.50179410434E+01  0.11085943814E+02  0.51100000000E-03 0.  1.
        -12    1    3    3    0    0 -0.99715831766E+01  0.37434600075E+02  0.19668243726E+02  0.43446767026E+02  0.00000000000E+00 0.  1.
</event>
<event>
 7    1  0.1999542E-015  0.9000770E+02  0.7816164E-02  0.1186339E+00
        -11   -1    0    0    0    0  0.00000000000E+00  0.00000000000E+00  0.45593999997E+02  0.45594000000E+02  0.51100000000E-03 0. -1.
         11   -1    0    0    0    0 -0.00000000000E+00 -0.00000000000E+00 -0.45593999997E+02  0.45594000000E+02  0.51100000000E-03 0.  1.
    9900012    2    1    2    0    0  0.12116522006E+00 -0.10301911307E+01 -0.56314789128E+00  0.90007699054E+02  0.89999959881E+02 0.  0.
         12    1    1    2    0    0 -0.12116522006E+00  0.10301911307E+01  0.56314789128E+00  0.11803009463E+01  0.00000000000E+00 0. -1.
         11    1    3    3    0    0  0.78874063486E+01 -0.94987661678E+01  0.38625055687E+02  0.40550371943E+02  0.51100000000E-03 0. -1.
        -11    1    3    3    0    0  0.40903900134E+01 -0.59590804508E+01 -0.14793376710E+01  0.73776941172E+01  0.51100000000E-03 0.  1.
        -12    1    3    3    0    0 -0.11856631142E+02  0.14427655488E+02 -0.37708865907E+02  0.42079632994E+02  0.00000000000E+00 0.  1.
</event>
<event>
 7    1  0.1999542E-015  0.9000739E+02  0.7816164E-02  0.1186340E+00
        -11   -1    0    0    0    0  0.00000000000E+00  0.00000000000E+00  0.45593999997E+02  0.45594000000E+02  0.51100000000E-03 0.  1.
         11   -1    0    0    0    0 -0.00000000000E+00 -0.00000000000E+00 -0.45593999997E+02  0.45594000000E+02  0.51100000000E-03 0. -1.
    9900012    2    1    2    0    0 -0.51499435523E+00 -0.21756151727E+00  0.10398456531E+01  0.90007393723E+02  0.89999650519E+02 0.  0.
         12    1    1    2    0    0  0.51499435523E+00  0.21756151727E+00 -0.10398456531E+01  0.11806062773E+01  0.00000000000E+00 0. -1.
         11    1    3    3    0    0 -0.10632634258E+02  0.13866560159E+01  0.11584629576E+00  0.10723299250E+02  0.51100000000E-03 0. -1.
        -11    1    3    3    0    0  0.21183078674E+02 -0.22265088118E+02  0.29313183243E+02  0.42470221134E+02  0.51100000000E-03 0.  1.
         12    1    3    3    0    0 -0.11065438772E+02  0.20660870585E+02 -0.28389183886E+02  0.36813873339E+02  0.00000000000E+00 0. -1.
</event>
<event>
 7    1  0.1999542E-015  0.9000771E+02  0.7816164E-02  0.1186339E+00
        -11   -1    0    0    0    0  0.00000000000E+00  0.00000000000E+00  0.45593999997E+02  0.45594000000E+02  0.51100000000E-03 0.  1.
         11   -1    0    0    0    0 -0.00000000000E+00 -0.00000000000E+00 -0.45593999997E+02  0.45594000000E+02  0.51100000000E-03 0. -1.
    9900012    2    1    2    0    0 -0.93792929299E+00 -0.61660321935E+00  0.36491776575E+00  0.90007713651E+02  0.89999974672E+02 0.  0.
         12    1    1    2    0    0  0.93792929299E+00  0.61660321935E+00 -0.36491776575E+00  0.11802863485E+01  0.00000000000E+00 0. -1.
         11    1    3    3    0    0 -0.27399032242E+00  0.62512080150E+00  0.92980138596E+01  0.93230310902E+01  0.51100000000E-03 0. -1.
        -11    1    3    3    0    0 -0.85395497245E+01 -0.19908476675E+02  0.29877338061E+02  0.36904290847E+02  0.51100000000E-03 0.  1.
         12    1    3    3    0    0  0.78756107539E+01  0.18666752654E+02 -0.38810434155E+02  0.43780391715E+02  0.00000000000E+00 0. -1.
</event>
<event>
 7    1  0.1999542E-015  0.9000699E+02  0.7816164E-02  0.1186341E+00
        -11   -1    0    0    0    0  0.00000000000E+00  0.00000000000E+00  0.45593999997E+02  0.45594000000E+02  0.51100000000E-03 0.  1.
         11   -1    0    0    0    0 -0.00000000000E+00 -0.00000000000E+00 -0.45593999997E+02  0.45594000000E+02  0.51100000000E-03 0. -1.
    9900012    2    1    2    0    0  0.11403387324E+01 -0.26092972542E+00 -0.16223917113E+00  0.90006992678E+02  0.89999244178E+02 0.  0.
         12    1    1    2    0    0 -0.11403387324E+01  0.26092972542E+00  0.16223917113E+00  0.11810073221E+01  0.00000000000E+00 0. -1.
         11    1    3    3    0    0  0.21361978487E+02 -0.14880877675E+02 -0.25173800691E+02  0.36214567328E+02  0.51100000000E-03 0. -1.
        -11    1    3    3    0    0  0.24346455982E+01 -0.92104366539E+01 -0.36210327165E+01  0.10191737867E+02  0.51100000000E-03 0.  1.
        -12    1    3    3    0    0 -0.22656285353E+02  0.23830384603E+02  0.28632594237E+02  0.43600687484E+02  0.00000000000E+00 0.  1.
</event>
<event>
 7    1  0.1999542E-015  0.9000774E+02  0.7816164E-02  0.1186339E+00
        -11   -1    0    0    0    0  0.00000000000E+00  0.00000000000E+00  0.45593999997E+02  0.45594000000E+02  0.51100000000E-03 0.  1.
         11   -1    0    0    0    0 -0.00000000000E+00 -0.00000000000E+00 -0.45593999997E+02  0.45594000000E+02  0.51100000000E-03 0. -1.
    9900012    2    1    2    0    0 -0.96233484506E+00 -0.19165457692E+00  0.65589342322E+00  0.90007739006E+02  0.90000000361E+02 0.  0.
         12    1    1    2    0    0  0.96233484506E+00  0.19165457692E+00 -0.65589342322E+00  0.11802609938E+01  0.00000000000E+00 0. -1.
         11    1    3    3    0    0 -0.11226701879E+02  0.34749296665E+01 -0.56684219784E+01  0.13047795954E+02  0.51100000000E-03 0. -1.
        -11    1    3    3    0    0  0.17133966364E+02 -0.26272280975E+02  0.30078165675E+02  0.43456893602E+02  0.51100000000E-03 0.  1.
         12    1    3    3    0    0 -0.68695993298E+01  0.22605696731E+02 -0.23753850273E+02  0.33503049450E+02  0.00000000000E+00 0. -1.
</event>
<event>
 7    1  0.1999542E-015  0.9000776E+02  0.7816164E-02  0.1186339E+00
        -11   -1    0    0    0    0  0.00000000000E+00  0.00000000000E+00  0.45593999997E+02  0.45594000000E+02  0.51100000000E-03 0.  1.
         11   -1    0    0    0    0 -0.00000000000E+00 -0.00000000000E+00 -0.45593999997E+02  0.45594000000E+02  0.51100000000E-03 0. -1.
    9900012    2    1    2    0    0  0.85501008414E+00 -0.79944688865E+00 -0.15100918428E+00  0.90007762166E+02  0.90000023826E+02 0.  0.
         12    1    1    2    0    0 -0.85501008414E+00  0.79944688865E+00  0.15100918428E+00  0.11802378343E+01  0.00000000000E+00 0. -1.
         11    1    3    3    0    0 -0.95346301941E+01 -0.22964302676E+01  0.11516955190E+01  0.98746730448E+01  0.51100000000E-03 0. -1.
        -11    1    3    3    0    0  0.52439579253E+01  0.36566352182E+02  0.16512358703E+02  0.40463010229E+02  0.51100000000E-03 0.  1.
         12    1    3    3    0    0  0.51456823529E+01 -0.35069368803E+02 -0.17815063406E+02  0.39670078892E+02  0.00000000000E+00 0. -1.
</event>
<event>
 7    1  0.1999542E-015  0.9000788E+02  0.7816164E-02  0.1186339E+00
        -11   -1    0    0    0    0  0.00000000000E+00  0.00000000000E+00  0.45593999997E+02  0.45594000000E+02  0.51100000000E-03 0.  1.
         11   -1    0    0    0    0 -0.00000000000E+00 -0.00000000000E+00 -0.45593999997E+02  0.45594000000E+02  0.51100000000E-03 0. -1.
    9900012    2    1    2    0    0  0.11469388940E+01 -0.17103891785E+00  0.21897448144E+00  0.90007884344E+02  0.90000147617E+02 0.  0.
         12    1    1    2    0    0 -0.11469388940E+01  0.17103891785E+00 -0.21897448144E+00  0.11801156559E+01  0.00000000000E+00 0. -1.
         11    1    3    3    0    0 -0.18843985455E+02 -0.20220648717E+02  0.23639972529E+02  0.36370574972E+02  0.51100000000E-03 0. -1.
        -11    1    3    3    0    0 -0.29435160575E+01  0.39823988778E+01  0.93204078569E+01  0.10554325676E+02  0.51100000000E-03 0.  1.
        -12    1    3    3    0    0  0.22934440407E+02  0.16067210921E+02 -0.32741405904E+02  0.43082983696E+02  0.00000000000E+00 0.  1.
</event>
<event>
 7    1  0.1999542E-015  0.9000776E+02  0.7816164E-02  0.1186339E+00
        -11   -1    0    0    0    0  0.00000000000E+00  0.00000000000E+00  0.45593999997E+02  0.45594000000E+02  0.51100000000E-03 0.  1.
         11   -1    0    0    0    0 -0.00000000000E+00 -0.00000000000E+00 -0.45593999997E+02  0.45594000000E+02  0.51100000000E-03 0. -1.
    9900012    2    1    2    0    0  0.11589786850E+01 -0.11576017473E+00  0.19063668831E+00  0.90007756653E+02  0.90000018241E+02 0.  0.
         12    1    1    2    0    0 -0.11589786850E+01  0.11576017473E+00 -0.19063668831E+00  0.11802433466E+01  0.00000000000E+00 0. -1.
         11    1    3    3    0    0  0.20791922966E+01  0.23092100696E+00  0.17139146927E+02  0.17266346538E+02  0.51100000000E-03 0. -1.
        -11    1    3    3    0    0 -0.52627386160E+01  0.29014006329E+02  0.11479604704E+02  0.31643171545E+02  0.51100000000E-03 0.  1.
         12    1    3    3    0    0  0.43425250044E+01 -0.29360687510E+02 -0.28428114942E+02  0.41098238571E+02  0.00000000000E+00 0. -1.
</event>
<event>
 7    1  0.1999542E-015  0.9000775E+02  0.7816164E-02  0.1186339E+00
        -11   -1    0    0    0    0  0.00000000000E+00  0.00000000000E+00  0.45593999997E+02  0.45594000000E+02  0.51100000000E-03 0. -1.
         11   -1    0    0    0    0 -0.00000000000E+00 -0.00000000000E+00 -0.45593999997E+02  0.45594000000E+02  0.51100000000E-03 0.  1.
    9900012    2    1    2    0    0  0.81772783999E+00  0.52043263716E-01 -0.84946718829E+00  0.90007753489E+02  0.90000015036E+02 0.  0.
         12    1    1    2    0    0 -0.81772783999E+00 -0.52043263717E-01  0.84946718829E+00  0.11802465105E+01  0.00000000000E+00 0. -1.
         11    1    3    3    0    0 -0.24334178091E+02 -0.33562289858E+02  0.64890411556E+01  0.41960543123E+02  0.51100000000E-03 0. -1.
        -11    1    3    3    0    0 -0.26476647367E+01  0.67914477061E+01 -0.59211047735E+01  0.93911326528E+01  0.51100000000E-03 0.  1.
        -12    1    3    3    0    0  0.27799570667E+02  0.26822885415E+02 -0.14174035704E+01  0.38656077713E+02  0.00000000000E+00 0.  1.
</event>
<event>
 7    1  0.1999542E-015  0.9000683E+02  0.7816164E-02  0.1186341E+00
        -11   -1    0    0    0    0  0.00000000000E+00  0.00000000000E+00  0.45593999997E+02  0.45594000000E+02  0.51100000000E-03 0. -1.
         11   -1    0    0    0    0 -0.00000000000E+00 -0.00000000000E+00 -0.45593999997E+02  0.45594000000E+02  0.51100000000E-03 0.  1.
    9900012    2    1    2    0    0  0.35311537611E+00  0.76803383887E-01 -0.11245292348E+01  0.90006833107E+02  0.89999082500E+02 0.  0.
         12    1    1    2    0    0 -0.35311537611E+00 -0.76803383887E-01  0.11245292348E+01  0.11811668927E+01  0.00000000000E+00 0. -1.
         11    1    3    3    0    0  0.42382271689E+01  0.73002689177E+01  0.13165111375E+02  0.15638946690E+02  0.51100000000E-03 0. -1.
        -11    1    3    3    0    0  0.67341370601E+01  0.24460031341E+02 -0.28411974404E+02  0.38090445324E+02  0.51100000000E-03 0.  1.
         12    1    3    3    0    0 -0.10619248853E+02 -0.31683496875E+02  0.14122333795E+02  0.36277441093E+02  0.00000000000E+00 0. -1.
</event>
<event>
 7    1  0.1999542E-015  0.9000776E+02  0.7816164E-02  0.1186339E+00
        -11   -1    0    0    0    0  0.00000000000E+00  0.00000000000E+00  0.45593999997E+02  0.45594000000E+02  0.51100000000E-03 0.  1.
         11   -1    0    0    0    0 -0.00000000000E+00 -0.00000000000E+00 -0.45593999997E+02  0.45594000000E+02  0.51100000000E-03 0. -1.
    9900012    2    1    2    0    0  0.45670332931E+00  0.60092246989E+00  0.90734615876E+00  0.90007761551E+02  0.90000023203E+02 0.  0.
         12    1    1    2    0    0 -0.45670332931E+00 -0.60092246989E+00 -0.90734615876E+00  0.11802384495E+01  0.00000000000E+00 0. -1.
         11    1    3    3    0    0 -0.10202051441E+01 -0.21233821978E+01  0.11901411501E+02  0.12132319088E+02  0.51100000000E-03 0. -1.
        -11    1    3    3    0    0  0.19664503422E+02 -0.13376072375E+02  0.24965803775E+02  0.34480478033E+02  0.51100000000E-03 0.  1.
         12    1    3    3    0    0 -0.18187594949E+02  0.16100377043E+02 -0.35959869116E+02  0.43394964429E+02  0.00000000000E+00 0. -1.
</event>
<event>
 7    1  0.1999542E-015  0.9000746E+02  0.7816164E-02  0.1186340E+00
        -11   -1    0    0    0    0  0.00000000000E+00  0.00000000000E+00  0.45593999997E+02  0.45594000000E+02  0.51100000000E-03 0.  1.
         11   -1    0    0    0    0 -0.00000000000E+00 -0.00000000000E+00 -0.45593999997E+02  0.45594000000E+02  0.51100000000E-03 0. -1.
    9900012    2    1    2    0    0 -0.10824825086E+01  0.46347173883E+00 -0.84304287263E-01  0.90007457054E+02  0.89999714687E+02 0.  0.
         12    1    1    2    0    0  0.10824825086E+01 -0.46347173883E+00  0.84304287263E-01  0.11805429458E+01  0.00000000000E+00 0. -1.
         11    1    3    3    0    0 -0.93588002148E+00  0.34496579519E+01 -0.12296780483E+02  0.12805733946E+02  0.51100000000E-03 0. -1.
        -11    1    3    3    0    0  0.82477144581E+01  0.28647997716E+02 -0.16139610492E+02  0.33900141504E+02  0.51100000000E-03 0.  1.
         12    1    3    3    0    0 -0.83943169452E+01 -0.31634183929E+02  0.28352086688E+02  0.43301581604E+02  0.00000000000E+00 0. -1.
</event>
<event>
 7    1  0.1999542E-015  0.9000773E+02  0.7816164E-02  0.1186339E+00
        -11   -1    0    0    0    0  0.00000000000E+00  0.00000000000E+00  0.45593999997E+02  0.45594000000E+02  0.51100000000E-03 0.  1.
         11   -1    0    0    0    0 -0.00000000000E+00 -0.00000000000E+00 -0.45593999997E+02  0.45594000000E+02  0.51100000000E-03 0. -1.
    9900012    2    1    2    0    0  0.81246639182E+00 -0.78751170756E+00  0.33578397033E+00  0.90007734266E+02  0.89999995559E+02 0.  0.
         12    1    1    2    0    0 -0.81246639182E+00  0.78751170756E+00 -0.33578397033E+00  0.11802657337E+01  0.00000000000E+00 0. -1.
         11    1    3    3    0    0  0.70561877221E+01 -0.69194061535E+01 -0.35751865985E+01  0.10509515981E+02  0.51100000000E-03 0. -1.
        -11    1    3    3    0    0  0.20378064360E+01 -0.28296232586E+02 -0.21766735826E+02  0.35757799463E+02  0.51100000000E-03 0.  1.
         12    1    3    3    0    0 -0.82815277663E+01  0.34428127032E+02  0.25677706395E+02  0.43740418822E+02  0.00000000000E+00 0. -1.
</event>
<event>
 7    1  0.1999542E-015  0.9000778E+02  0.7816164E-02  0.1186339E+00
        -11   -1    0    0    0    0  0.00000000000E+00  0.00000000000E+00  0.45593999997E+02  0.45594000000E+02  0.51100000000E-03 0.  1.
         11   -1    0    0    0    0 -0.00000000000E+00 -0.00000000000E+00 -0.45593999997E+02  0.45594000000E+02  0.51100000000E-03 0. -1.
    9900012    2    1    2    0    0  0.10204711561E+01 -0.35793126530E+00 -0.47269247951E+00  0.90007782075E+02  0.90000043998E+02 0.  0.
         12    1    1    2    0    0 -0.10204711561E+01  0.35793126530E+00  0.47269247951E+00  0.11802179254E+01  0.00000000000E+00 0. -1.
         11    1    3    3    0    0 -0.12948872324E+02 -0.86565427432E+01 -0.35798303494E+02  0.39040076332E+02  0.51100000000E-03 0. -1.
        -11    1    3    3    0    0  0.38279104097E+00 -0.92448977932E+01  0.19275726791E-02  0.92528194711E+01  0.51100000000E-03 0.  1.
        -12    1    3    3    0    0  0.13586552439E+02  0.17543509271E+02  0.35323683442E+02  0.41714886271E+02  0.00000000000E+00 0.  1.
</event>
<event>
 7    1  0.1999542E-015  0.9000779E+02  0.7816164E-02  0.1186339E+00
        -11   -1    0    0    0    0  0.00000000000E+00  0.00000000000E+00  0.45593999997E+02  0.45594000000E+02  0.51100000000E-03 0. -1.
         11   -1    0    0    0    0 -0.00000000000E+00 -0.00000000000E+00 -0.45593999997E+02  0.45594000000E+02  0.51100000000E-03 0.  1.
    9900012    2    1    2    0    0 -0.37685604820E+00  0.99853235964E+00 -0.50378379440E+00  0.90007794312E+02  0.90000056397E+02 0.  0.
         12    1    1    2    0    0  0.37685604820E+00 -0.99853235964E+00  0.50378379440E+00  0.11802056879E+01  0.00000000000E+00 0. -1.
         11    1    3    3    0    0 -0.38818592179E+00 -0.34325788774E+02 -0.13529961027E+02  0.36898107118E+02  0.51100000000E-03 0. -1.
        -11    1    3    3    0    0 -0.76264683439E+01 -0.21861063183E+01 -0.63900467270E+01  0.10186990609E+02  0.51100000000E-03 0.  1.
        -12    1    3    3    0    0  0.76377982175E+01  0.37510427452E+02  0.19416223960E+02  0.42922696585E+02  0.00000000000E+00 0.  1.
</event>
<event>
 7    1  0.1999542E-015  0.9000778E+02  0.7816164E-02  0.1186339E+00
        -11   -1    0    0    0    0  0.00000000000E+00  0.00000000000E+00  0.45593999997E+02  0.45594000000E+02  0.51100000000E-03 0. -1.
         11   -1    0    0    0    0 -0.00000000000E+00 -0.00000000000E+00 -0.45593999997E+02  0.45594000000E+02  0.51100000000E-03 0.  1.
    9900012    2    1    2    0    0  0.11013760017E+00  0.30663971479E+00 -0.11343573633E+01  0.90007777634E+02  0.90000039499E+02 0.  0.
         12    1    1    2    0    0 -0.11013760017E+00 -0.30663971479E+00  0.11343573633E+01  0.11802223661E+01  0.00000000000E+00 0. -1.
         11    1    3    3    0    0  0.38761351969E+01 -0.77212097849E+01 -0.60240024705E+01  0.10532336428E+02  0.51100000000E-03 0. -1.
        -11    1    3    3    0    0  0.56454238773E+01 -0.34606168186E+02 -0.26709542338E+01  0.35165205588E+02  0.51100000000E-03 0.  1.
         12    1    3    3    0    0 -0.94114214740E+01  0.42634017685E+02  0.75605993410E+01  0.44310235618E+02  0.00000000000E+00 0. -1.
</event>
<event>
 7    1  0.1999542E-015  0.9000772E+02  0.7816164E-02  0.1186339E+00
        -11   -1    0    0    0    0  0.00000000000E+00  0.00000000000E+00  0.45593999997E+02  0.45594000000E+02  0.51100000000E-03 0.  1.
         11   -1    0    0    0    0 -0.00000000000E+00 -0.00000000000E+00 -0.45593999997E+02  0.45594000000E+02  0.51100000000E-03 0. -1.
    9900012    2    1    2    0    0  0.89135144479E+00 -0.63207155909E+00 -0.44614199185E+00  0.90007718453E+02  0.89999979536E+02 0.  0.
         12    1    1    2    0    0 -0.89135144479E+00  0.63207155909E+00  0.44614199185E+00  0.11802815473E+01  0.00000000000E+00 0. -1.
         11    1    3    3    0    0  0.26569715304E+01  0.14863124320E+01  0.75036976944E+01  0.80977837529E+01  0.51100000000E-03 0. -1.
        -11    1    3    3    0    0 -0.33195740946E+02  0.21949640108E+02 -0.13307161730E+02  0.41962179059E+02  0.51100000000E-03 0.  1.
         12    1    3    3    0    0  0.31430120860E+02 -0.24068024099E+02  0.53573220439E+01  0.39947755641E+02  0.00000000000E+00 0. -1.
</event>
<event>
 7    1  0.3588099E-015  0.9000783E+02  0.7816164E-02  0.1186339E+00
        -11   -1    0    0    0    0  0.00000000000E+00  0.00000000000E+00  0.45593999997E+02  0.45594000000E+02  0.51100000000E-03 0.  1.
         11   -1    0    0    0    0 -0.00000000000E+00 -0.00000000000E+00 -0.45593999997E+02  0.45594000000E+02  0.51100000000E-03 0. -1.
    9900012    2    1    2    0    0  0.31613637299E+00  0.37579551800E+00 -0.10731385368E+01  0.90007834420E+02  0.90000097034E+02 0.  0.
         12    1    1    2    0    0 -0.31613637299E+00 -0.37579551800E+00  0.10731385368E+01  0.11801655803E+01  0.00000000000E+00 0. -1.
         11    1    3    3    0    0 -0.33739209228E+02 -0.16778229185E+02  0.32828692089E+01  0.37823543520E+02  0.51100000000E-03 0. -1.
        -11    1    3    3    0    0 -0.56760537463E+01  0.27328268569E+01 -0.75061589938E+01  0.97994056893E+01  0.51100000000E-03 0.  1.
        -12    1    3    3    0    0  0.39731399347E+02  0.14421197846E+02  0.31501512481E+01  0.42384885210E+02  0.00000000000E+00 0.  1.
</event>
<event>
 7    1  0.1999542E-015  0.9000752E+02  0.7816164E-02  0.1186339E+00
        -11   -1    0    0    0    0  0.00000000000E+00  0.00000000000E+00  0.45593999997E+02  0.45594000000E+02  0.51100000000E-03 0.  1.
         11   -1    0    0    0    0 -0.00000000000E+00 -0.00000000000E+00 -0.45593999997E+02  0.45594000000E+02  0.51100000000E-03 0. -1.
    9900012    2    1    2    0    0 -0.46513163339E+00  0.93646027159E+00 -0.54792065133E+00  0.90007524538E+02  0.89999783061E+02 0.  0.
         12    1    1    2    0    0  0.46513163339E+00 -0.93646027159E+00  0.54792065133E+00  0.11804754622E+01  0.00000000000E+00 0. -1.
         11    1    3    3    0    0 -0.65371539934E+01 -0.54809906693E+01 -0.13612910559E+01  0.86387935877E+01  0.51100000000E-03 0. -1.
        -11    1    3    3    0    0 -0.24336583564E+02  0.31167674807E+02  0.10636406408E+02  0.40949070734E+02  0.51100000000E-03 0.  1.
         12    1    3    3    0    0  0.30408605924E+02 -0.24750223866E+02 -0.98230360032E+01  0.40419660216E+02  0.00000000000E+00 0. -1.
</event>
<event>
 7    1  0.1999542E-015  0.9000779E+02  0.7816164E-02  0.1186339E+00
        -11   -1    0    0    0    0  0.00000000000E+00  0.00000000000E+00  0.45593999997E+02  0.45594000000E+02  0.51100000000E-03 0.  1.
         11   -1    0    0    0    0 -0.00000000000E+00 -0.00000000000E+00 -0.45593999997E+02  0.45594000000E+02  0.51100000000E-03 0. -1.
    9900012    2    1    2    0    0 -0.99862690594E+00 -0.45442872980E+00  0.43490548979E+00  0.90007786480E+02  0.90000048462E+02 0.  0.
         12    1    1    2    0    0  0.99862690594E+00  0.45442872980E+00 -0.43490548979E+00  0.11802135200E+01  0.00000000000E+00 0. -1.
         11    1    3    3    0    0 -0.53676961145E+01 -0.28079880496E-01  0.57328519808E+01  0.78535687526E+01  0.51100000000E-03 0. -1.
        -11    1    3    3    0    0  0.22601052333E+02 -0.73535680571E+01  0.32120665580E+02  0.39957723750E+02  0.51100000000E-03 0.  1.
         12    1    3    3    0    0 -0.18231983125E+02  0.69272192078E+01 -0.37418612071E+02  0.42196493977E+02  0.00000000000E+00 0. -1.
</event>
<event>
 7    1  0.1999542E-015  0.9000797E+02  0.7816164E-02  0.1186339E+00
        -11   -1    0    0    0    0  0.00000000000E+00  0.00000000000E+00  0.45593999997E+02  0.45594000000E+02  0.51100000000E-03 0. -1.
         11   -1    0    0    0    0 -0.00000000000E+00 -0.00000000000E+00 -0.45593999997E+02  0.45594000000E+02  0.51100000000E-03 0.  1.
    9900012    2    1    2    0    0  0.37400817526E+00  0.10401641330E+01  0.41308075547E+00  0.90007974895E+02  0.90000239363E+02 0.  0.
         12    1    1    2    0    0 -0.37400817526E+00 -0.10401641330E+01 -0.41308075547E+00  0.11800251054E+01  0.00000000000E+00 0. -1.
         11    1    3    3    0    0 -0.14276376619E+01 -0.12194876249E+01 -0.89408417355E+01  0.91358606908E+01  0.51100000000E-03 0. -1.
        -11    1    3    3    0    0  0.38345164372E+02 -0.13547450340E+01 -0.95934844992E+01  0.39550245384E+02  0.51100000000E-03 0.  1.
         12    1    3    3    0    0 -0.36543518535E+02  0.36143967919E+01  0.18947406990E+02  0.41321868820E+02  0.00000000000E+00 0. -1.
</event>
<event>
 7    1  0.1999542E-015  0.9000753E+02  0.7816164E-02  0.1186339E+00
        -11   -1    0    0    0    0  0.00000000000E+00  0.00000000000E+00  0.45593999997E+02  0.45594000000E+02  0.51100000000E-03 0.  1.
         11   -1    0    0    0    0 -0.00000000000E+00 -0.00000000000E+00 -0.45593999997E+02  0.45594000000E+02  0.51100000000E-03 0. -1.
    9900012    2    1    2    0    0 -0.95093225156E+00  0.65735411186E+00 -0.23901746006E+00  0.90007527247E+02  0.89999785806E+02 0.  0.
         12    1    1    2    0    0  0.95093225156E+00 -0.65735411186E+00  0.23901746006E+00  0.11804727535E+01  0.00000000000E+00 0. -1.
         11    1    3    3    0    0 -0.82404538157E+00 -0.13971059821E+02 -0.31601779964E+02  0.34562147799E+02  0.51100000000E-03 0. -1.
        -11    1    3    3    0    0  0.25525874580E+01  0.21971846704E+01 -0.10848964379E+02  0.11359724977E+02  0.51100000000E-03 0.  1.
        -12    1    3    3    0    0 -0.26794743280E+01  0.12431229263E+02  0.42211726883E+02  0.44085654470E+02  0.00000000000E+00 0.  1.
</event>
<event>
 7    1  0.1999542E-015  0.9000760E+02  0.7816164E-02  0.1186339E+00
        -11   -1    0    0    0    0  0.00000000000E+00  0.00000000000E+00  0.45593999997E+02  0.45594000000E+02  0.51100000000E-03 0.  1.
         11   -1    0    0    0    0 -0.00000000000E+00 -0.00000000000E+00 -0.45593999997E+02  0.45594000000E+02  0.51100000000E-03 0. -1.
    9900012    2    1    2    0    0 -0.11506679083E+01  0.96466155298E-01 -0.24493747676E+00  0.90007603151E+02  0.89999862712E+02 0.  0.
         12    1    1    2    0    0  0.11506679083E+01 -0.96466155298E-01  0.24493747676E+00  0.11803968493E+01  0.00000000000E+00 0. -1.
         11    1    3    3    0    0  0.55428265844E+01 -0.30782709985E+02 -0.94678376110E+01  0.32679322359E+02  0.51100000000E-03 0. -1.
        -11    1    3    3    0    0 -0.17352945186E+02 -0.39148570146E+01 -0.46444180399E+01  0.18385359155E+02  0.51100000000E-03 0.  1.
        -12    1    3    3    0    0  0.10659450693E+02  0.34794033155E+02  0.13867318174E+02  0.38942921637E+02  0.00000000000E+00 0.  1.
</event>
<event>
 7    1  0.1999542E-015  0.9000775E+02  0.7816164E-02  0.1186339E+00
        -11   -1    0    0    0    0  0.00000000000E+00  0.00000000000E+00  0.45593999997E+02  0.45594000000E+02  0.51100000000E-03 0.  1.
         11   -1    0    0    0    0 -0.00000000000E+00 -0.00000000000E+00 -0.45593999997E+02  0.45594000000E+02  0.51100000000E-03 0. -1.
    9900012    2    1    2    0    0 -0.55956481440E+00  0.83660760615E+00  0.61640779795E+00  0.90007752720E+02  0.90000014256E+02 0.  0.
         12    1    1    2    0    0  0.55956481440E+00 -0.83660760615E+00 -0.61640779795E+00  0.11802472798E+01  0.00000000000E+00 0. -1.
         11    1    3    3    0    0  0.36656089323E+02  0.24898147008E+01  0.14990797692E+02  0.39681129992E+02  0.51100000000E-03 0. -1.
        -11    1    3    3    0    0  0.47155275976E+01  0.69058463247E+00 -0.57240681874E+01  0.74483598552E+01  0.51100000000E-03 0.  1.
        -12    1    3    3    0    0 -0.41931181735E+02 -0.23437917271E+01 -0.86503217066E+01  0.42878262873E+02  0.00000000000E+00 0.  1.
</event>
<event>
 7    1  0.1999542E-015  0.9000782E+02  0.7816164E-02  0.1186339E+00
        -11   -1    0    0    0    0  0.00000000000E+00  0.00000000000E+00  0.45593999997E+02  0.45594000000E+02  0.51100000000E-03 0. -1.
         11   -1    0    0    0    0 -0.00000000000E+00 -0.00000000000E+00 -0.45593999997E+02  0.45594000000E+02  0.51100000000E-03 0.  1.
    9900012    2    1    2    0    0 -0.10990599850E+01  0.14608947923E+00  0.40440365083E+00  0.90007823191E+02  0.90000085658E+02 0.  0.
         12    1    1    2    0    0  0.10990599850E+01 -0.14608947923E+00 -0.40440365083E+00  0.11801768085E+01  0.00000000000E+00 0. -1.
         11    1    3    3    0    0 -0.32679174481E+02 -0.21931937325E+02  0.44572266175E+01  0.39608145487E+02  0.51100000000E-03 0. -1.
        -11    1    3    3    0    0  0.86092268543E+01 -0.69892420119E+01  0.51484346163E+01  0.12225983404E+02  0.51100000000E-03 0.  1.
        -12    1    3    3    0    0  0.22970887641E+02  0.29067268816E+02 -0.92012575829E+01  0.38173694300E+02  0.00000000000E+00 0.  1.
</event>
<event>
 7    1  0.1999542E-015  0.9000781E+02  0.7816164E-02  0.1186339E+00
        -11   -1    0    0    0    0  0.00000000000E+00  0.00000000000E+00  0.45593999997E+02  0.45594000000E+02  0.51100000000E-03 0.  1.
         11   -1    0    0    0    0 -0.00000000000E+00 -0.00000000000E+00 -0.45593999997E+02  0.45594000000E+02  0.51100000000E-03 0. -1.
    9900012    2    1    2    0    0  0.54129761229E+00 -0.10066200810E+01 -0.29419518184E+00  0.90007814465E+02  0.90000076816E+02 0.  0.
         12    1    1    2    0    0 -0.54129761229E+00  0.10066200810E+01  0.29419518184E+00  0.11801855352E+01  0.00000000000E+00 0. -1.
         11    1    3    3    0    0 -0.78280757440E+01 -0.52789986927E+01 -0.73011608910E+01  0.11935390554E+02  0.51100000000E-03 0. -1.
        -11    1    3    3    0    0 -0.26087579722E+02 -0.21949344362E+02 -0.65891093951E+00  0.34099409050E+02  0.51100000000E-03 0.  1.
         12    1    3    3    0    0  0.34456953079E+02  0.26221722973E+02  0.76658766487E+01  0.43973014861E+02  0.00000000000E+00 0. -1.
</event>
<event>
 7    1  0.1999542E-015  0.9000778E+02  0.7816164E-02  0.1186339E+00
        -11   -1    0    0    0    0  0.00000000000E+00  0.00000000000E+00  0.45593999997E+02  0.45594000000E+02  0.51100000000E-03 0.  1.
         11   -1    0    0    0    0 -0.00000000000E+00 -0.00000000000E+00 -0.45593999997E+02  0.45594000000E+02  0.51100000000E-03 0. -1.
    9900012    2    1    2    0    0 -0.78400445740E+00 -0.85868032721E+00  0.20231492160E+00  0.90007777046E+02  0.90000038903E+02 0.  0.
         12    1    1    2    0    0  0.78400445740E+00  0.85868032721E+00 -0.20231492160E+00  0.11802229540E+01  0.00000000000E+00 0. -1.
         11    1    3    3    0    0  0.10123324093E+02  0.11895110608E+02 -0.13423673833E+01  0.15677286039E+02  0.51100000000E-03 0. -1.
        -11    1    3    3    0    0  0.76278513544E+01 -0.42001991176E+01  0.34490634245E+02  0.35572877867E+02  0.51100000000E-03 0.  1.
         12    1    3    3    0    0 -0.18535179905E+02 -0.85535918179E+01 -0.32945951940E+02  0.38757613140E+02  0.00000000000E+00 0. -1.
</event>
<event>
 7    1  0.1999542E-015  0.9000770E+02  0.7816164E-02  0.1186339E+00
        -11   -1    0    0    0    0  0.00000000000E+00  0.00000000000E+00  0.45593999997E+02  0.45594000000E+02  0.51100000000E-03 0.  1.
         11   -1    0    0    0    0 -0.00000000000E+00 -0.00000000000E+00 -0.45593999997E+02  0.45594000000E+02  0.51100000000E-03 0. -1.
    9900012    2    1    2    0    0  0.33847057076E+00 -0.42807454351E+00  0.10465690629E+01  0.90007696249E+02  0.89999957039E+02 0.  0.
         12    1    1    2    0    0 -0.33847057076E+00  0.42807454351E+00 -0.10465690629E+01  0.11803037514E+01  0.00000000000E+00 0. -1.
         11    1    3    3    0    0  0.77756797389E+01 -0.76219912909E+00 -0.49706257913E+01  0.92600898447E+01  0.51100000000E-03 0. -1.
        -11    1    3    3    0    0  0.36370276163E+02  0.31156238629E+01  0.49623635201E+01  0.36839233871E+02  0.51100000000E-03 0.  1.
         12    1    3    3    0    0 -0.43807485332E+02 -0.27814992773E+01  0.10548313342E+01  0.43908372533E+02  0.00000000000E+00 0. -1.
</event>
<event>
 7    1  0.1999542E-015  0.9000772E+02  0.7816164E-02  0.1186339E+00
        -11   -1    0    0    0    0  0.00000000000E+00  0.00000000000E+00  0.45593999997E+02  0.45594000000E+02  0.51100000000E-03 0.  1.
         11   -1    0    0    0    0 -0.00000000000E+00 -0.00000000000E+00 -0.45593999997E+02  0.45594000000E+02  0.51100000000E-03 0. -1.
    9900012    2    1    2    0    0 -0.42526199039E+00 -0.28508363133E+00  0.10634585094E+01  0.90007718492E+02  0.89999979576E+02 0.  0.
         12    1    1    2    0    0  0.42526199039E+00  0.28508363133E+00 -0.10634585094E+01  0.11802815082E+01  0.00000000000E+00 0. -1.
         11    1    3    3    0    0  0.13700317111E+01  0.85784060446E+01 -0.12205483404E+01  0.87724441103E+01  0.51100000000E-03 0. -1.
        -11    1    3    3    0    0  0.30086420841E+02  0.16196647718E+02  0.16912532727E+02  0.38125554158E+02  0.51100000000E-03 0.  1.
         12    1    3    3    0    0 -0.31881714543E+02 -0.25060137394E+02 -0.14628525877E+02  0.43109720224E+02  0.00000000000E+00 0. -1.
</event>
<event>
 7    1  0.1999542E-015  0.9000772E+02  0.7816164E-02  0.1186339E+00
        -11   -1    0    0    0    0  0.00000000000E+00  0.00000000000E+00  0.45593999997E+02  0.45594000000E+02  0.51100000000E-03 0.  1.
         11   -1    0    0    0    0 -0.00000000000E+00 -0.00000000000E+00 -0.45593999997E+02  0.45594000000E+02  0.51100000000E-03 0. -1.
    9900012    2    1    2    0    0  0.32623134974E+00  0.11284995605E+01  0.11457543298E+00  0.90007717965E+02  0.89999979042E+02 0.  0.
         12    1    1    2    0    0 -0.32623134974E+00 -0.11284995605E+01 -0.11457543298E+00  0.11802820347E+01  0.00000000000E+00 0. -1.
         11    1    3    3    0    0 -0.28435211458E+02 -0.64215109852E+01 -0.21497033233E+02  0.36220429209E+02  0.51100000000E-03 0. -1.
        -11    1    3    3    0    0  0.12285865518E+01 -0.32290768633E+01 -0.99539553031E+01  0.10536488444E+02  0.51100000000E-03 0.  1.
        -12    1    3    3    0    0  0.27532856256E+02  0.10779087409E+02  0.31565563969E+02  0.43250800312E+02  0.00000000000E+00 0.  1.
</event>
<event>
 7    1  0.1999542E-015  0.9000769E+02  0.7816164E-02  0.1186339E+00
        -11   -1    0    0    0    0  0.00000000000E+00  0.00000000000E+00  0.45593999997E+02  0.45594000000E+02  0.51100000000E-03 0.  1.
         11   -1    0    0    0    0 -0.00000000000E+00 -0.00000000000E+00 -0.45593999997E+02  0.45594000000E+02  0.51100000000E-03 0. -1.
    9900012    2    1    2    0    0 -0.74065806880E+00  0.70298664951E+00 -0.59192609822E+00  0.90007686012E+02  0.89999946667E+02 0.  0.
         12    1    1    2    0    0  0.74065806880E+00 -0.70298664951E+00  0.59192609822E+00  0.11803139879E+01  0.00000000000E+00 0. -1.
         11    1    3    3    0    0  0.12363727749E+02  0.11757635584E+01  0.36386408010E+01  0.12941556743E+02  0.51100000000E-03 0. -1.
        -11    1    3    3    0    0  0.28738282275E+02  0.10300235689E+02  0.90885778260E+01  0.31852566153E+02  0.51100000000E-03 0.  1.
         12    1    3    3    0    0 -0.41842668092E+02 -0.10773012598E+02 -0.13319144725E+02  0.45213563117E+02  0.00000000000E+00 0. -1.
</event>
<event>
 7    1  0.1999542E-015  0.9000773E+02  0.7816164E-02  0.1186339E+00
        -11   -1    0    0    0    0  0.00000000000E+00  0.00000000000E+00  0.45593999997E+02  0.45594000000E+02  0.51100000000E-03 0.  1.
         11   -1    0    0    0    0 -0.00000000000E+00 -0.00000000000E+00 -0.45593999997E+02  0.45594000000E+02  0.51100000000E-03 0. -1.
    9900012    2    1    2    0    0  0.26802947238E+00  0.57152051537E+00  0.99727450922E+00  0.90007732257E+02  0.89999993523E+02 0.  0.
         12    1    1    2    0    0 -0.26802947238E+00 -0.57152051537E+00 -0.99727450922E+00  0.11802677426E+01  0.00000000000E+00 0. -1.
         11    1    3    3    0    0  0.90938000775E+01 -0.19272304082E+02 -0.19517381863E+02  0.28897181515E+02  0.51100000000E-03 0. -1.
        -11    1    3    3    0    0  0.68959017462E+00 -0.15920222748E+02 -0.43584077946E+01  0.16520434187E+02  0.51100000000E-03 0.  1.
        -12    1    3    3    0    0 -0.95153607798E+01  0.35764047346E+02  0.24873064167E+02  0.44590116555E+02  0.00000000000E+00 0.  1.
</event>
<event>
 7    1  0.1999542E-015  0.9000773E+02  0.7816164E-02  0.1186339E+00
        -11   -1    0    0    0    0  0.00000000000E+00  0.00000000000E+00  0.45593999997E+02  0.45594000000E+02  0.51100000000E-03 0.  1.
         11   -1    0    0    0    0 -0.00000000000E+00 -0.00000000000E+00 -0.45593999997E+02  0.45594000000E+02  0.51100000000E-03 0. -1.
    9900012    2    1    2    0    0 -0.61986496352E+00 -0.35335620812E+00 -0.94018659444E+00  0.90007727144E+02  0.89999988342E+02 0.  0.
         12    1    1    2    0    0  0.61986496352E+00  0.35335620812E+00  0.94018659444E+00  0.11802728562E+01  0.00000000000E+00 0. -1.
         11    1    3    3    0    0  0.14926827176E+02  0.25137039000E+02 -0.24151111082E+02  0.37920404349E+02  0.51100000000E-03 0. -1.
        -11    1    3    3    0    0  0.58703524472E+01 -0.76613326594E+01 -0.62783790220E+01  0.11514126080E+02  0.51100000000E-03 0.  1.
        -12    1    3    3    0    0 -0.21417044587E+02 -0.17829062549E+02  0.29489303510E+02  0.40573196715E+02  0.00000000000E+00 0.  1.
</event>
<event>
 7    1  0.1999542E-015  0.9000773E+02  0.7816164E-02  0.1186339E+00
        -11   -1    0    0    0    0  0.00000000000E+00  0.00000000000E+00  0.45593999997E+02  0.45594000000E+02  0.51100000000E-03 0. -1.
         11   -1    0    0    0    0 -0.00000000000E+00 -0.00000000000E+00 -0.45593999997E+02  0.45594000000E+02  0.51100000000E-03 0.  1.
    9900012    2    1    2    0    0  0.42121302216E+00 -0.80677980767E+00 -0.75147756637E+00  0.90007731979E+02  0.89999993241E+02 0.  0.
         12    1    1    2    0    0 -0.42121302216E+00  0.80677980767E+00  0.75147756637E+00  0.11802680208E+01  0.00000000000E+00 0. -1.
         11    1    3    3    0    0  0.14573074426E+02 -0.28385970166E+02 -0.11768625574E+01  0.31929967213E+02  0.51100000000E-03 0. -1.
        -11    1    3    3    0    0  0.76029126061E+01 -0.94312237863E+01  0.79539515616E+01  0.14491984264E+02  0.51100000000E-03 0.  1.
        -12    1    3    3    0    0 -0.21754774010E+02  0.37010414144E+02 -0.75285665705E+01  0.43585780502E+02  0.00000000000E+00 0.  1.
</event>
<event>
 7    1  0.1999542E-015  0.9000822E+02  0.7816164E-02  0.1186338E+00
        -11   -1    0    0    0    0  0.00000000000E+00  0.00000000000E+00  0.45593999997E+02  0.45594000000E+02  0.51100000000E-03 0.  1.
         11   -1    0    0    0    0 -0.00000000000E+00 -0.00000000000E+00 -0.45593999997E+02  0.45594000000E+02  0.51100000000E-03 0. -1.
    9900012    2    1    2    0    0 -0.11409669008E+01 -0.15818268954E+00  0.25507401527E+00  0.90008216128E+02  0.90000483779E+02 0.  0.
         12    1    1    2    0    0  0.11409669008E+01  0.15818268954E+00 -0.25507401527E+00  0.11797838723E+01  0.00000000000E+00 0. -1.
         11    1    3    3    0    0 -0.86691060828E+01  0.19390726058E+00 -0.15203836549E+01  0.88035542266E+01  0.51100000000E-03 0. -1.
        -11    1    3    3    0    0 -0.22989430668E+02  0.13437328784E+02  0.28022117608E+02  0.38656368205E+02  0.51100000000E-03 0.  1.
         12    1    3    3    0    0  0.30517569850E+02 -0.13789418734E+02 -0.26246659938E+02  0.42548293696E+02  0.00000000000E+00 0. -1.
</event>
<event>
 7    1  0.1999542E-015  0.9000777E+02  0.7816164E-02  0.1186339E+00
        -11   -1    0    0    0    0  0.00000000000E+00  0.00000000000E+00  0.45593999997E+02  0.45594000000E+02  0.51100000000E-03 0.  1.
         11   -1    0    0    0    0 -0.00000000000E+00 -0.00000000000E+00 -0.45593999997E+02  0.45594000000E+02  0.51100000000E-03 0. -1.
    9900012    2    1    2    0    0  0.61480962054E+00 -0.41221808880E+00  0.91925317492E+00  0.90007770776E+02  0.90000032550E+02 0.  0.
         12    1    1    2    0    0 -0.61480962054E+00  0.41221808880E+00 -0.91925317492E+00  0.11802292243E+01  0.00000000000E+00 0. -1.
         11    1    3    3    0    0  0.64048659303E+01 -0.61470525193E+01  0.11539491197E+01  0.89521037244E+01  0.51100000000E-03 0. -1.
        -11    1    3    3    0    0  0.34071214628E+02  0.18284507569E+02 -0.50221019154E+01  0.38992209365E+02  0.51100000000E-03 0.  1.
         12    1    3    3    0    0 -0.39861270937E+02 -0.12549673139E+02  0.47874059706E+01  0.42063457687E+02  0.00000000000E+00 0. -1.
</event>
<event>
 7    1  0.1999542E-015  0.9000780E+02  0.7816164E-02  0.1186339E+00
        -11   -1    0    0    0    0  0.00000000000E+00  0.00000000000E+00  0.45593999997E+02  0.45594000000E+02  0.51100000000E-03 0. -1.
         11   -1    0    0    0    0 -0.00000000000E+00 -0.00000000000E+00 -0.45593999997E+02  0.45594000000E+02  0.51100000000E-03 0.  1.
    9900012    2    1    2    0    0 -0.59735606116E+00  0.10168020812E+01 -0.46264742156E-01  0.90007804608E+02  0.90000066829E+02 0.  0.
         12    1    1    2    0    0  0.59735606116E+00 -0.10168020812E+01  0.46264742156E-01  0.11801953917E+01  0.00000000000E+00 0. -1.
         11    1    3    3    0    0  0.99389040506E+01 -0.31271129813E+02  0.24217195924E+02  0.40781588397E+02  0.51100000000E-03 0. -1.
        -11    1    3    3    0    0  0.38879281446E+01  0.66875009819E+01  0.37781019001E+01  0.86088738444E+01  0.51100000000E-03 0.  1.
        -12    1    3    3    0    0 -0.14424188256E+02  0.25600430913E+02 -0.28041562566E+02  0.40617342367E+02  0.00000000000E+00 0.  1.
</event>
<event>
 7    1  0.1999542E-015  0.9000759E+02  0.7816164E-02  0.1186339E+00
        -11   -1    0    0    0    0  0.00000000000E+00  0.00000000000E+00  0.45593999997E+02  0.45594000000E+02  0.51100000000E-03 0.  1.
         11   -1    0    0    0    0 -0.00000000000E+00 -0.00000000000E+00 -0.45593999997E+02  0.45594000000E+02  0.51100000000E-03 0. -1.
    9900012    2    1    2    0    0  0.75797958361E+00  0.47769482833E+00 -0.76853678385E+00  0.90007587281E+02  0.89999846633E+02 0.  0.
         12    1    1    2    0    0 -0.75797958361E+00 -0.47769482833E+00  0.76853678385E+00  0.11804127186E+01  0.00000000000E+00 0. -1.
         11    1    3    3    0    0 -0.76614523708E+01 -0.55661902508E+01  0.12493058996E+01  0.95520203009E+01  0.51100000000E-03 0. -1.
        -11    1    3    3    0    0 -0.34196255057E+02  0.90370760097E+01  0.86719097129E+01  0.36417778915E+02  0.51100000000E-03 0.  1.
         12    1    3    3    0    0  0.42615687012E+02 -0.29931909305E+01 -0.10689752396E+02  0.44037788066E+02  0.00000000000E+00 0. -1.
</event>
<event>
 7    1  0.1999542E-015  0.9000784E+02  0.7816164E-02  0.1186339E+00
        -11   -1    0    0    0    0  0.00000000000E+00  0.00000000000E+00  0.45593999997E+02  0.45594000000E+02  0.51100000000E-03 0.  1.
         11   -1    0    0    0    0 -0.00000000000E+00 -0.00000000000E+00 -0.45593999997E+02  0.45594000000E+02  0.51100000000E-03 0. -1.
    9900012    2    1    2    0    0  0.95590141682E+00  0.65643863924E+00  0.21938024459E+00  0.90007836072E+02  0.90000098708E+02 0.  0.
         12    1    1    2    0    0 -0.95590141682E+00 -0.65643863924E+00 -0.21938024459E+00  0.11801639282E+01  0.00000000000E+00 0. -1.
         11    1    3    3    0    0  0.66038377759E+01  0.64547199869E+01  0.40164031487E+01  0.10070033664E+02  0.51100000000E-03 0. -1.
        -11    1    3    3    0    0  0.20446973693E+01  0.96324140666E+01  0.35598028982E+02  0.36934859628E+02  0.51100000000E-03 0.  1.
         12    1    3    3    0    0 -0.76926337283E+01 -0.15430695414E+02 -0.39395051886E+02  0.43002942780E+02  0.00000000000E+00 0. -1.
</event>
<event>
 7    1  0.1999542E-015  0.9000773E+02  0.7816164E-02  0.1186339E+00
        -11   -1    0    0    0    0  0.00000000000E+00  0.00000000000E+00  0.45593999997E+02  0.45594000000E+02  0.51100000000E-03 0.  1.
         11   -1    0    0    0    0 -0.00000000000E+00 -0.00000000000E+00 -0.45593999997E+02  0.45594000000E+02  0.51100000000E-03 0. -1.
    9900012    2    1    2    0    0 -0.10346525741E+01 -0.54258530784E+00 -0.16776094932E+00  0.90007725243E+02  0.89999986416E+02 0.  0.
         12    1    1    2    0    0  0.10346525741E+01  0.54258530784E+00  0.16776094932E+00  0.11802747568E+01  0.00000000000E+00 0. -1.
         11    1    3    3    0    0 -0.13513753197E+02  0.13515435636E+02 -0.34826189905E+02  0.39725961656E+02  0.51100000000E-03 0. -1.
        -11    1    3    3    0    0  0.45400375932E+01  0.79047480189E+01  0.80046724393E+00  0.91508322386E+01  0.51100000000E-03 0.  1.
        -12    1    3    3    0    0  0.79390630298E+01 -0.21962768963E+02  0.33857961712E+02  0.41130931349E+02  0.00000000000E+00 0.  1.
</event>
<event>
 7    1  0.2386269E-015  0.9000769E+02  0.7816164E-02  0.1186339E+00
        -11   -1    0    0    0    0  0.00000000000E+00  0.00000000000E+00  0.45593999997E+02  0.45594000000E+02  0.51100000000E-03 0. -1.
         11   -1    0    0    0    0 -0.00000000000E+00 -0.00000000000E+00 -0.45593999997E+02  0.45594000000E+02  0.51100000000E-03 0.  1.
    9900012    2    1    2    0    0 -0.91102797611E-01 -0.40735544871E+00 -0.11040385254E+01  0.90007686801E+02  0.89999947467E+02 0.  0.
         12    1    1    2    0    0  0.91102797611E-01  0.40735544871E+00  0.11040385254E+01  0.11803131987E+01  0.00000000000E+00 0. -1.
         11    1    3    3    0    0  0.11968870252E+02  0.12821349419E+02  0.30619850769E+02  0.35287619889E+02  0.51100000000E-03 0. -1.
        -11    1    3    3    0    0 -0.27340644073E+01 -0.38076585754E+00  0.98439612723E+01  0.10223681559E+02  0.51100000000E-03 0.  1.
        -12    1    3    3    0    0 -0.93259086420E+01 -0.12847939010E+02 -0.41567850567E+02  0.44496385354E+02  0.00000000000E+00 0.  1.
</event>
<event>
 7    1  0.1999542E-015  0.9000764E+02  0.7816164E-02  0.1186339E+00
        -11   -1    0    0    0    0  0.00000000000E+00  0.00000000000E+00  0.45593999997E+02  0.45594000000E+02  0.51100000000E-03 0.  1.
         11   -1    0    0    0    0 -0.00000000000E+00 -0.00000000000E+00 -0.45593999997E+02  0.45594000000E+02  0.51100000000E-03 0. -1.
    9900012    2    1    2    0    0  0.10024503919E+01 -0.19126977352E-01  0.62288279114E+00  0.90007637513E+02  0.89999897528E+02 0.  0.
         12    1    1    2    0    0 -0.10024503919E+01  0.19126977352E-01 -0.62288279114E+00  0.11803624871E+01  0.00000000000E+00 0. -1.
         11    1    3    3    0    0  0.94928957823E+01 -0.40698389644E+01 -0.30148236833E+01  0.10759545605E+02  0.51100000000E-03 0. -1.
        -11    1    3    3    0    0 -0.19351689065E+02 -0.34218389170E+02  0.35049657634E+01  0.39467338551E+02  0.51100000000E-03 0.  1.
         12    1    3    3    0    0  0.10861243674E+02  0.38269101157E+02  0.13274071099E+00  0.39780753357E+02  0.00000000000E+00 0. -1.
</event>
<event>
 7    1  0.2244491E-015  0.9000760E+02  0.7816164E-02  0.1186339E+00
        -11   -1    0    0    0    0  0.00000000000E+00  0.00000000000E+00  0.45593999997E+02  0.45594000000E+02  0.51100000000E-03 0. -1.
         11   -1    0    0    0    0 -0.00000000000E+00 -0.00000000000E+00 -0.45593999997E+02  0.45594000000E+02  0.51100000000E-03 0.  1.
    9900012    2    1    2    0    0  0.55976308600E+00 -0.76032228065E+00 -0.70846892482E+00  0.90007596298E+02  0.89999855769E+02 0.  0.
         12    1    1    2    0    0 -0.55976308600E+00  0.76032228065E+00  0.70846892482E+00  0.11804037023E+01  0.00000000000E+00 0. -1.
         11    1    3    3    0    0  0.18794865493E+02 -0.22315391772E+02  0.20259946882E+02  0.35520263607E+02  0.51100000000E-03 0. -1.
        -11    1    3    3    0    0  0.15359070704E+00 -0.60860913181E+01  0.82559506031E+01  0.10257914908E+02  0.51100000000E-03 0.  1.
        -12    1    3    3    0    0 -0.18388693114E+02  0.27641160810E+02 -0.29224366410E+02  0.44229417782E+02  0.00000000000E+00 0.  1.
</event>
<event>
 7    1  0.1999542E-015  0.9000787E+02  0.7816164E-02  0.1186339E+00
        -11   -1    0    0    0    0  0.00000000000E+00  0.00000000000E+00  0.45593999997E+02  0.45594000000E+02  0.51100000000E-03 0. -1.
         11   -1    0    0    0    0 -0.00000000000E+00 -0.00000000000E+00 -0.45593999997E+02  0.45594000000E+02  0.51100000000E-03 0.  1.
    9900012    2    1    2    0    0 -0.76658930466E-01 -0.11667945729E+01 -0.15944896132E+00  0.90007868593E+02  0.90000131658E+02 0.  0.
         12    1    1    2    0    0  0.76658930466E-01  0.11667945729E+01  0.15944896132E+00  0.11801314072E+01  0.00000000000E+00 0. -1.
         11    1    3    3    0    0 -0.40571610392E+01  0.53901784248E+00  0.72315797066E+01  0.83094428963E+01  0.51100000000E-03 0. -1.
        -11    1    3    3    0    0  0.12481186715E+02  0.29351521983E+02 -0.28846923082E+02  0.43005079190E+02  0.51100000000E-03 0.  1.
         12    1    3    3    0    0 -0.85006846062E+01 -0.31057334399E+02  0.21455894415E+02  0.38693346506E+02  0.00000000000E+00 0. -1.
</event>
<event>
 7    1  0.1999542E-015  0.9000781E+02  0.7816164E-02  0.1186339E+00
        -11   -1    0    0    0    0  0.00000000000E+00  0.00000000000E+00  0.45593999997E+02  0.45594000000E+02  0.51100000000E-03 0. -1.
         11   -1    0    0    0    0 -0.00000000000E+00 -0.00000000000E+00 -0.45593999997E+02  0.45594000000E+02  0.51100000000E-03 0.  1.
    9900012    2    1    2    0    0  0.52753671296E+00  0.50702314365E+00 -0.92599691846E+00  0.90007814530E+02  0.90000076881E+02 0.  0.
         12    1    1    2    0    0 -0.52753671296E+00 -0.50702314365E+00  0.92599691846E+00  0.11801854705E+01  0.00000000000E+00 0. -1.
         11    1    3    3    0    0  0.74588275952E+01  0.45821056935E+01  0.32504970203E+01  0.93378548298E+01  0.51100000000E-03 0. -1.
        -11    1    3    3    0    0  0.15665057951E+02  0.24811851684E+02 -0.24953343847E+02  0.38518714853E+02  0.51100000000E-03 0.  1.
         12    1    3    3    0    0 -0.22596348833E+02 -0.28886934233E+02  0.20776849908E+02  0.42151244846E+02  0.00000000000E+00 0. -1.
</event>
<event>
 7    1  0.1999542E-015  0.9000777E+02  0.7816164E-02  0.1186339E+00
        -11   -1    0    0    0    0  0.00000000000E+00  0.00000000000E+00  0.45593999997E+02  0.45594000000E+02  0.51100000000E-03 0.  1.
         11   -1    0    0    0    0 -0.00000000000E+00 -0.00000000000E+00 -0.45593999997E+02  0.45594000000E+02  0.51100000000E-03 0. -1.
    9900012    2    1    2    0    0 -0.49748336909E+00  0.83933511121E+00  0.66406426899E+00  0.90007765072E+02  0.90000026771E+02 0.  0.
         12    1    1    2    0    0  0.49748336909E+00 -0.83933511121E+00 -0.66406426899E+00  0.11802349278E+01  0.00000000000E+00 0. -1.
         11    1    3    3    0    0 -0.17856944482E+02  0.34106526838E+02 -0.14452375527E+02  0.41121731454E+02  0.51100000000E-03 0. -1.
        -11    1    3    3    0    0 -0.18915983521E+01  0.39615403232E+01  0.27815068145E+01  0.51969920606E+01  0.51100000000E-03 0.  1.
        -12    1    3    3    0    0  0.19251059465E+02 -0.37228732050E+02  0.12334932982E+02  0.43689041557E+02  0.00000000000E+00 0.  1.
</event>
<event>
 7    1  0.1999542E-015  0.9000774E+02  0.7816164E-02  0.1186339E+00
        -11   -1    0    0    0    0  0.00000000000E+00  0.00000000000E+00  0.45593999997E+02  0.45594000000E+02  0.51100000000E-03 0.  1.
         11   -1    0    0    0    0 -0.00000000000E+00 -0.00000000000E+00 -0.45593999997E+02  0.45594000000E+02  0.51100000000E-03 0. -1.
    9900012    2    1    2    0    0  0.10110339908E+01  0.56380377759E-01 -0.60633456151E+00  0.90007741521E+02  0.90000002909E+02 0.  0.
         12    1    1    2    0    0 -0.10110339908E+01 -0.56380377759E-01  0.60633456151E+00  0.11802584793E+01  0.00000000000E+00 0. -1.
         11    1    3    3    0    0 -0.16121277909E+02 -0.33156577398E+02 -0.56920489584E+01  0.37304874317E+02  0.51100000000E-03 0. -1.
        -11    1    3    3    0    0  0.62316301876E+00 -0.46736910192E+01 -0.80576799204E+01  0.93358409290E+01  0.51100000000E-03 0.  1.
        -12    1    3    3    0    0  0.16509148881E+02  0.37886648795E+02  0.13143394317E+02  0.43367026275E+02  0.00000000000E+00 0.  1.
</event>
<event>
 7    1  0.1999542E-015  0.9000771E+02  0.7816164E-02  0.1186339E+00
        -11   -1    0    0    0    0  0.00000000000E+00  0.00000000000E+00  0.45593999997E+02  0.45594000000E+02  0.51100000000E-03 0. -1.
         11   -1    0    0    0    0 -0.00000000000E+00 -0.00000000000E+00 -0.45593999997E+02  0.45594000000E+02  0.51100000000E-03 0.  1.
    9900012    2    1    2    0    0 -0.29450404712E-01 -0.57856720045E-01 -0.11785015598E+01  0.90007711623E+02  0.89999972616E+02 0.  0.
         12    1    1    2    0    0  0.29450404712E-01  0.57856720045E-01  0.11785015598E+01  0.11802883770E+01  0.00000000000E+00 0. -1.
         11    1    3    3    0    0  0.80086516436E+00 -0.15640620083E+02  0.53896818190E+01  0.16562579871E+02  0.51100000000E-03 0. -1.
        -11    1    3    3    0    0 -0.14610995260E+02 -0.20643952023E+02 -0.20189990056E+02  0.32361854649E+02  0.51100000000E-03 0.  1.
         12    1    3    3    0    0  0.13780679691E+02  0.36226715386E+02  0.13621806677E+02  0.41083277103E+02  0.00000000000E+00 0. -1.
</event>
<event>
 7    1  0.1999542E-015  0.9000752E+02  0.7816164E-02  0.1186339E+00
        -11   -1    0    0    0    0  0.00000000000E+00  0.00000000000E+00  0.45593999997E+02  0.45594000000E+02  0.51100000000E-03 0.  1.
         11   -1    0    0    0    0 -0.00000000000E+00 -0.00000000000E+00 -0.45593999997E+02  0.45594000000E+02  0.51100000000E-03 0. -1.
    9900012    2    1    2    0    0  0.10123836215E+01 -0.88049750504E-01  0.60070944043E+00  0.90007523322E+02  0.89999781830E+02 0.  0.
         12    1    1    2    0    0 -0.10123836215E+01  0.88049750504E-01 -0.60070944043E+00  0.11804766780E+01  0.00000000000E+00 0. -1.
         11    1    3    3    0    0  0.16055649959E+01 -0.27720064828E+01 -0.11528131206E+02  0.11964934946E+02  0.51100000000E-03 0. -1.
        -11    1    3    3    0    0  0.28036284037E+02 -0.22915663132E+02 -0.39141790639E+01  0.36420895615E+02  0.51100000000E-03 0.  1.
         12    1    3    3    0    0 -0.28629465411E+02  0.25599619864E+02  0.16043019710E+02  0.41621692762E+02  0.00000000000E+00 0. -1.
</event>
<event>
 7    1  0.1999542E-015  0.9000777E+02  0.7816164E-02  0.1186339E+00
        -11   -1    0    0    0    0  0.00000000000E+00  0.00000000000E+00  0.45593999997E+02  0.45594000000E+02  0.51100000000E-03 0. -1.
         11   -1    0    0    0    0 -0.00000000000E+00 -0.00000000000E+00 -0.45593999997E+02  0.45594000000E+02  0.51100000000E-03 0.  1.
    9900012    2    1    2    0    0  0.31364461528E+00 -0.66798522313E+00 -0.92106967324E+00  0.90007768435E+02  0.90000030179E+02 0.  0.
         12    1    1    2    0    0 -0.31364461528E+00  0.66798522313E+00  0.92106967324E+00  0.11802315646E+01  0.00000000000E+00 0. -1.
         11    1    3    3    0    0 -0.94029018443E+01 -0.15216233685E+01 -0.82626972896E+00  0.95609948591E+01  0.51100000000E-03 0. -1.
        -11    1    3    3    0    0  0.25385703820E+02  0.34787657700E+02 -0.47394182437E+00  0.43067850049E+02  0.51100000000E-03 0.  1.
         12    1    3    3    0    0 -0.15669157361E+02 -0.33934019554E+02  0.37914188010E+00  0.37378923528E+02  0.00000000000E+00 0. -1.
</event>
<event>
 7    1  0.1999542E-015  0.9000774E+02  0.7816164E-02  0.1186339E+00
        -11   -1    0    0    0    0  0.00000000000E+00  0.00000000000E+00  0.45593999997E+02  0.45594000000E+02  0.51100000000E-03 0.  1.
         11   -1    0    0    0    0 -0.00000000000E+00 -0.00000000000E+00 -0.45593999997E+02  0.45594000000E+02  0.51100000000E-03 0. -1.
    9900012    2    1    2    0    0 -0.11774342900E+01  0.77098701131E-01 -0.26831465162E-01  0.90007739162E+02  0.90000000519E+02 0.  0.
         12    1    1    2    0    0  0.11774342900E+01 -0.77098701131E-01  0.26831465162E-01  0.11802608375E+01  0.00000000000E+00 0. -1.
         11    1    3    3    0    0  0.23517631763E+02  0.28054706570E+02  0.14342568374E+02  0.39317360444E+02  0.51100000000E-03 0. -1.
        -11    1    3    3    0    0 -0.21774135088E+01  0.58383045143E+01  0.24817735228E+01  0.67071699896E+01  0.51100000000E-03 0.  1.
        -12    1    3    3    0    0 -0.22517652544E+02 -0.33815912383E+02 -0.16851173362E+02  0.43983208729E+02  0.00000000000E+00 0.  1.
</event>
<event>
 7    1  0.1999542E-015  0.9000776E+02  0.7816164E-02  0.1186339E+00
        -11   -1    0    0    0    0  0.00000000000E+00  0.00000000000E+00  0.45593999997E+02  0.45594000000E+02  0.51100000000E-03 0. -1.
         11   -1    0    0    0    0 -0.00000000000E+00 -0.00000000000E+00 -0.45593999997E+02  0.45594000000E+02  0.51100000000E-03 0.  1.
    9900012    2    1    2    0    0 -0.66127330529E-01 -0.11405391830E+01  0.29624517735E+00  0.90007761186E+02  0.90000022834E+02 0.  0.
         12    1    1    2    0    0  0.66127330529E-01  0.11405391830E+01 -0.29624517735E+00  0.11802388135E+01  0.00000000000E+00 0. -1.
         11    1    3    3    0    0 -0.21518066822E+02  0.78624190920E+01  0.36480186396E+02  0.43077242640E+02  0.51100000000E-03 0. -1.
        -11    1    3    3    0    0  0.95999590816E+01 -0.75769403088E+00 -0.20176903094E+01  0.98389221492E+01  0.51100000000E-03 0.  1.
        -12    1    3    3    0    0  0.11851980410E+02 -0.82452642442E+01 -0.34166250909E+02  0.37091596397E+02  0.00000000000E+00 0.  1.
</event>
<event>
 7    1  0.1999542E-015  0.9000769E+02  0.7816164E-02  0.1186339E+00
        -11   -1    0    0    0    0  0.00000000000E+00  0.00000000000E+00  0.45593999997E+02  0.45594000000E+02  0.51100000000E-03 0. -1.
         11   -1    0    0    0    0 -0.00000000000E+00 -0.00000000000E+00 -0.45593999997E+02  0.45594000000E+02  0.51100000000E-03 0.  1.
    9900012    2    1    2    0    0  0.99013321818E+00  0.60548773981E+00  0.21481809376E+00  0.90007692410E+02  0.89999953150E+02 0.  0.
         12    1    1    2    0    0 -0.99013321818E+00 -0.60548773981E+00 -0.21481809376E+00  0.11803075897E+01  0.00000000000E+00 0. -1.
         11    1    3    3    0    0 -0.18303035200E+02 -0.18670619677E+02  0.33439012081E+02  0.42447151446E+02  0.51100000000E-03 0. -1.
        -11    1    3    3    0    0 -0.43585082324E+01  0.35107909696E+01 -0.50306512784E+01  0.75252707453E+01  0.51100000000E-03 0.  1.
        -12    1    3    3    0    0  0.23651676651E+02  0.15765316447E+02 -0.28193542709E+02  0.40035270219E+02  0.00000000000E+00 0.  1.
</event>
<event>
 7    1  0.1999542E-015  0.9000767E+02  0.7816164E-02  0.1186339E+00
        -11   -1    0    0    0    0  0.00000000000E+00  0.00000000000E+00  0.45593999997E+02  0.45594000000E+02  0.51100000000E-03 0.  1.
         11   -1    0    0    0    0 -0.00000000000E+00 -0.00000000000E+00 -0.45593999997E+02  0.45594000000E+02  0.51100000000E-03 0. -1.
    9900012    2    1    2    0    0  0.41523590376E+00 -0.86693100281E+00  0.68497137408E+00  0.90007671231E+02  0.89999931691E+02 0.  0.
         12    1    1    2    0    0 -0.41523590376E+00  0.86693100281E+00 -0.68497137408E+00  0.11803287689E+01  0.00000000000E+00 0. -1.
         11    1    3    3    0    0  0.25415934413E+02  0.21299467340E+02 -0.12493398155E+02  0.35436168370E+02  0.51100000000E-03 0. -1.
        -11    1    3    3    0    0  0.23897176096E+01  0.71795538517E+01 -0.63987455422E+01  0.99096260544E+01  0.51100000000E-03 0.  1.
        -12    1    3    3    0    0 -0.27390416118E+02 -0.29345952195E+02  0.19577115071E+02  0.44661876806E+02  0.00000000000E+00 0.  1.
</event>
<event>
 7    1  0.1999542E-015  0.9000781E+02  0.7816164E-02  0.1186339E+00
        -11   -1    0    0    0    0  0.00000000000E+00  0.00000000000E+00  0.45593999997E+02  0.45594000000E+02  0.51100000000E-03 0. -1.
         11   -1    0    0    0    0 -0.00000000000E+00 -0.00000000000E+00 -0.45593999997E+02  0.45594000000E+02  0.51100000000E-03 0.  1.
    9900012    2    1    2    0    0 -0.35101746298E+00  0.22383061637E+00 -0.11043264345E+01  0.90007809220E+02  0.90000071501E+02 0.  0.
         12    1    1    2    0    0  0.35101746298E+00 -0.22383061637E+00  0.11043264345E+01  0.11801907804E+01  0.00000000000E+00 0. -1.
         11    1    3    3    0    0  0.64632738560E+01  0.56056068537E+01  0.49899123901E+01  0.99043406170E+01  0.51100000000E-03 0. -1.
        -11    1    3    3    0    0 -0.74152012278E+01  0.32362332083E+02 -0.21257266238E+02  0.39423053094E+02  0.51100000000E-03 0.  1.
         12    1    3    3    0    0  0.60090990878E+00 -0.37744108320E+02  0.15163027413E+02  0.40680415508E+02  0.00000000000E+00 0. -1.
</event>
<event>
 7    1  0.1999542E-015  0.9000770E+02  0.7816164E-02  0.1186339E+00
        -11   -1    0    0    0    0  0.00000000000E+00  0.00000000000E+00  0.45593999997E+02  0.45594000000E+02  0.51100000000E-03 0. -1.
         11   -1    0    0    0    0 -0.00000000000E+00 -0.00000000000E+00 -0.45593999997E+02  0.45594000000E+02  0.51100000000E-03 0.  1.
    9900012    2    1    2    0    0  0.71810759952E+00 -0.75709347213E+00 -0.55158080769E+00  0.90007699006E+02  0.89999959832E+02 0.  0.
         12    1    1    2    0    0 -0.71810759952E+00  0.75709347213E+00  0.55158080769E+00  0.11803009944E+01  0.00000000000E+00 0. -1.
         11    1    3    3    0    0  0.20910735396E+02  0.54494956963E+01  0.29003314592E+02  0.36168330286E+02  0.51100000000E-03 0. -1.
        -11    1    3    3    0    0  0.92400440222E+00  0.71583554756E+01  0.66718558295E+01  0.98290130593E+01  0.51100000000E-03 0.  1.
        -12    1    3    3    0    0 -0.21116632198E+02 -0.13364944644E+02 -0.36226751229E+02  0.44010355660E+02  0.00000000000E+00 0.  1.
</event>
<event>
 7    1  0.1999542E-015  0.9000773E+02  0.7816164E-02  0.1186339E+00
        -11   -1    0    0    0    0  0.00000000000E+00  0.00000000000E+00  0.45593999997E+02  0.45594000000E+02  0.51100000000E-03 0.  1.
         11   -1    0    0    0    0 -0.00000000000E+00 -0.00000000000E+00 -0.45593999997E+02  0.45594000000E+02  0.51100000000E-03 0. -1.
    9900012    2    1    2    0    0  0.38388695593E+00  0.12533560393E-01  0.11160232772E+01  0.90007731285E+02  0.89999992538E+02 0.  0.
         12    1    1    2    0    0 -0.38388695593E+00 -0.12533560393E-01 -0.11160232772E+01  0.11802687153E+01  0.00000000000E+00 0. -1.
         11    1    3    3    0    0  0.18688921338E+01  0.37014868540E+01  0.40382082151E+01  0.57879952132E+01  0.51100000000E-03 0. -1.
        -11    1    3    3    0    0  0.32789999101E+01  0.21171151216E+02  0.33560678833E+02  0.39815683445E+02  0.51100000000E-03 0.  1.
         12    1    3    3    0    0 -0.47640050879E+01 -0.24860104510E+02 -0.36482863771E+02  0.44404052626E+02  0.00000000000E+00 0. -1.
</event>
<event>
 7    1  0.1999542E-015  0.9000774E+02  0.7816164E-02  0.1186339E+00
        -11   -1    0    0    0    0  0.00000000000E+00  0.00000000000E+00  0.45593999997E+02  0.45594000000E+02  0.51100000000E-03 0. -1.
         11   -1    0    0    0    0 -0.00000000000E+00 -0.00000000000E+00 -0.45593999997E+02  0.45594000000E+02  0.51100000000E-03 0.  1.
    9900012    2    1    2    0    0  0.51310005850E+00  0.73914084095E+00 -0.76381273029E+00  0.90007741240E+02  0.90000002625E+02 0.  0.
         12    1    1    2    0    0 -0.51310005850E+00 -0.73914084095E+00  0.76381273029E+00  0.11802587597E+01  0.00000000000E+00 0. -1.
         11    1    3    3    0    0 -0.16579858979E+02  0.16990344830E+02  0.26454452421E+02  0.35544360936E+02  0.51100000000E-03 0. -1.
        -11    1    3    3    0    0 -0.40119606588E+01 -0.39821503628E+01  0.90942335206E+01  0.10707867828E+02  0.51100000000E-03 0.  1.
        -12    1    3    3    0    0  0.21104919697E+02 -0.12269053626E+02 -0.36312498671E+02  0.43755512476E+02  0.00000000000E+00 0.  1.
</event>
<event>
 7    1  0.1999542E-015  0.9000771E+02  0.7816164E-02  0.1186339E+00
        -11   -1    0    0    0    0  0.00000000000E+00  0.00000000000E+00  0.45593999997E+02  0.45594000000E+02  0.51100000000E-03 0.  1.
         11   -1    0    0    0    0 -0.00000000000E+00 -0.00000000000E+00 -0.45593999997E+02  0.45594000000E+02  0.51100000000E-03 0. -1.
    9900012    2    1    2    0    0  0.43352299812E+00 -0.25735174849E+00  0.10672023379E+01  0.90007706417E+02  0.89999967342E+02 0.  0.
         12    1    1    2    0    0 -0.43352299812E+00  0.25735174849E+00 -0.10672023379E+01  0.11802935832E+01  0.00000000000E+00 0. -1.
         11    1    3    3    0    0  0.17265973057E+02 -0.31345546832E+02 -0.41216128044E+01  0.36022837537E+02  0.51100000000E-03 0. -1.
        -11    1    3    3    0    0 -0.41505134338E+00 -0.96807542987E+01  0.21782849617E+01  0.99314750690E+01  0.51100000000E-03 0.  1.
        -12    1    3    3    0    0 -0.16417398716E+02  0.40768949382E+02  0.30105301806E+01  0.44053393811E+02  0.00000000000E+00 0.  1.
</event>
<event>
 7    1  0.1999542E-015  0.9000774E+02  0.7816164E-02  0.1186339E+00
        -11   -1    0    0    0    0  0.00000000000E+00  0.00000000000E+00  0.45593999997E+02  0.45594000000E+02  0.51100000000E-03 0.  1.
         11   -1    0    0    0    0 -0.00000000000E+00 -0.00000000000E+00 -0.45593999997E+02  0.45594000000E+02  0.51100000000E-03 0. -1.
    9900012    2    1    2    0    0 -0.57148363662E-01  0.10849725161E+01 -0.46107896772E+00  0.90007735152E+02  0.89999996456E+02 0.  0.
         12    1    1    2    0    0  0.57148363662E-01 -0.10849725161E+01  0.46107896772E+00  0.11802648476E+01  0.00000000000E+00 0. -1.
         11    1    3    3    0    0 -0.96969829233E+01 -0.26024669526E+02  0.20080297944E+02  0.34271464333E+02  0.51100000000E-03 0. -1.
        -11    1    3    3    0    0  0.31547182308E+01  0.16649549580E+00  0.12337854045E+02  0.12735878869E+02  0.51100000000E-03 0.  1.
        -12    1    3    3    0    0  0.64851163289E+01  0.26943146546E+02 -0.32879230956E+02  0.43000391951E+02  0.00000000000E+00 0.  1.
</event>
<event>
 7    1  0.1999542E-015  0.9000780E+02  0.7816164E-02  0.1186339E+00
        -11   -1    0    0    0    0  0.00000000000E+00  0.00000000000E+00  0.45593999997E+02  0.45594000000E+02  0.51100000000E-03 0.  1.
         11   -1    0    0    0    0 -0.00000000000E+00 -0.00000000000E+00 -0.45593999997E+02  0.45594000000E+02  0.51100000000E-03 0. -1.
    9900012    2    1    2    0    0  0.11046311197E+01  0.13341237708E+00  0.39351897731E+00  0.90007802577E+02  0.90000064770E+02 0.  0.
         12    1    1    2    0    0 -0.11046311197E+01 -0.13341237708E+00 -0.39351897731E+00  0.11801974235E+01  0.00000000000E+00 0. -1.
         11    1    3    3    0    0 -0.15301754982E+02 -0.11264292106E+02 -0.27753152414E+02  0.33634289815E+02  0.51100000000E-03 0. -1.
        -11    1    3    3    0    0 -0.92676995952E+01 -0.97116452841E+01  0.10051396648E+01  0.13461672107E+02  0.51100000000E-03 0.  1.
        -12    1    3    3    0    0  0.25674085697E+02  0.21109349767E+02  0.27141531726E+02  0.42911840655E+02  0.00000000000E+00 0.  1.
</event>
<event>
 7    1  0.1999542E-015  0.9000771E+02  0.7816164E-02  0.1186339E+00
        -11   -1    0    0    0    0  0.00000000000E+00  0.00000000000E+00  0.45593999997E+02  0.45594000000E+02  0.51100000000E-03 0.  1.
         11   -1    0    0    0    0 -0.00000000000E+00 -0.00000000000E+00 -0.45593999997E+02  0.45594000000E+02  0.51100000000E-03 0. -1.
    9900012    2    1    2    0    0  0.51132505873E+00 -0.93375055529E+00 -0.50965021757E+00  0.90007709036E+02  0.89999969995E+02 0.  0.
         12    1    1    2    0    0 -0.51132505873E+00  0.93375055529E+00  0.50965021757E+00  0.11802909639E+01  0.00000000000E+00 0. -1.
         11    1    3    3    0    0 -0.15457708948E+02  0.51680536189E+01 -0.17459396315E+02  0.23884724492E+02  0.51100000000E-03 0. -1.
        -11    1    3    3    0    0 -0.21725039649E+02  0.56006690131E+01 -0.16402996066E+01  0.22495231144E+02  0.51100000000E-03 0.  1.
        -12    1    3    3    0    0  0.37694073656E+02 -0.11702473187E+02  0.18590045704E+02  0.43627753400E+02  0.00000000000E+00 0.  1.
</event>
<event>
 7    1  0.1999542E-015  0.9000777E+02  0.7816164E-02  0.1186339E+00
        -11   -1    0    0    0    0  0.00000000000E+00  0.00000000000E+00  0.45593999997E+02  0.45594000000E+02  0.51100000000E-03 0. -1.
         11   -1    0    0    0    0 -0.00000000000E+00 -0.00000000000E+00 -0.45593999997E+02  0.45594000000E+02  0.51100000000E-03 0.  1.
    9900012    2    1    2    0    0 -0.17924712572E+00  0.34572024645E+00 -0.11141336460E+01  0.90007768751E+02  0.90000030498E+02 0.  0.
         12    1    1    2    0    0  0.17924712572E+00 -0.34572024645E+00  0.11141336460E+01  0.11802312494E+01  0.00000000000E+00 0. -1.
         11    1    3    3    0    0 -0.15999211436E+02  0.56757856600E+01  0.53282002284E+01  0.17792667798E+02  0.51100000000E-03 0. -1.
        -11    1    3    3    0    0 -0.17806020903E+02  0.59526425682E+01 -0.25722251058E+02  0.31845290605E+02  0.51100000000E-03 0.  1.
         12    1    3    3    0    0  0.33625985213E+02 -0.11282707982E+02  0.19279917184E+02  0.40369810348E+02  0.00000000000E+00 0. -1.
</event>
<event>
 7    1  0.2031213E-015  0.9000779E+02  0.7816164E-02  0.1186339E+00
        -11   -1    0    0    0    0  0.00000000000E+00  0.00000000000E+00  0.45593999997E+02  0.45594000000E+02  0.51100000000E-03 0. -1.
         11   -1    0    0    0    0 -0.00000000000E+00 -0.00000000000E+00 -0.45593999997E+02  0.45594000000E+02  0.51100000000E-03 0.  1.
    9900012    2    1    2    0    0 -0.15807015607E+00  0.10554265166E+01 -0.50396123543E+00  0.90007793140E+02  0.90000055209E+02 0.  0.
         12    1    1    2    0    0  0.15807015607E+00 -0.10554265166E+01  0.50396123543E+00  0.11802068602E+01  0.00000000000E+00 0. -1.
         11    1    3    3    0    0  0.29506688019E+02  0.30568249685E+02 -0.11107176295E+01  0.42500543767E+02  0.51100000000E-03 0. -1.
        -11    1    3    3    0    0 -0.65050609059E+01 -0.46815354600E+00 -0.70226838901E+01  0.95840009606E+01  0.51100000000E-03 0.  1.
        -12    1    3    3    0    0 -0.23159697269E+02 -0.29044669622E+02  0.76294402842E+01  0.37923248412E+02  0.00000000000E+00 0.  1.
</event>
<event>
 7    1  0.1999542E-015  0.9000777E+02  0.7816164E-02  0.1186339E+00
        -11   -1    0    0    0    0  0.00000000000E+00  0.00000000000E+00  0.45593999997E+02  0.45594000000E+02  0.51100000000E-03 0. -1.
         11   -1    0    0    0    0 -0.00000000000E+00 -0.00000000000E+00 -0.45593999997E+02  0.45594000000E+02  0.51100000000E-03 0.  1.
    9900012    2    1    2    0    0 -0.43074973828E+00 -0.89877324659E+00  0.63214524784E+00  0.90007768540E+02  0.90000030284E+02 0.  0.
         12    1    1    2    0    0  0.43074973828E+00  0.89877324659E+00 -0.63214524784E+00  0.11802314604E+01  0.00000000000E+00 0. -1.
         11    1    3    3    0    0  0.36005745350E+01 -0.74578716727E+01 -0.34592857310E+01  0.89750011085E+01  0.51100000000E-03 0. -1.
        -11    1    3    3    0    0  0.16679997435E+02  0.17359603868E+02 -0.30770335035E+02  0.39069062944E+02  0.51100000000E-03 0.  1.
         12    1    3    3    0    0 -0.20711321708E+02 -0.10800505442E+02  0.34861766014E+02  0.41963704487E+02  0.00000000000E+00 0. -1.
</event>
<event>
 7    1  0.1999542E-015  0.9000782E+02  0.7816164E-02  0.1186339E+00
        -11   -1    0    0    0    0  0.00000000000E+00  0.00000000000E+00  0.45593999997E+02  0.45594000000E+02  0.51100000000E-03 0.  1.
         11   -1    0    0    0    0 -0.00000000000E+00 -0.00000000000E+00 -0.45593999997E+02  0.45594000000E+02  0.51100000000E-03 0. -1.
    9900012    2    1    2    0    0 -0.11737484785E+01  0.12035664143E+00 -0.25759334813E-01  0.90007815796E+02  0.90000078165E+02 0.  0.
         12    1    1    2    0    0  0.11737484785E+01 -0.12035664143E+00  0.25759334813E-01  0.11801842039E+01  0.00000000000E+00 0. -1.
         11    1    3    3    0    0 -0.20317163790E+01 -0.84182083243E+01  0.59884722491E+01  0.10528812990E+02  0.51100000000E-03 0. -1.
        -11    1    3    3    0    0 -0.18518464986E+02  0.31538675076E+02  0.18215543804E+02  0.40858629533E+02  0.51100000000E-03 0.  1.
         12    1    3    3    0    0  0.19376432886E+02 -0.23000110110E+02 -0.24229775387E+02  0.38620373274E+02  0.00000000000E+00 0. -1.
</event>
<event>
 7    1  0.1999542E-015  0.9000770E+02  0.7816164E-02  0.1186339E+00
        -11   -1    0    0    0    0  0.00000000000E+00  0.00000000000E+00  0.45593999997E+02  0.45594000000E+02  0.51100000000E-03 0. -1.
         11   -1    0    0    0    0 -0.00000000000E+00 -0.00000000000E+00 -0.45593999997E+02  0.45594000000E+02  0.51100000000E-03 0.  1.
    9900012    2    1    2    0    0  0.41302397498E-01 -0.42980979910E+00 -0.10984782645E+01  0.90007704762E+02  0.89999965665E+02 0.  0.
         12    1    1    2    0    0 -0.41302397498E-01  0.42980979910E+00  0.10984782645E+01  0.11802952381E+01  0.00000000000E+00 0. -1.
         11    1    3    3    0    0  0.48102785850E+00 -0.86771030341E+01  0.15344474141E+02  0.17634522726E+02  0.51100000000E-03 0. -1.
        -11    1    3    3    0    0  0.25446547440E+02 -0.17152837360E+02  0.36636885850E+01  0.30905812082E+02  0.51100000000E-03 0.  1.
         12    1    3    3    0    0 -0.25886272901E+02  0.25400130595E+02 -0.20106640991E+02  0.41467369954E+02  0.00000000000E+00 0. -1.
</event>
<event>
 7    1  0.1999542E-015  0.9000773E+02  0.7816164E-02  0.1186339E+00
        -11   -1    0    0    0    0  0.00000000000E+00  0.00000000000E+00  0.45593999997E+02  0.45594000000E+02  0.51100000000E-03 0. -1.
         11   -1    0    0    0    0 -0.00000000000E+00 -0.00000000000E+00 -0.45593999997E+02  0.45594000000E+02  0.51100000000E-03 0.  1.
    9900012    2    1    2    0    0 -0.30075372047E+00  0.72578681420E+00 -0.88080701979E+00  0.90007728715E+02  0.89999989934E+02 0.  0.
         12    1    1    2    0    0  0.30075372047E+00 -0.72578681420E+00  0.88080701979E+00  0.11802712850E+01  0.00000000000E+00 0. -1.
         11    1    3    3    0    0  0.15514249913E+02 -0.32227949720E+02 -0.42335429595E+01  0.36017434386E+02  0.51100000000E-03 0. -1.
        -11    1    3    3    0    0  0.95998954593E+01 -0.27784848591E+01 -0.21964536633E+00  0.99963100837E+01  0.51100000000E-03 0.  1.
        -12    1    3    3    0    0 -0.25414899093E+02  0.35732221393E+02  0.35723813060E+01  0.43993984245E+02  0.00000000000E+00 0.  1.
</event>
<event>
 7    1  0.1999542E-015  0.9000774E+02  0.7816164E-02  0.1186339E+00
        -11   -1    0    0    0    0  0.00000000000E+00  0.00000000000E+00  0.45593999997E+02  0.45594000000E+02  0.51100000000E-03 0. -1.
         11   -1    0    0    0    0 -0.00000000000E+00 -0.00000000000E+00 -0.45593999997E+02  0.45594000000E+02  0.51100000000E-03 0.  1.
    9900012    2    1    2    0    0  0.38103881640E+00  0.78686780042E+00 -0.79288864270E+00  0.90007735659E+02  0.89999996970E+02 0.  0.
         12    1    1    2    0    0 -0.38103881640E+00 -0.78686780042E+00  0.79288864270E+00  0.11802643410E+01  0.00000000000E+00 0. -1.
         11    1    3    3    0    0  0.86572805913E+01  0.33174217511E+01 -0.74323578126E+00  0.93008706044E+01  0.51100000000E-03 0. -1.
        -11    1    3    3    0    0  0.11392372969E+02  0.41856168088E+00 -0.37015032579E+02  0.38730788694E+02  0.51100000000E-03 0.  1.
         12    1    3    3    0    0 -0.19668614744E+02 -0.29491156316E+01  0.36965379718E+02  0.41976076361E+02  0.00000000000E+00 0. -1.
</event>
<event>
 7    1  0.1999542E-015  0.9000769E+02  0.7816164E-02  0.1186339E+00
        -11   -1    0    0    0    0  0.00000000000E+00  0.00000000000E+00  0.45593999997E+02  0.45594000000E+02  0.51100000000E-03 0.  1.
         11   -1    0    0    0    0 -0.00000000000E+00 -0.00000000000E+00 -0.45593999997E+02  0.45594000000E+02  0.51100000000E-03 0. -1.
    9900012    2    1    2    0    0 -0.67374220776E+00 -0.95636580533E+00 -0.15670532828E+00  0.90007694668E+02  0.89999955438E+02 0.  0.
         12    1    1    2    0    0  0.67374220776E+00  0.95636580533E+00  0.15670532828E+00  0.11803053317E+01  0.00000000000E+00 0. -1.
         11    1    3    3    0    0 -0.74716094557E+01 -0.48695960390E+01 -0.57512381503E+01  0.10612005181E+02  0.51100000000E-03 0. -1.
        -11    1    3    3    0    0  0.32622728987E+02 -0.23765395656E+02 -0.33430710572E+01  0.40499538289E+02  0.51100000000E-03 0.  1.
         12    1    3    3    0    0 -0.25824861739E+02  0.27678625890E+02  0.89376038792E+01  0.38896151199E+02  0.00000000000E+00 0. -1.
</event>
<event>
 7    1  0.1999542E-015  0.9000751E+02  0.7816164E-02  0.1186340E+00
        -11   -1    0    0    0    0  0.00000000000E+00  0.00000000000E+00  0.45593999997E+02  0.45594000000E+02  0.51100000000E-03 0.  1.
         11   -1    0    0    0    0 -0.00000000000E+00 -0.00000000000E+00 -0.45593999997E+02  0.45594000000E+02  0.51100000000E-03 0. -1.
    9900012    2    1    2    0    0  0.77033522449E+00  0.54470090305E+00  0.70954230776E+00  0.90007506155E+02  0.89999764436E+02 0.  0.
         12    1    1    2    0    0 -0.77033522449E+00 -0.54470090305E+00 -0.70954230776E+00  0.11804938451E+01  0.00000000000E+00 0. -1.
         11    1    3    3    0    0 -0.12532259289E+02 -0.29598014974E+01 -0.48639990295E+00  0.12886214841E+02  0.51100000000E-03 0. -1.
        -11    1    3    3    0    0 -0.17753268831E+02 -0.27672787206E+02  0.34470108587E+01  0.33058184918E+02  0.51100000000E-03 0.  1.
         12    1    3    3    0    0  0.31055863345E+02  0.31177289606E+02 -0.22510686480E+01  0.44063106397E+02  0.00000000000E+00 0. -1.
</event>
<event>
 7    1  0.1999542E-015  0.9000774E+02  0.7816164E-02  0.1186339E+00
        -11   -1    0    0    0    0  0.00000000000E+00  0.00000000000E+00  0.45593999997E+02  0.45594000000E+02  0.51100000000E-03 0. -1.
         11   -1    0    0    0    0 -0.00000000000E+00 -0.00000000000E+00 -0.45593999997E+02  0.45594000000E+02  0.51100000000E-03 0.  1.
    9900012    2    1    2    0    0  0.48961828447E+00 -0.60825409440E+00 -0.88505079794E+00  0.90007739850E+02  0.90000001216E+02 0.  0.
         12    1    1    2    0    0 -0.48961828447E+00  0.60825409440E+00  0.88505079794E+00  0.11802601505E+01  0.00000000000E+00 0. -1.
         11    1    3    3    0    0  0.21991062257E+01  0.13645722091E+01 -0.10675221443E+02  0.10984465332E+02  0.51100000000E-03 0. -1.
        -11    1    3    3    0    0  0.64911032800E+01 -0.28132963503E+02 -0.22544034802E+02  0.36631019133E+02  0.51100000000E-03 0.  1.
         12    1    3    3    0    0 -0.82005912212E+01  0.26160137200E+02  0.32334205448E+02  0.42392255385E+02  0.00000000000E+00 0. -1.
</event>
<event>
 7    1  0.1999542E-015  0.9000749E+02  0.7816164E-02  0.1186340E+00
        -11   -1    0    0    0    0  0.00000000000E+00  0.00000000000E+00  0.45593999997E+02  0.45594000000E+02  0.51100000000E-03 0.  1.
         11   -1    0    0    0    0 -0.00000000000E+00 -0.00000000000E+00 -0.45593999997E+02  0.45594000000E+02  0.51100000000E-03 0. -1.
    9900012    2    1    2    0    0 -0.43428008858E+00 -0.83952767222E+00  0.70724373282E+00  0.90007491802E+02  0.89999749894E+02 0.  0.
         12    1    1    2    0    0  0.43428008858E+00  0.83952767222E+00 -0.70724373282E+00  0.11805081979E+01  0.00000000000E+00 0. -1.
         11    1    3    3    0    0  0.11202314223E+01  0.85969857163E+01  0.14685648345E+01  0.87931657997E+01  0.51100000000E-03 0. -1.
        -11    1    3    3    0    0 -0.22912173426E+01  0.24800227811E+02 -0.27988091113E+02  0.37465106710E+02  0.51100000000E-03 0.  1.
         12    1    3    3    0    0  0.73670583169E+00 -0.34236741199E+02  0.27226770012E+02  0.43749219292E+02  0.00000000000E+00 0. -1.
</event>
<event>
 7    1  0.1999542E-015  0.9000782E+02  0.7816164E-02  0.1186339E+00
        -11   -1    0    0    0    0  0.00000000000E+00  0.00000000000E+00  0.45593999997E+02  0.45594000000E+02  0.51100000000E-03 0. -1.
         11   -1    0    0    0    0 -0.00000000000E+00 -0.00000000000E+00 -0.45593999997E+02  0.45594000000E+02  0.51100000000E-03 0.  1.
    9900012    2    1    2    0    0 -0.16986142321E-02  0.40568025835E+00 -0.11082571906E+01  0.90007824861E+02  0.90000087349E+02 0.  0.
         12    1    1    2    0    0  0.16986142321E-02 -0.40568025835E+00  0.11082571906E+01  0.11801751387E+01  0.00000000000E+00 0. -1.
         11    1    3    3    0    0  0.54833820230E+01  0.50739396945E+01 -0.60061626486E+01  0.95857358849E+01  0.51100000000E-03 0. -1.
        -11    1    3    3    0    0 -0.77655741534E+01  0.27849550572E+02 -0.23446904495E+02  0.37224440086E+02  0.51100000000E-03 0.  1.
         12    1    3    3    0    0  0.22804935162E+01 -0.32517810009E+02  0.28344809953E+02  0.43197648891E+02  0.00000000000E+00 0. -1.
</event>
<event>
 7    1  0.1999542E-015  0.9000769E+02  0.7816164E-02  0.1186339E+00
        -11   -1    0    0    0    0  0.00000000000E+00  0.00000000000E+00  0.45593999997E+02  0.45594000000E+02  0.51100000000E-03 0.  1.
         11   -1    0    0    0    0 -0.00000000000E+00 -0.00000000000E+00 -0.45593999997E+02  0.45594000000E+02  0.51100000000E-03 0. -1.
    9900012    2    1    2    0    0 -0.13755381540E+00 -0.10855665063E+01  0.44244283967E+00  0.90007690143E+02  0.89999950853E+02 0.  0.
         12    1    1    2    0    0  0.13755381540E+00  0.10855665063E+01 -0.44244283967E+00  0.11803098568E+01  0.00000000000E+00 0. -1.
         11    1    3    3    0    0 -0.22424251790E+02  0.26477261006E+02  0.12268080776E+02  0.36802149732E+02  0.51100000000E-03 0. -1.
        -11    1    3    3    0    0 -0.67456504164E+00  0.47011596183E+01  0.77048391347E+01  0.90509936529E+01  0.51100000000E-03 0.  1.
        -12    1    3    3    0    0  0.22961263016E+02 -0.32263987130E+02 -0.19530477071E+02  0.44154546759E+02  0.00000000000E+00 0.  1.
</event>
<event>
 7    1  0.1999542E-015  0.9000765E+02  0.7816164E-02  0.1186339E+00
        -11   -1    0    0    0    0  0.00000000000E+00  0.00000000000E+00  0.45593999997E+02  0.45594000000E+02  0.51100000000E-03 0.  1.
         11   -1    0    0    0    0 -0.00000000000E+00 -0.00000000000E+00 -0.45593999997E+02  0.45594000000E+02  0.51100000000E-03 0. -1.
    9900012    2    1    2    0    0 -0.93911719147E+00 -0.64781263244E+00 -0.30268846809E+00  0.90007651486E+02  0.89999911685E+02 0.  0.
         12    1    1    2    0    0  0.93911719147E+00  0.64781263244E+00  0.30268846809E+00  0.11803485141E+01  0.00000000000E+00 0. -1.
         11    1    3    3    0    0 -0.51570160269E+01 -0.51191560014E+01 -0.58768590544E+01  0.93454826026E+01  0.51100000000E-03 0. -1.
        -11    1    3    3    0    0 -0.30764568247E+02  0.24133653888E+02  0.98008760785E+01  0.40310657171E+02  0.51100000000E-03 0.  1.
         12    1    3    3    0    0  0.34982467083E+02 -0.19662310519E+02 -0.42267054922E+01  0.40351511712E+02  0.00000000000E+00 0. -1.
</event>
<event>
 7    1  0.1999542E-015  0.9000778E+02  0.7816164E-02  0.1186339E+00
        -11   -1    0    0    0    0  0.00000000000E+00  0.00000000000E+00  0.45593999997E+02  0.45594000000E+02  0.51100000000E-03 0.  1.
         11   -1    0    0    0    0 -0.00000000000E+00 -0.00000000000E+00 -0.45593999997E+02  0.45594000000E+02  0.51100000000E-03 0. -1.
    9900012    2    1    2    0    0 -0.21051920008E+00  0.49554422675E+00  0.10502583993E+01  0.90007777513E+02  0.90000039376E+02 0.  0.
         12    1    1    2    0    0  0.21051920008E+00 -0.49554422675E+00 -0.10502583993E+01  0.11802224873E+01  0.00000000000E+00 0. -1.
         11    1    3    3    0    0 -0.11950042718E+02 -0.23012232252E+02 -0.32652228161E+02  0.41695735493E+02  0.51100000000E-03 0. -1.
        -11    1    3    3    0    0  0.65659827296E+01 -0.32277913028E+01  0.59465781315E+01  0.94282849785E+01  0.51100000000E-03 0.  1.
        -12    1    3    3    0    0  0.51735407887E+01  0.26735567782E+02  0.27755908429E+02  0.38883757041E+02  0.00000000000E+00 0.  1.
</event>
<event>
 7    1  0.1999542E-015  0.9000774E+02  0.7816164E-02  0.1186339E+00
        -11   -1    0    0    0    0  0.00000000000E+00  0.00000000000E+00  0.45593999997E+02  0.45594000000E+02  0.51100000000E-03 0. -1.
         11   -1    0    0    0    0 -0.00000000000E+00 -0.00000000000E+00 -0.45593999997E+02  0.45594000000E+02  0.51100000000E-03 0.  1.
    9900012    2    1    2    0    0 -0.99888742094E+00 -0.62258708788E+00 -0.87320835221E-01  0.90007739143E+02  0.90000000500E+02 0.  0.
         12    1    1    2    0    0  0.99888742094E+00  0.62258708788E+00  0.87320835221E-01  0.11802608567E+01  0.00000000000E+00 0. -1.
         11    1    3    3    0    0 -0.15774315202E+02  0.10697555372E+01 -0.74281727545E+00  0.15827987073E+02  0.51100000000E-03 0. -1.
        -11    1    3    3    0    0 -0.20649084712E+02  0.11002170548E+02 -0.20415212598E+02  0.31051785164E+02  0.51100000000E-03 0.  1.
        -12    1    3    3    0    0  0.35424512494E+02 -0.12694513173E+02  0.21070709038E+02  0.43127966906E+02  0.00000000000E+00 0.  1.
</event>
<event>
 7    1  0.1999542E-015  0.9000882E+02  0.7816164E-02  0.1186337E+00
        -11   -1    0    0    0    0  0.00000000000E+00  0.00000000000E+00  0.45593999997E+02  0.45594000000E+02  0.51100000000E-03 0.  1.
         11   -1    0    0    0    0 -0.00000000000E+00 -0.00000000000E+00 -0.45593999997E+02  0.45594000000E+02  0.51100000000E-03 0. -1.
    9900012    2    1    2    0    0 -0.33928460388E+00  0.39339304980E+00  0.10585786291E+01  0.90008821961E+02  0.90001097604E+02 0.  0.
         12    1    1    2    0    0  0.33928460388E+00 -0.39339304980E+00 -0.10585786291E+01  0.11791780391E+01  0.00000000000E+00 0. -1.
         11    1    3    3    0    0 -0.65641967728E+01  0.10615105032E+02 -0.40623946283E+02  0.42497931079E+02  0.51100000000E-03 0. -1.
        -11    1    3    3    0    0  0.61756848830E+01 -0.69756939590E+01  0.47900851569E+01  0.10475891659E+02  0.51100000000E-03 0.  1.
        -12    1    3    3    0    0  0.49227285908E-01 -0.32460180234E+01  0.36892439755E+02  0.37034999223E+02  0.00000000000E+00 0.  1.
</event>
<event>
 7    1  0.1999542E-015  0.9000656E+02  0.7816164E-02  0.1186341E+00
        -11   -1    0    0    0    0  0.00000000000E+00  0.00000000000E+00  0.45593999997E+02  0.45594000000E+02  0.51100000000E-03 0. -1.
         11   -1    0    0    0    0 -0.00000000000E+00 -0.00000000000E+00 -0.45593999997E+02  0.45594000000E+02  0.51100000000E-03 0.  1.
    9900012    2    1    2    0    0  0.17698485062E+00  0.90642970285E+00  0.73678730851E+00  0.90006562748E+02  0.89998808568E+02 0.  0.
         12    1    1    2    0    0 -0.17698485062E+00 -0.90642970285E+00 -0.73678730851E+00  0.11814372525E+01  0.00000000000E+00 0. -1.
         11    1    3    3    0    0 -0.52673486681E+01  0.67560347406E+01 -0.20868811833E+01  0.88172581193E+01  0.51100000000E-03 0. -1.
        -11    1    3    3    0    0  0.29246143352E+02  0.16409829748E+02 -0.22099976700E+02  0.40162524618E+02  0.51100000000E-03 0.  1.
         12    1    3    3    0    0 -0.23801809833E+02 -0.22259434785E+02  0.24923645192E+02  0.41026780010E+02  0.00000000000E+00 0. -1.
</event>
<event>
 7    1  0.1999542E-015  0.9000768E+02  0.7816164E-02  0.1186339E+00
        -11   -1    0    0    0    0  0.00000000000E+00  0.00000000000E+00  0.45593999997E+02  0.45594000000E+02  0.51100000000E-03 0.  1.
         11   -1    0    0    0    0 -0.00000000000E+00 -0.00000000000E+00 -0.45593999997E+02  0.45594000000E+02  0.51100000000E-03 0. -1.
    9900012    2    1    2    0    0  0.34836346446E+00  0.11101923725E+01  0.19814781486E+00  0.90007683617E+02  0.89999944241E+02 0.  0.
         12    1    1    2    0    0 -0.34836346446E+00 -0.11101923725E+01 -0.19814781486E+00  0.11803163829E+01  0.00000000000E+00 0. -1.
         11    1    3    3    0    0  0.32753495237E+01 -0.86436296006E+01 -0.15839721034E+01  0.93781242826E+01  0.51100000000E-03 0. -1.
        -11    1    3    3    0    0  0.28905208186E+02 -0.17948718016E+02 -0.12244761051E+02  0.36160775879E+02  0.51100000000E-03 0.  1.
         12    1    3    3    0    0 -0.31832194245E+02  0.27702539989E+02  0.14026880969E+02  0.44468783456E+02  0.00000000000E+00 0. -1.
</event>
<event>
 7    1  0.1999542E-015  0.9000780E+02  0.7816164E-02  0.1186339E+00
        -11   -1    0    0    0    0  0.00000000000E+00  0.00000000000E+00  0.45593999997E+02  0.45594000000E+02  0.51100000000E-03 0.  1.
         11   -1    0    0    0    0 -0.00000000000E+00 -0.00000000000E+00 -0.45593999997E+02  0.45594000000E+02  0.51100000000E-03 0. -1.
    9900012    2    1    2    0    0 -0.56925396032E+00  0.25393211850E+00  0.10021727542E+01  0.90007795856E+02  0.90000057961E+02 0.  0.
         12    1    1    2    0    0  0.56925396032E+00 -0.25393211850E+00 -0.10021727542E+01  0.11802041439E+01  0.00000000000E+00 0. -1.
         11    1    3    3    0    0 -0.23953460733E+02 -0.30220438819E+02 -0.20365308998E+02  0.43609506008E+02  0.51100000000E-03 0. -1.
        -11    1    3    3    0    0  0.56900747493E+01  0.80874919627E+01 -0.12759164104E+01  0.99705787117E+01  0.51100000000E-03 0.  1.
        -12    1    3    3    0    0  0.17694132023E+02  0.22386878975E+02  0.22643398162E+02  0.36427711136E+02  0.00000000000E+00 0.  1.
</event>
<event>
 7    1  0.1999542E-015  0.9000784E+02  0.7816164E-02  0.1186339E+00
        -11   -1    0    0    0    0  0.00000000000E+00  0.00000000000E+00  0.45593999997E+02  0.45594000000E+02  0.51100000000E-03 0.  1.
         11   -1    0    0    0    0 -0.00000000000E+00 -0.00000000000E+00 -0.45593999997E+02  0.45594000000E+02  0.51100000000E-03 0. -1.
    9900012    2    1    2    0    0  0.18433693241E+00 -0.90086893697E+00  0.73974597462E+00  0.90007843632E+02  0.90000106368E+02 0.  0.
         12    1    1    2    0    0 -0.18433693241E+00  0.90086893697E+00 -0.73974597462E+00  0.11801563681E+01  0.00000000000E+00 0. -1.
         11    1    3    3    0    0  0.86230112882E+01  0.36247817034E+01  0.49319357045E+01  0.10574467179E+02  0.51100000000E-03 0. -1.
        -11    1    3    3    0    0 -0.62757517974E+00  0.26316438835E+02  0.24963896165E+02  0.36278711603E+02  0.51100000000E-03 0.  1.
         12    1    3    3    0    0 -0.78110991760E+01 -0.30842089475E+02 -0.29156085895E+02  0.43154664849E+02  0.00000000000E+00 0. -1.
</event>
<event>
 7    1  0.1999542E-015  0.9000777E+02  0.7816164E-02  0.1186339E+00
        -11   -1    0    0    0    0  0.00000000000E+00  0.00000000000E+00  0.45593999997E+02  0.45594000000E+02  0.51100000000E-03 0.  1.
         11   -1    0    0    0    0 -0.00000000000E+00 -0.00000000000E+00 -0.45593999997E+02  0.45594000000E+02  0.51100000000E-03 0. -1.
    9900012    2    1    2    0    0 -0.72657963554E+00 -0.13227741125E+00  0.92060892468E+00  0.90007772872E+02  0.90000034674E+02 0.  0.
         12    1    1    2    0    0  0.72657963554E+00  0.13227741125E+00 -0.92060892468E+00  0.11802271275E+01  0.00000000000E+00 0. -1.
         11    1    3    3    0    0  0.83816740022E+01 -0.27938012230E+01 -0.29319955955E+02  0.30622175001E+02  0.51100000000E-03 0. -1.
        -11    1    3    3    0    0  0.16802697621E+02  0.73674675012E+01 -0.11842032495E+01  0.18385117958E+02  0.51100000000E-03 0.  1.
        -12    1    3    3    0    0 -0.25910951259E+02 -0.47059436895E+01  0.31424768129E+02  0.41000479913E+02  0.00000000000E+00 0.  1.
</event>
<event>
 7    1  0.1999542E-015  0.9000783E+02  0.7816164E-02  0.1186339E+00
        -11   -1    0    0    0    0  0.00000000000E+00  0.00000000000E+00  0.45593999997E+02  0.45594000000E+02  0.51100000000E-03 0.  1.
         11   -1    0    0    0    0 -0.00000000000E+00 -0.00000000000E+00 -0.45593999997E+02  0.45594000000E+02  0.51100000000E-03 0. -1.
    9900012    2    1    2    0    0 -0.10288940528E-01 -0.11660144626E+01  0.18194403370E+00  0.90007830851E+02  0.90000093418E+02 0.  0.
         12    1    1    2    0    0  0.10288940528E-01  0.11660144626E+01 -0.18194403370E+00  0.11801691491E+01  0.00000000000E+00 0. -1.
         11    1    3    3    0    0  0.36200026600E+01  0.72281877565E+01  0.58161198804E+01  0.99588336780E+01  0.51100000000E-03 0. -1.
        -11    1    3    3    0    0  0.12726772334E+02  0.52377575526E+01  0.33100547756E+02  0.35847609408E+02  0.51100000000E-03 0.  1.
         12    1    3    3    0    0 -0.16357063934E+02 -0.13631959772E+02 -0.38734723603E+02  0.44201387765E+02  0.00000000000E+00 0. -1.
</event>
<event>
 7    1  0.1999542E-015  0.9000773E+02  0.7816164E-02  0.1186339E+00
        -11   -1    0    0    0    0  0.00000000000E+00  0.00000000000E+00  0.45593999997E+02  0.45594000000E+02  0.51100000000E-03 0.  1.
         11   -1    0    0    0    0 -0.00000000000E+00 -0.00000000000E+00 -0.45593999997E+02  0.45594000000E+02  0.51100000000E-03 0. -1.
    9900012    2    1    2    0    0  0.86411798536E+00 -0.24417409405E+00  0.76597988737E+00  0.90007726274E+02  0.89999987461E+02 0.  0.
         12    1    1    2    0    0 -0.86411798536E+00  0.24417409405E+00 -0.76597988737E+00  0.11802737262E+01  0.00000000000E+00 0. -1.
         11    1    3    3    0    0  0.86307558262E+00 -0.65587708222E+01  0.72968759447E+01  0.98492016415E+01  0.51100000000E-03 0. -1.
        -11    1    3    3    0    0  0.72959323615E+01  0.32039316054E+02  0.23160610340E+02  0.40201520790E+02  0.51100000000E-03 0.  1.
         12    1    3    3    0    0 -0.72948899588E+01 -0.25724719326E+02 -0.29691506397E+02  0.39957003842E+02  0.00000000000E+00 0. -1.
</event>
<event>
 7    1  0.1999542E-015  0.9000771E+02  0.7816164E-02  0.1186339E+00
        -11   -1    0    0    0    0  0.00000000000E+00  0.00000000000E+00  0.45593999997E+02  0.45594000000E+02  0.51100000000E-03 0.  1.
         11   -1    0    0    0    0 -0.00000000000E+00 -0.00000000000E+00 -0.45593999997E+02  0.45594000000E+02  0.51100000000E-03 0. -1.
    9900012    2    1    2    0    0  0.33803044968E+00 -0.18758862257E+00  0.11151809498E+01  0.90007710787E+02  0.89999971769E+02 0.  0.
         12    1    1    2    0    0 -0.33803044968E+00  0.18758862257E+00 -0.11151809498E+01  0.11802892133E+01  0.00000000000E+00 0. -1.
         11    1    3    3    0    0 -0.70399805004E+00  0.43309011769E+01  0.81249652870E+01  0.92340337575E+01  0.51100000000E-03 0. -1.
        -11    1    3    3    0    0 -0.18845284872E+02 -0.26062532571E+02  0.22440346238E+02  0.39216954312E+02  0.51100000000E-03 0.  1.
         12    1    3    3    0    0  0.19887313372E+02  0.21544042772E+02 -0.29450130575E+02  0.41556722717E+02  0.00000000000E+00 0. -1.
</event>
<event>
 7    1  0.1999542E-015  0.9000773E+02  0.7816164E-02  0.1186339E+00
        -11   -1    0    0    0    0  0.00000000000E+00  0.00000000000E+00  0.45593999997E+02  0.45594000000E+02  0.51100000000E-03 0. -1.
         11   -1    0    0    0    0 -0.00000000000E+00 -0.00000000000E+00 -0.45593999997E+02  0.45594000000E+02  0.51100000000E-03 0.  1.
    9900012    2    1    2    0    0 -0.84906789367E+00 -0.57733798818E-01 -0.81779124756E+00  0.90007732232E+02  0.89999993497E+02 0.  0.
         12    1    1    2    0    0  0.84906789367E+00  0.57733798818E-01  0.81779124756E+00  0.11802677680E+01  0.00000000000E+00 0. -1.
         11    1    3    3    0    0  0.35839063056E+02 -0.52388640508E+01  0.19551294647E+02  0.41159898687E+02  0.51100000000E-03 0. -1.
        -11    1    3    3    0    0 -0.39512407361E+01 -0.98527334428E+00  0.53774895514E+01  0.67454029572E+01  0.51100000000E-03 0.  1.
        -12    1    3    3    0    0 -0.32736890214E+02  0.61664035963E+01 -0.25746575446E+02  0.42102430588E+02  0.00000000000E+00 0.  1.
</event>
<event>
 7    1  0.1999542E-015  0.9000698E+02  0.7816164E-02  0.1186341E+00
        -11   -1    0    0    0    0  0.00000000000E+00  0.00000000000E+00  0.45593999997E+02  0.45594000000E+02  0.51100000000E-03 0. -1.
         11   -1    0    0    0    0 -0.00000000000E+00 -0.00000000000E+00 -0.45593999997E+02  0.45594000000E+02  0.51100000000E-03 0.  1.
    9900012    2    1    2    0    0  0.59528177911E-01 -0.83782827717E+00 -0.83024813841E+00  0.90006978494E+02  0.89999229807E+02 0.  0.
         12    1    1    2    0    0 -0.59528177911E-01  0.83782827717E+00  0.83024813841E+00  0.11810215059E+01  0.00000000000E+00 0. -1.
         11    1    3    3    0    0 -0.14057088693E+02  0.36334790982E+02 -0.11478301353E+02  0.40614900966E+02  0.51100000000E-03 0. -1.
        -11    1    3    3    0    0  0.57176372584E+01  0.67096745659E+00  0.88857292939E+01  0.10587622892E+02  0.51100000000E-03 0.  1.
        -12    1    3    3    0    0  0.83989796129E+01 -0.37843586716E+02  0.17623239205E+01  0.38804454637E+02  0.00000000000E+00 0.  1.
</event>
<event>
 7    1  0.1999542E-015  0.9000774E+02  0.7816164E-02  0.1186339E+00
        -11   -1    0    0    0    0  0.00000000000E+00  0.00000000000E+00  0.45593999997E+02  0.45594000000E+02  0.51100000000E-03 0.  1.
         11   -1    0    0    0    0 -0.00000000000E+00 -0.00000000000E+00 -0.45593999997E+02  0.45594000000E+02  0.51100000000E-03 0. -1.
    9900012    2    1    2    0    0  0.71199051617E+00  0.41169349776E-01  0.94041660694E+00  0.90007742060E+02  0.90000003455E+02 0.  0.
         12    1    1    2    0    0 -0.71199051617E+00 -0.41169349776E-01 -0.94041660694E+00  0.11802579401E+01  0.00000000000E+00 0. -1.
         11    1    3    3    0    0  0.28110924081E+02 -0.15047013993E+02  0.75565320510E+01  0.32767939509E+02  0.51100000000E-03 0. -1.
        -11    1    3    3    0    0  0.10292719905E+02 -0.65451720313E+01  0.33577319351E+01  0.12651234089E+02  0.51100000000E-03 0.  1.
        -12    1    3    3    0    0 -0.37691653469E+02  0.21633355374E+02 -0.99738473792E+01  0.44588568462E+02  0.00000000000E+00 0.  1.
</event>
<event>
 7    1  0.1999542E-015  0.9000787E+02  0.7816164E-02  0.1186339E+00
        -11   -1    0    0    0    0  0.00000000000E+00  0.00000000000E+00  0.45593999997E+02  0.45594000000E+02  0.51100000000E-03 0. -1.
         11   -1    0    0    0    0 -0.00000000000E+00 -0.00000000000E+00 -0.45593999997E+02  0.45594000000E+02  0.51100000000E-03 0.  1.
    9900012    2    1    2    0    0  0.23110417280E+00  0.53481389691E+00 -0.10262941962E+01  0.90007866609E+02  0.90000129648E+02 0.  0.
         12    1    1    2    0    0 -0.23110417280E+00 -0.53481389691E+00  0.10262941962E+01  0.11801333908E+01  0.00000000000E+00 0. -1.
         11    1    3    3    0    0 -0.27258892822E+02 -0.27355376869E+02  0.37151221766E+01  0.38796469100E+02  0.51100000000E-03 0. -1.
        -11    1    3    3    0    0 -0.61616619954E+01 -0.10362331155E+01 -0.26495915138E+01  0.67867660241E+01  0.51100000000E-03 0.  1.
        -12    1    3    3    0    0  0.33651658990E+02  0.28926423882E+02 -0.20918248590E+01  0.44424631485E+02  0.00000000000E+00 0.  1.
</event>
<event>
 7    1  0.1999542E-015  0.9000774E+02  0.7816164E-02  0.1186339E+00
        -11   -1    0    0    0    0  0.00000000000E+00  0.00000000000E+00  0.45593999997E+02  0.45594000000E+02  0.51100000000E-03 0.  1.
         11   -1    0    0    0    0 -0.00000000000E+00 -0.00000000000E+00 -0.45593999997E+02  0.45594000000E+02  0.51100000000E-03 0. -1.
    9900012    2    1    2    0    0 -0.10445757418E+00 -0.10665524435E+01  0.49454798482E+00  0.90007735958E+02  0.89999997273E+02 0.  0.
         12    1    1    2    0    0  0.10445757418E+00  0.10665524435E+01 -0.49454798482E+00  0.11802640420E+01  0.00000000000E+00 0. -1.
         11    1    3    3    0    0 -0.40532664798E+01  0.14757505990E+02 -0.37639596086E+02  0.40631910440E+02  0.51100000000E-03 0. -1.
        -11    1    3    3    0    0  0.17011883473E+01  0.72306303008E+01  0.50250476512E+01  0.89681191171E+01  0.51100000000E-03 0.  1.
        -12    1    3    3    0    0  0.22476205583E+01 -0.23054688734E+02  0.33109096420E+02  0.40407706401E+02  0.00000000000E+00 0.  1.
</event>
<event>
 7    1  0.1999542E-015  0.9000778E+02  0.7816164E-02  0.1186339E+00
        -11   -1    0    0    0    0  0.00000000000E+00  0.00000000000E+00  0.45593999997E+02  0.45594000000E+02  0.51100000000E-03 0.  1.
         11   -1    0    0    0    0 -0.00000000000E+00 -0.00000000000E+00 -0.45593999997E+02  0.45594000000E+02  0.51100000000E-03 0. -1.
    9900012    2    1    2    0    0 -0.78489591114E+00  0.13188736375E+00  0.87147365826E+00  0.90007778747E+02  0.90000040627E+02 0.  0.
         12    1    1    2    0    0  0.78489591114E+00 -0.13188736375E+00 -0.87147365826E+00  0.11802212526E+01  0.00000000000E+00 0. -1.
         11    1    3    3    0    0  0.30352838546E+01  0.54971859604E+01 -0.44453096689E+01  0.76936844149E+01  0.51100000000E-03 0. -1.
        -11    1    3    3    0    0 -0.26716014109E+02  0.22529858807E+02  0.23290708418E+02  0.41997583819E+02  0.51100000000E-03 0.  1.
         12    1    3    3    0    0  0.22895834343E+02 -0.27895157404E+02 -0.17973925091E+02  0.40316510514E+02  0.00000000000E+00 0. -1.
</event>
<event>
 7    1  0.1999542E-015  0.9000848E+02  0.7816164E-02  0.1186338E+00
        -11   -1    0    0    0    0  0.00000000000E+00  0.00000000000E+00  0.45593999997E+02  0.45594000000E+02  0.51100000000E-03 0. -1.
         11   -1    0    0    0    0 -0.00000000000E+00 -0.00000000000E+00 -0.45593999997E+02  0.45594000000E+02  0.51100000000E-03 0.  1.
    9900012    2    1    2    0    0 -0.70908746729E+00  0.50603946746E+00 -0.79522377565E+00  0.90008482373E+02  0.90000753537E+02 0.  0.
         12    1    1    2    0    0  0.70908746729E+00 -0.50603946746E+00  0.79522377565E+00  0.11795176269E+01  0.00000000000E+00 0. -1.
         11    1    3    3    0    0 -0.18952302065E+02 -0.23614783204E+02  0.17560275471E+02  0.35003014359E+02  0.51100000000E-03 0. -1.
        -11    1    3    3    0    0 -0.45329040694E+01 -0.83052213648E+01  0.30839450187E+01  0.99516148619E+01  0.51100000000E-03 0.  1.
        -12    1    3    3    0    0  0.22776118667E+02  0.32426044037E+02 -0.21439444266E+02  0.45053853152E+02  0.00000000000E+00 0.  1.
</event>
<event>
 7    1  0.1999542E-015  0.9000773E+02  0.7816164E-02  0.1186339E+00
        -11   -1    0    0    0    0  0.00000000000E+00  0.00000000000E+00  0.45593999997E+02  0.45594000000E+02  0.51100000000E-03 0.  1.
         11   -1    0    0    0    0 -0.00000000000E+00 -0.00000000000E+00 -0.45593999997E+02  0.45594000000E+02  0.51100000000E-03 0. -1.
    9900012    2    1    2    0    0 -0.26680388087E+00  0.99341250255E+00  0.57878173734E+00  0.90007728417E+02  0.89999989632E+02 0.  0.
         12    1    1    2    0    0  0.26680388087E+00 -0.99341250255E+00 -0.57878173734E+00  0.11802715834E+01  0.00000000000E+00 0. -1.
         11    1    3    3    0    0  0.69150988775E+01 -0.68218513767E+01  0.93327497484E+00  0.97584451185E+01  0.51100000000E-03 0. -1.
        -11    1    3    3    0    0  0.23196630078E+02 -0.21896429913E+02  0.14760310981E+02  0.35148315328E+02  0.51100000000E-03 0.  1.
         12    1    3    3    0    0 -0.30378532836E+02  0.29711693792E+02 -0.15114804218E+02  0.45100967970E+02  0.00000000000E+00 0. -1.
</event>
<event>
 7    1  0.1999542E-015  0.9000774E+02  0.7816164E-02  0.1186339E+00
        -11   -1    0    0    0    0  0.00000000000E+00  0.00000000000E+00  0.45593999997E+02  0.45594000000E+02  0.51100000000E-03 0.  1.
         11   -1    0    0    0    0 -0.00000000000E+00 -0.00000000000E+00 -0.45593999997E+02  0.45594000000E+02  0.51100000000E-03 0. -1.
    9900012    2    1    2    0    0  0.47031620435E+00  0.71660344397E-01  0.10801287423E+01  0.90007741284E+02  0.90000002669E+02 0.  0.
         12    1    1    2    0    0 -0.47031620435E+00 -0.71660344397E-01 -0.10801287423E+01  0.11802587161E+01  0.00000000000E+00 0. -1.
         11    1    3    3    0    0  0.24215330802E+01 -0.52744007801E+01 -0.69328164181E+01  0.90414086179E+01  0.51100000000E-03 0. -1.
        -11    1    3    3    0    0  0.25801594730E+02  0.27327536733E+02  0.21243132106E+02  0.43171601967E+02  0.51100000000E-03 0.  1.
         12    1    3    3    0    0 -0.27752811605E+02 -0.21981475609E+02 -0.13230186945E+02  0.37794730698E+02  0.00000000000E+00 0. -1.
</event>
<event>
 7    1  0.1999542E-015  0.9000777E+02  0.7816164E-02  0.1186339E+00
        -11   -1    0    0    0    0  0.00000000000E+00  0.00000000000E+00  0.45593999997E+02  0.45594000000E+02  0.51100000000E-03 0.  1.
         11   -1    0    0    0    0 -0.00000000000E+00 -0.00000000000E+00 -0.45593999997E+02  0.45594000000E+02  0.51100000000E-03 0. -1.
    9900012    2    1    2    0    0  0.95172988344E+00  0.44794789729E+00  0.53524364095E+00  0.90007774240E+02  0.90000036060E+02 0.  0.
         12    1    1    2    0    0 -0.95172988344E+00 -0.44794789729E+00 -0.53524364095E+00  0.11802257601E+01  0.00000000000E+00 0. -1.
         11    1    3    3    0    0  0.44722671172E+01 -0.33657234060E+02 -0.27290387106E+02  0.43561173152E+02  0.51100000000E-03 0. -1.
        -11    1    3    3    0    0  0.45085107521E+01  0.12417322417E+02  0.55241497835E+01  0.14318966314E+02  0.51100000000E-03 0.  1.
        -12    1    3    3    0    0 -0.80290479858E+01  0.21687859540E+02  0.22301480963E+02  0.32127634774E+02  0.00000000000E+00 0.  1.
</event>
<event>
 7    1  0.1999542E-015  0.9000782E+02  0.7816164E-02  0.1186339E+00
        -11   -1    0    0    0    0  0.00000000000E+00  0.00000000000E+00  0.45593999997E+02  0.45594000000E+02  0.51100000000E-03 0.  1.
         11   -1    0    0    0    0 -0.00000000000E+00 -0.00000000000E+00 -0.45593999997E+02  0.45594000000E+02  0.51100000000E-03 0. -1.
    9900012    2    1    2    0    0 -0.55662663618E+00 -0.47261383491E+00  0.92716598725E+00  0.90007816194E+02  0.90000078567E+02 0.  0.
         12    1    1    2    0    0  0.55662663618E+00  0.47261383491E+00 -0.92716598725E+00  0.11801838064E+01  0.00000000000E+00 0. -1.
         11    1    3    3    0    0 -0.56340291123E+01 -0.10940569758E+02 -0.47607338619E+01  0.13194807230E+02  0.51100000000E-03 0. -1.
        -11    1    3    3    0    0  0.12750874255E+02 -0.31266145803E+02 -0.13816205041E+01  0.33794460243E+02  0.51100000000E-03 0.  1.
         12    1    3    3    0    0 -0.76734717787E+01  0.41734101726E+02  0.70695203532E+01  0.43018548721E+02  0.00000000000E+00 0. -1.
</event>
<event>
 7    1  0.1999542E-015  0.9000763E+02  0.7816164E-02  0.1186339E+00
        -11   -1    0    0    0    0  0.00000000000E+00  0.00000000000E+00  0.45593999997E+02  0.45594000000E+02  0.51100000000E-03 0.  1.
         11   -1    0    0    0    0 -0.00000000000E+00 -0.00000000000E+00 -0.45593999997E+02  0.45594000000E+02  0.51100000000E-03 0. -1.
    9900012    2    1    2    0    0  0.97648290686E+00 -0.56270523294E-01  0.66074918625E+00  0.90007629411E+02  0.89999889320E+02 0.  0.
         12    1    1    2    0    0 -0.97648290686E+00  0.56270523294E-01 -0.66074918625E+00  0.11803705886E+01  0.00000000000E+00 0. -1.
         11    1    3    3    0    0  0.24248702101E+00  0.22230066030E+01  0.94180149086E+01  0.96798534799E+01  0.51100000000E-03 0. -1.
        -11    1    3    3    0    0 -0.49471288714E+01 -0.31684701181E+02  0.20820822267E+02  0.38234814151E+02  0.51100000000E-03 0.  1.
         12    1    3    3    0    0  0.56811247573E+01  0.29405424055E+02 -0.29578087990E+02  0.42092961781E+02  0.00000000000E+00 0. -1.
</event>
<event>
 7    1  0.1999542E-015  0.9000778E+02  0.7816164E-02  0.1186339E+00
        -11   -1    0    0    0    0  0.00000000000E+00  0.00000000000E+00  0.45593999997E+02  0.45594000000E+02  0.51100000000E-03 0.  1.
         11   -1    0    0    0    0 -0.00000000000E+00 -0.00000000000E+00 -0.45593999997E+02  0.45594000000E+02  0.51100000000E-03 0. -1.
    9900012    2    1    2    0    0 -0.19847188814E+00  0.11626343675E+01  0.42631420199E-01  0.90007776631E+02  0.90000038482E+02 0.  0.
         12    1    1    2    0    0  0.19847188814E+00 -0.11626343675E+01 -0.42631420199E-01  0.11802233691E+01  0.00000000000E+00 0. -1.
         11    1    3    3    0    0  0.36030552489E+02 -0.12822247582E+02  0.17794475418E+01  0.38285469561E+02  0.51100000000E-03 0. -1.
        -11    1    3    3    0    0  0.35685299626E+00 -0.86563476109E+01 -0.54402186962E+00  0.86807636805E+01  0.51100000000E-03 0.  1.
        -12    1    3    3    0    0 -0.36585877373E+02  0.22641229561E+02 -0.11927942519E+01  0.43041543389E+02  0.00000000000E+00 0.  1.
</event>
<event>
 7    1  0.1999542E-015  0.9000759E+02  0.7816164E-02  0.1186339E+00
        -11   -1    0    0    0    0  0.00000000000E+00  0.00000000000E+00  0.45593999997E+02  0.45594000000E+02  0.51100000000E-03 0. -1.
         11   -1    0    0    0    0 -0.00000000000E+00 -0.00000000000E+00 -0.45593999997E+02  0.45594000000E+02  0.51100000000E-03 0.  1.
    9900012    2    1    2    0    0  0.42847293317E+00  0.40989954027E+00 -0.10206611991E+01  0.90007594997E+02  0.89999854451E+02 0.  0.
         12    1    1    2    0    0 -0.42847293317E+00 -0.40989954027E+00  0.10206611991E+01  0.11804050030E+01  0.00000000000E+00 0. -1.
         11    1    3    3    0    0 -0.20594492691E+01 -0.82504781253E+01 -0.65374363899E+01  0.10726126766E+02  0.51100000000E-03 0. -1.
        -11    1    3    3    0    0  0.15361357359E+02  0.92900976344E+01 -0.33600479368E+02  0.38095530289E+02  0.51100000000E-03 0.  1.
         12    1    3    3    0    0 -0.12873435156E+02 -0.62971996884E+00  0.39117254559E+02  0.41185937942E+02  0.00000000000E+00 0. -1.
</event>
<event>
 7    1  0.1999542E-015  0.9000774E+02  0.7816164E-02  0.1186339E+00
        -11   -1    0    0    0    0  0.00000000000E+00  0.00000000000E+00  0.45593999997E+02  0.45594000000E+02  0.51100000000E-03 0. -1.
         11   -1    0    0    0    0 -0.00000000000E+00 -0.00000000000E+00 -0.45593999997E+02  0.45594000000E+02  0.51100000000E-03 0.  1.
    9900012    2    1    2    0    0 -0.74499945328E+00 -0.10054293875E-01 -0.91536273608E+00  0.90007739769E+02  0.90000001134E+02 0.  0.
         12    1    1    2    0    0  0.74499945328E+00  0.10054293875E-01  0.91536273608E+00  0.11802602310E+01  0.00000000000E+00 0. -1.
         11    1    3    3    0    0 -0.16830138301E+02  0.24235815516E+02  0.25607705067E+02  0.39068950178E+02  0.51100000000E-03 0. -1.
        -11    1    3    3    0    0  0.92745090429E+00 -0.53272912784E+00  0.70495567913E+01  0.71302325851E+01  0.51100000000E-03 0.  1.
        -12    1    3    3    0    0  0.15157687943E+02 -0.23713140682E+02 -0.33572624594E+02  0.43808557006E+02  0.00000000000E+00 0.  1.
</event>
<event>
 7    1  0.1999542E-015  0.9000752E+02  0.7816164E-02  0.1186339E+00
        -11   -1    0    0    0    0  0.00000000000E+00  0.00000000000E+00  0.45593999997E+02  0.45594000000E+02  0.51100000000E-03 0.  1.
         11   -1    0    0    0    0 -0.00000000000E+00 -0.00000000000E+00 -0.45593999997E+02  0.45594000000E+02  0.51100000000E-03 0. -1.
    9900012    2    1    2    0    0  0.38098558124E+00 -0.11081128894E+01 -0.14306828895E+00  0.90007520130E+02  0.89999778595E+02 0.  0.
         12    1    1    2    0    0 -0.38098558124E+00  0.11081128894E+01  0.14306828895E+00  0.11804798702E+01  0.00000000000E+00 0. -1.
         11    1    3    3    0    0  0.50760933458E+01 -0.10916861297E+01  0.62929042649E+01  0.81583789205E+01  0.51100000000E-03 0. -1.
        -11    1    3    3    0    0 -0.21422771406E+02 -0.35931865347E+02 -0.57213364714E+01  0.42222834738E+02  0.51100000000E-03 0.  1.
         12    1    3    3    0    0  0.16727663642E+02  0.35915438587E+02 -0.71463608242E+00  0.39626306471E+02  0.00000000000E+00 0. -1.
</event>
<event>
 7    1  0.1999542E-015  0.9000788E+02  0.7816164E-02  0.1186339E+00
        -11   -1    0    0    0    0  0.00000000000E+00  0.00000000000E+00  0.45593999997E+02  0.45594000000E+02  0.51100000000E-03 0.  1.
         11   -1    0    0    0    0 -0.00000000000E+00 -0.00000000000E+00 -0.45593999997E+02  0.45594000000E+02  0.51100000000E-03 0. -1.
    9900012    2    1    2    0    0 -0.28655498961E+00  0.10682816681E+01  0.41150225156E+00  0.90007884079E+02  0.90000147348E+02 0.  0.
         12    1    1    2    0    0  0.28655498961E+00 -0.10682816681E+01 -0.41150225156E+00  0.11801159213E+01  0.00000000000E+00 0. -1.
         11    1    3    3    0    0  0.54166317516E+01 -0.80369429184E+00  0.86634806009E+01  0.10248986312E+02  0.51100000000E-03 0. -1.
        -11    1    3    3    0    0  0.18307197865E+02  0.33541124411E+02 -0.11443756476E+02  0.39888846598E+02  0.51100000000E-03 0.  1.
         12    1    3    3    0    0 -0.24010384606E+02 -0.31669148451E+02  0.31917781269E+01  0.39870051168E+02  0.00000000000E+00 0. -1.
</event>
<event>
 7    1  0.1999542E-015  0.9000775E+02  0.7816164E-02  0.1186339E+00
        -11   -1    0    0    0    0  0.00000000000E+00  0.00000000000E+00  0.45593999997E+02  0.45594000000E+02  0.51100000000E-03 0. -1.
         11   -1    0    0    0    0 -0.00000000000E+00 -0.00000000000E+00 -0.45593999997E+02  0.45594000000E+02  0.51100000000E-03 0.  1.
    9900012    2    1    2    0    0 -0.91371435259E-01 -0.11762233948E+01  0.33623245838E-01  0.90007753951E+02  0.90000015503E+02 0.  0.
         12    1    1    2    0    0  0.91371435259E-01  0.11762233948E+01 -0.33623245838E-01  0.11802460491E+01  0.00000000000E+00 0. -1.
         11    1    3    3    0    0  0.80354818690E+01  0.48937836055E+01  0.87530895477E+01  0.12850473288E+02  0.51100000000E-03 0. -1.
        -11    1    3    3    0    0  0.28718587610E+02 -0.60437474907E+01 -0.23360028909E+02  0.37509666873E+02  0.51100000000E-03 0.  1.
         12    1    3    3    0    0 -0.36845440914E+02 -0.26259509676E-01  0.14640562607E+02  0.39647613789E+02  0.00000000000E+00 0. -1.
</event>
<event>
 7    1  0.1999542E-015  0.9000782E+02  0.7816164E-02  0.1186339E+00
        -11   -1    0    0    0    0  0.00000000000E+00  0.00000000000E+00  0.45593999997E+02  0.45594000000E+02  0.51100000000E-03 0. -1.
         11   -1    0    0    0    0 -0.00000000000E+00 -0.00000000000E+00 -0.45593999997E+02  0.45594000000E+02  0.51100000000E-03 0.  1.
    9900012    2    1    2    0    0 -0.89467528485E-01 -0.10301072307E+00 -0.11722638772E+01  0.90007822791E+02  0.90000085251E+02 0.  0.
         12    1    1    2    0    0  0.89467528485E-01  0.10301072307E+00  0.11722638772E+01  0.11801772094E+01  0.00000000000E+00 0. -1.
         11    1    3    3    0    0 -0.53231967631E+00  0.21670484262E+01  0.47663029902E+00  0.22818062631E+01  0.51100000000E-03 0. -1.
        -11    1    3    3    0    0 -0.28866051107E+01 -0.64998342827E+01 -0.44233977150E+02  0.44802065461E+02  0.51100000000E-03 0.  1.
         12    1    3    3    0    0  0.33294572585E+01  0.42297751334E+01  0.42585082974E+02  0.42923951067E+02  0.00000000000E+00 0. -1.
</event>
<event>
 7    1  0.1999542E-015  0.9000773E+02  0.7816164E-02  0.1186339E+00
        -11   -1    0    0    0    0  0.00000000000E+00  0.00000000000E+00  0.45593999997E+02  0.45594000000E+02  0.51100000000E-03 0. -1.
         11   -1    0    0    0    0 -0.00000000000E+00 -0.00000000000E+00 -0.45593999997E+02  0.45594000000E+02  0.51100000000E-03 0.  1.
    9900012    2    1    2    0    0 -0.74646533234E+00 -0.79060398587E+00 -0.45910441877E+00  0.90007727988E+02  0.89999989197E+02 0.  0.
         12    1    1    2    0    0  0.74646533234E+00  0.79060398587E+00  0.45910441877E+00  0.11802720120E+01  0.00000000000E+00 0. -1.
         11    1    3    3    0    0 -0.48752745660E+00 -0.21765936098E+01 -0.81483730982E+01  0.84481493341E+01  0.51100000000E-03 0. -1.
        -11    1    3    3    0    0  0.32933388810E+01 -0.11269937809E+02 -0.34987083293E+02  0.36904655219E+02  0.51100000000E-03 0.  1.
         12    1    3    3    0    0 -0.35522767567E+01  0.12655927433E+02  0.42676351972E+02  0.44654923435E+02  0.00000000000E+00 0. -1.
</event>
<event>
 7    1  0.1999542E-015  0.9000773E+02  0.7816164E-02  0.1186339E+00
        -11   -1    0    0    0    0  0.00000000000E+00  0.00000000000E+00  0.45593999997E+02  0.45594000000E+02  0.51100000000E-03 0.  1.
         11   -1    0    0    0    0 -0.00000000000E+00 -0.00000000000E+00 -0.45593999997E+02  0.45594000000E+02  0.51100000000E-03 0. -1.
    9900012    2    1    2    0    0  0.39421752068E+00  0.44616568134E+00  0.10190955259E+01  0.90007734369E+02  0.89999995663E+02 0.  0.
         12    1    1    2    0    0 -0.39421752068E+00 -0.44616568134E+00 -0.10190955259E+01  0.11802656310E+01  0.00000000000E+00 0. -1.
         11    1    3    3    0    0  0.22640325365E+02  0.25616205100E+02 -0.17994949937E+02  0.38634084949E+02  0.51100000000E-03 0. -1.
        -11    1    3    3    0    0 -0.38477244120E+01 -0.11961115307E+01 -0.91915514374E+01  0.10035949583E+02  0.51100000000E-03 0.  1.
        -12    1    3    3    0    0 -0.18398383433E+02 -0.23973927888E+02  0.28205596901E+02  0.41337699837E+02  0.00000000000E+00 0.  1.
</event>
<event>
 7    1  0.1999542E-015  0.9000767E+02  0.7816164E-02  0.1186339E+00
        -11   -1    0    0    0    0  0.00000000000E+00  0.00000000000E+00  0.45593999997E+02  0.45594000000E+02  0.51100000000E-03 0.  1.
         11   -1    0    0    0    0 -0.00000000000E+00 -0.00000000000E+00 -0.45593999997E+02  0.45594000000E+02  0.51100000000E-03 0. -1.
    9900012    2    1    2    0    0  0.71198836386E+00  0.10061538072E+00  0.93601566405E+00  0.90007671144E+02  0.89999931603E+02 0.  0.
         12    1    1    2    0    0 -0.71198836386E+00 -0.10061538072E+00 -0.93601566405E+00  0.11803288561E+01  0.00000000000E+00 0. -1.
         11    1    3    3    0    0  0.69522067447E+01  0.27093240729E+01 -0.63587881521E+00  0.74885217287E+01  0.51100000000E-03 0. -1.
        -11    1    3    3    0    0  0.29639857982E+02  0.11265912690E+02  0.22353102544E+02  0.38795659082E+02  0.51100000000E-03 0.  1.
         12    1    3    3    0    0 -0.35880076363E+02 -0.13874621382E+02 -0.20781208065E+02  0.43723490334E+02  0.00000000000E+00 0. -1.
</event>
<event>
 7    1  0.1999542E-015  0.9000769E+02  0.7816164E-02  0.1186339E+00
        -11   -1    0    0    0    0  0.00000000000E+00  0.00000000000E+00  0.45593999997E+02  0.45594000000E+02  0.51100000000E-03 0. -1.
         11   -1    0    0    0    0 -0.00000000000E+00 -0.00000000000E+00 -0.45593999997E+02  0.45594000000E+02  0.51100000000E-03 0.  1.
    9900012    2    1    2    0    0  0.73768849680E+00 -0.10505964267E+00 -0.91537267210E+00  0.90007691152E+02  0.89999951876E+02 0.  0.
         12    1    1    2    0    0 -0.73768849680E+00  0.10505964267E+00  0.91537267210E+00  0.11803088476E+01  0.00000000000E+00 0. -1.
         11    1    3    3    0    0  0.11701671748E+01 -0.36644172212E+01 -0.58426080164E+01  0.69952350555E+01  0.51100000000E-03 0. -1.
        -11    1    3    3    0    0 -0.29262424475E+02  0.93724972221E+01 -0.26060597836E+02  0.40290047780E+02  0.51100000000E-03 0.  1.
         12    1    3    3    0    0  0.28829945797E+02 -0.58131396435E+01  0.30987833180E+02  0.42722408316E+02  0.00000000000E+00 0. -1.
</event>
<event>
 7    1  0.1999542E-015  0.9000770E+02  0.7816164E-02  0.1186339E+00
        -11   -1    0    0    0    0  0.00000000000E+00  0.00000000000E+00  0.45593999997E+02  0.45594000000E+02  0.51100000000E-03 0.  1.
         11   -1    0    0    0    0 -0.00000000000E+00 -0.00000000000E+00 -0.45593999997E+02  0.45594000000E+02  0.51100000000E-03 0. -1.
    9900012    2    1    2    0    0  0.61150150159E+00  0.92126157704E+00  0.41284364735E+00  0.90007704759E+02  0.89999965661E+02 0.  0.
         12    1    1    2    0    0 -0.61150150159E+00 -0.92126157704E+00 -0.41284364735E+00  0.11802952414E+01  0.00000000000E+00 0. -1.
         11    1    3    3    0    0 -0.33814211619E+02  0.46432792289E+01  0.13715040311E+02  0.36784008487E+02  0.51100000000E-03 0. -1.
        -11    1    3    3    0    0 -0.65543189247E+01  0.53688020207E+01 -0.65471292117E+01  0.10707382167E+02  0.51100000000E-03 0.  1.
        -12    1    3    3    0    0  0.40980032045E+02 -0.90908196725E+01 -0.67550674516E+01  0.42516314104E+02  0.00000000000E+00 0.  1.
</event>
<event>
 7    1  0.1999542E-015  0.9000776E+02  0.7816164E-02  0.1186339E+00
        -11   -1    0    0    0    0  0.00000000000E+00  0.00000000000E+00  0.45593999997E+02  0.45594000000E+02  0.51100000000E-03 0. -1.
         11   -1    0    0    0    0 -0.00000000000E+00 -0.00000000000E+00 -0.45593999997E+02  0.45594000000E+02  0.51100000000E-03 0.  1.
    9900012    2    1    2    0    0 -0.41842589011E+00 -0.94909637528E+00 -0.56311363251E+00  0.90007762262E+02  0.90000023924E+02 0.  0.
         12    1    1    2    0    0  0.41842589011E+00  0.94909637528E+00  0.56311363251E+00  0.11802377380E+01  0.00000000000E+00 0. -1.
         11    1    3    3    0    0  0.20808800070E+02  0.27422264248E+02  0.26291081049E+01  0.34523889505E+02  0.51100000000E-03 0. -1.
        -11    1    3    3    0    0  0.98829040636E+01  0.31957972653E+01  0.28059907125E+01  0.10759112279E+02  0.51100000000E-03 0.  1.
        -12    1    3    3    0    0 -0.31110130024E+02 -0.31567157888E+02 -0.59982124499E+01  0.44724760478E+02  0.00000000000E+00 0.  1.
</event>
<event>
 7    1  0.1999542E-015  0.9000782E+02  0.7816164E-02  0.1186339E+00
        -11   -1    0    0    0    0  0.00000000000E+00  0.00000000000E+00  0.45593999997E+02  0.45594000000E+02  0.51100000000E-03 0.  1.
         11   -1    0    0    0    0 -0.00000000000E+00 -0.00000000000E+00 -0.45593999997E+02  0.45594000000E+02  0.51100000000E-03 0. -1.
    9900012    2    1    2    0    0 -0.54676938962E+00 -0.10175853213E+01  0.24165803774E+00  0.90007815583E+02  0.90000077948E+02 0.  0.
         12    1    1    2    0    0  0.54676938962E+00  0.10175853213E+01 -0.24165803774E+00  0.11801844172E+01  0.00000000000E+00 0. -1.
         11    1    3    3    0    0  0.23317746803E+02 -0.28156371613E+02 -0.12492561598E+02  0.38633698683E+02  0.51100000000E-03 0. -1.
        -11    1    3    3    0    0 -0.27099252036E+01 -0.76754263151E+01  0.59334665180E+01  0.10072829241E+02  0.51100000000E-03 0.  1.
        -12    1    3    3    0    0 -0.21154590989E+02  0.34814212607E+02  0.68007531176E+01  0.41301287659E+02  0.00000000000E+00 0.  1.
</event>
<event>
 7    1  0.1999542E-015  0.9000771E+02  0.7816164E-02  0.1186339E+00
        -11   -1    0    0    0    0  0.00000000000E+00  0.00000000000E+00  0.45593999997E+02  0.45594000000E+02  0.51100000000E-03 0.  1.
         11   -1    0    0    0    0 -0.00000000000E+00 -0.00000000000E+00 -0.45593999997E+02  0.45594000000E+02  0.51100000000E-03 0. -1.
    9900012    2    1    2    0    0  0.11232976171E+01 -0.15624268432E-01  0.36199402891E+00  0.90007711336E+02  0.89999972325E+02 0.  0.
         12    1    1    2    0    0 -0.11232976171E+01  0.15624268432E-01 -0.36199402891E+00  0.11802886644E+01  0.00000000000E+00 0. -1.
         11    1    3    3    0    0 -0.22288897080E+01  0.16484834747E+01 -0.12240753553E+02  0.12550756746E+02  0.51100000000E-03 0. -1.
        -11    1    3    3    0    0 -0.12502113183E+02 -0.20937296002E+02 -0.23303166699E+02  0.33729968520E+02  0.51100000000E-03 0.  1.
         12    1    3    3    0    0  0.15854300508E+02  0.19273188259E+02  0.35905914282E+02  0.43726986069E+02  0.00000000000E+00 0. -1.
</event>
<event>
 7    1  0.1999542E-015  0.9000769E+02  0.7816164E-02  0.1186339E+00
        -11   -1    0    0    0    0  0.00000000000E+00  0.00000000000E+00  0.45593999997E+02  0.45594000000E+02  0.51100000000E-03 0.  1.
         11   -1    0    0    0    0 -0.00000000000E+00 -0.00000000000E+00 -0.45593999997E+02  0.45594000000E+02  0.51100000000E-03 0. -1.
    9900012    2    1    2    0    0 -0.11218016886E+01  0.11668893568E+00  0.34797659717E+00  0.90007685191E+02  0.89999945835E+02 0.  0.
         12    1    1    2    0    0  0.11218016886E+01 -0.11668893568E+00 -0.34797659717E+00  0.11803148090E+01  0.00000000000E+00 0. -1.
         11    1    3    3    0    0 -0.54164127333E+01  0.47989313267E+01 -0.34786041730E+02  0.35530774946E+02  0.51100000000E-03 0. -1.
        -11    1    3    3    0    0  0.96815213513E+01  0.88397560646E+01 -0.31808652848E+01  0.13490405745E+02  0.51100000000E-03 0.  1.
        -12    1    3    3    0    0 -0.53869103066E+01 -0.13521998456E+02  0.38314883612E+02  0.40986504499E+02  0.00000000000E+00 0.  1.
</event>
<event>
 7    1  0.1999542E-015  0.9000770E+02  0.7816164E-02  0.1186339E+00
        -11   -1    0    0    0    0  0.00000000000E+00  0.00000000000E+00  0.45593999997E+02  0.45594000000E+02  0.51100000000E-03 0.  1.
         11   -1    0    0    0    0 -0.00000000000E+00 -0.00000000000E+00 -0.45593999997E+02  0.45594000000E+02  0.51100000000E-03 0. -1.
    9900012    2    1    2    0    0  0.95921146410E+00 -0.27707899147E+00  0.62949070463E+00  0.90007695824E+02  0.89999956609E+02 0.  0.
         12    1    1    2    0    0 -0.95921146410E+00  0.27707899147E+00 -0.62949070463E+00  0.11803041759E+01  0.00000000000E+00 0. -1.
         11    1    3    3    0    0  0.14303443222E+02  0.11760313741E+02  0.29762330708E+02  0.35052671749E+02  0.51100000000E-03 0. -1.
        -11    1    3    3    0    0  0.30854859405E+01 -0.37365743284E+00  0.10253428364E+02  0.10714132575E+02  0.51100000000E-03 0.  1.
        -12    1    3    3    0    0 -0.16429717698E+02 -0.11663735300E+02 -0.39386268368E+02  0.44240891500E+02  0.00000000000E+00 0.  1.
</event>
<event>
 7    1  0.1999542E-015  0.9000783E+02  0.7816164E-02  0.1186339E+00
        -11   -1    0    0    0    0  0.00000000000E+00  0.00000000000E+00  0.45593999997E+02  0.45594000000E+02  0.51100000000E-03 0. -1.
         11   -1    0    0    0    0 -0.00000000000E+00 -0.00000000000E+00 -0.45593999997E+02  0.45594000000E+02  0.51100000000E-03 0.  1.
    9900012    2    1    2    0    0  0.99119196460E-01  0.11245149829E+01 -0.34416448775E+00  0.90007827235E+02  0.90000089754E+02 0.  0.
         12    1    1    2    0    0 -0.99119196460E-01 -0.11245149829E+01  0.34416448775E+00  0.11801727655E+01  0.00000000000E+00 0. -1.
         11    1    3    3    0    0 -0.10035460588E+02 -0.24809985789E+01 -0.29669083771E+01  0.10754923000E+02  0.51100000000E-03 0. -1.
        -11    1    3    3    0    0 -0.25439137972E+02  0.38754338007E+01 -0.23711665622E+02  0.34991596344E+02  0.51100000000E-03 0.  1.
         12    1    3    3    0    0  0.35573717756E+02 -0.26992023892E+00  0.26334409511E+02  0.44261307891E+02  0.00000000000E+00 0. -1.
</event>
<event>
 7    1  0.1999542E-015  0.9000762E+02  0.7816164E-02  0.1186339E+00
        -11   -1    0    0    0    0  0.00000000000E+00  0.00000000000E+00  0.45593999997E+02  0.45594000000E+02  0.51100000000E-03 0.  1.
         11   -1    0    0    0    0 -0.00000000000E+00 -0.00000000000E+00 -0.45593999997E+02  0.45594000000E+02  0.51100000000E-03 0. -1.
    9900012    2    1    2    0    0  0.97888267836E+00  0.61675762658E+00  0.23388448802E+00  0.90007617341E+02  0.89999877090E+02 0.  0.
         12    1    1    2    0    0 -0.97888267836E+00 -0.61675762658E+00 -0.23388448802E+00  0.11803826590E+01  0.00000000000E+00 0. -1.
         11    1    3    3    0    0  0.51240614315E+01  0.19399905569E+02 -0.36443120560E+02  0.41601843445E+02  0.51100000000E-03 0. -1.
        -11    1    3    3    0    0 -0.72570535555E+01  0.28631382412E+01  0.32293547775E+01  0.84434068619E+01  0.51100000000E-03 0.  1.
        -12    1    3    3    0    0  0.31118748024E+01 -0.21646286184E+02  0.33447650270E+02  0.39962367034E+02  0.00000000000E+00 0.  1.
</event>
<event>
 7    1  0.2338634E-015  0.9000778E+02  0.7816164E-02  0.1186339E+00
        -11   -1    0    0    0    0  0.00000000000E+00  0.00000000000E+00  0.45593999997E+02  0.45594000000E+02  0.51100000000E-03 0. -1.
         11   -1    0    0    0    0 -0.00000000000E+00 -0.00000000000E+00 -0.45593999997E+02  0.45594000000E+02  0.51100000000E-03 0.  1.
    9900012    2    1    2    0    0  0.24698171704E+00  0.11461717851E+01  0.13491172277E+00  0.90007783536E+02  0.90000045478E+02 0.  0.
         12    1    1    2    0    0 -0.24698171704E+00 -0.11461717851E+01 -0.13491172277E+00  0.11802164642E+01  0.00000000000E+00 0. -1.
         11    1    3    3    0    0  0.30106794931E+02 -0.17043650218E+02  0.23409673602E+02  0.41772214834E+02  0.51100000000E-03 0. -1.
        -11    1    3    3    0    0 -0.99304244311E+00 -0.33108726592E+01 -0.87740990679E+01  0.94304202332E+01  0.51100000000E-03 0.  1.
        -12    1    3    3    0    0 -0.28866770770E+02  0.21500694662E+02 -0.14500662811E+02  0.38805148468E+02  0.00000000000E+00 0.  1.
</event>
<event>
 7    1  0.1999542E-015  0.9000775E+02  0.7816164E-02  0.1186339E+00
        -11   -1    0    0    0    0  0.00000000000E+00  0.00000000000E+00  0.45593999997E+02  0.45594000000E+02  0.51100000000E-03 0. -1.
         11   -1    0    0    0    0 -0.00000000000E+00 -0.00000000000E+00 -0.45593999997E+02  0.45594000000E+02  0.51100000000E-03 0.  1.
    9900012    2    1    2    0    0 -0.25560743307E+00  0.52232382900E+00 -0.10270507700E+01  0.90007749761E+02  0.90000011258E+02 0.  0.
         12    1    1    2    0    0  0.25560743307E+00 -0.52232382900E+00  0.10270507700E+01  0.11802502389E+01  0.00000000000E+00 0. -1.
         11    1    3    3    0    0  0.29277158276E+02  0.15907609717E+02  0.13196793307E+02  0.35837960286E+02  0.51100000000E-03 0. -1.
        -11    1    3    3    0    0  0.73554358040E+01 -0.51690918498E+01  0.60686106713E+01  0.10846657649E+02  0.51100000000E-03 0.  1.
        -12    1    3    3    0    0 -0.36888201513E+02 -0.10216194038E+02 -0.20292454748E+02  0.43323131826E+02  0.00000000000E+00 0.  1.
</event>
<event>
 7    1  0.1999542E-015  0.9000770E+02  0.7816164E-02  0.1186339E+00
        -11   -1    0    0    0    0  0.00000000000E+00  0.00000000000E+00  0.45593999997E+02  0.45594000000E+02  0.51100000000E-03 0. -1.
         11   -1    0    0    0    0 -0.00000000000E+00 -0.00000000000E+00 -0.45593999997E+02  0.45594000000E+02  0.51100000000E-03 0.  1.
    9900012    2    1    2    0    0 -0.97439422234E+00  0.62976930535E+00  0.21689845605E+00  0.90007704097E+02  0.89999964991E+02 0.  0.
         12    1    1    2    0    0  0.97439422234E+00 -0.62976930535E+00 -0.21689845605E+00  0.11802959030E+01  0.00000000000E+00 0. -1.
         11    1    3    3    0    0 -0.28796107049E+02  0.24753768897E+02  0.10773048774E+02  0.39471805582E+02  0.51100000000E-03 0. -1.
        -11    1    3    3    0    0  0.38295429673E+01  0.75691899859E+01  0.22457006839E+01  0.87750332309E+01  0.51100000000E-03 0.  1.
        -12    1    3    3    0    0  0.23992169860E+02 -0.31693189577E+02 -0.12801851001E+02  0.41760865284E+02  0.00000000000E+00 0.  1.
</event>
<event>
 7    1  0.1999542E-015  0.9000774E+02  0.7816164E-02  0.1186339E+00
        -11   -1    0    0    0    0  0.00000000000E+00  0.00000000000E+00  0.45593999997E+02  0.45594000000E+02  0.51100000000E-03 0.  1.
         11   -1    0    0    0    0 -0.00000000000E+00 -0.00000000000E+00 -0.45593999997E+02  0.45594000000E+02  0.51100000000E-03 0. -1.
    9900012    2    1    2    0    0  0.55672646177E+00 -0.97321841836E+00  0.36867899868E+00  0.90007736196E+02  0.89999997514E+02 0.  0.
         12    1    1    2    0    0 -0.55672646177E+00  0.97321841836E+00 -0.36867899868E+00  0.11802638040E+01  0.00000000000E+00 0. -1.
         11    1    3    3    0    0  0.57514801416E+01  0.30895409777E+02 -0.24332046628E+02  0.39744865863E+02  0.51100000000E-03 0. -1.
        -11    1    3    3    0    0  0.18327449196E+01 -0.98992924672E+01 -0.61086102375E+01  0.11775825431E+02  0.51100000000E-03 0.  1.
        -12    1    3    3    0    0 -0.70274985994E+01 -0.21969335728E+02  0.30809335864E+02  0.38487044902E+02  0.00000000000E+00 0.  1.
</event>
<event>
 7    1  0.1999542E-015  0.9000776E+02  0.7816164E-02  0.1186339E+00
        -11   -1    0    0    0    0  0.00000000000E+00  0.00000000000E+00  0.45593999997E+02  0.45594000000E+02  0.51100000000E-03 0. -1.
         11   -1    0    0    0    0 -0.00000000000E+00 -0.00000000000E+00 -0.45593999997E+02  0.45594000000E+02  0.51100000000E-03 0.  1.
    9900012    2    1    2    0    0 -0.18348001498E+00 -0.46904379095E+00 -0.10673743075E+01  0.90007764894E+02  0.90000026590E+02 0.  0.
         12    1    1    2    0    0  0.18348001498E+00  0.46904379095E+00  0.10673743075E+01  0.11802351062E+01  0.00000000000E+00 0. -1.
         11    1    3    3    0    0 -0.46502648002E+01  0.67520138877E+01  0.20713877396E+01  0.84560807518E+01  0.51100000000E-03 0. -1.
        -11    1    3    3    0    0  0.91243926954E+01  0.31060368696E+02 -0.21477569879E+02  0.38849543804E+02  0.51100000000E-03 0.  1.
         12    1    3    3    0    0 -0.46576079103E+01 -0.38281426375E+02  0.18338807832E+02  0.42702140338E+02  0.00000000000E+00 0. -1.
</event>
<event>
 7    1  0.1999542E-015  0.9000779E+02  0.7816164E-02  0.1186339E+00
        -11   -1    0    0    0    0  0.00000000000E+00  0.00000000000E+00  0.45593999997E+02  0.45594000000E+02  0.51100000000E-03 0.  1.
         11   -1    0    0    0    0 -0.00000000000E+00 -0.00000000000E+00 -0.45593999997E+02  0.45594000000E+02  0.51100000000E-03 0. -1.
    9900012    2    1    2    0    0  0.86058688370E+00 -0.24604002976E+00  0.76924579627E+00  0.90007794689E+02  0.90000056779E+02 0.  0.
         12    1    1    2    0    0 -0.86058688370E+00  0.24604002976E+00 -0.76924579627E+00  0.11802053108E+01  0.00000000000E+00 0. -1.
         11    1    3    3    0    0 -0.34992361810E+01  0.67133541089E+01 -0.92022889721E+01  0.11916203247E+02  0.51100000000E-03 0. -1.
        -11    1    3    3    0    0  0.24635075178E+02  0.23773670797E+02  0.20364238925E+02  0.39834364304E+02  0.51100000000E-03 0.  1.
         12    1    3    3    0    0 -0.20275252114E+02 -0.30733064936E+02 -0.10392704157E+02  0.38257227138E+02  0.00000000000E+00 0. -1.
</event>
<event>
 7    1  0.1999542E-015  0.9000771E+02  0.7816164E-02  0.1186339E+00
        -11   -1    0    0    0    0  0.00000000000E+00  0.00000000000E+00  0.45593999997E+02  0.45594000000E+02  0.51100000000E-03 0.  1.
         11   -1    0    0    0    0 -0.00000000000E+00 -0.00000000000E+00 -0.45593999997E+02  0.45594000000E+02  0.51100000000E-03 0. -1.
    9900012    2    1    2    0    0 -0.36658252497E-01  0.11589473306E+01  0.22042966094E+00  0.90007706825E+02  0.89999967755E+02 0.  0.
         12    1    1    2    0    0  0.36658252497E-01 -0.11589473306E+01 -0.22042966094E+00  0.11802931746E+01  0.00000000000E+00 0. -1.
         11    1    3    3    0    0  0.38755823426E+02 -0.15199025875E+02  0.50074271838E+00  0.41632619189E+02  0.51100000000E-03 0. -1.
        -11    1    3    3    0    0 -0.80408588762E+00  0.95728586777E+01 -0.17168332184E+01  0.97587752274E+01  0.51100000000E-03 0.  1.
        -12    1    3    3    0    0 -0.37988395791E+02  0.67851145276E+01  0.14365201609E+01  0.38616312409E+02  0.00000000000E+00 0.  1.
</event>
<event>
 7    1  0.1999542E-015  0.9000772E+02  0.7816164E-02  0.1186339E+00
        -11   -1    0    0    0    0  0.00000000000E+00  0.00000000000E+00  0.45593999997E+02  0.45594000000E+02  0.51100000000E-03 0.  1.
         11   -1    0    0    0    0 -0.00000000000E+00 -0.00000000000E+00 -0.45593999997E+02  0.45594000000E+02  0.51100000000E-03 0. -1.
    9900012    2    1    2    0    0 -0.45023023100E+00  0.55194309332E+00  0.94112846760E+00  0.90007715614E+02  0.89999976660E+02 0.  0.
         12    1    1    2    0    0  0.45023023100E+00 -0.55194309332E+00 -0.94112846760E+00  0.11802843859E+01  0.00000000000E+00 0. -1.
         11    1    3    3    0    0  0.20088897362E+02 -0.14587343390E+02  0.31841620317E+02  0.40376269876E+02  0.51100000000E-03 0. -1.
        -11    1    3    3    0    0  0.68637595371E+01  0.78206640418E+01 -0.96379031073E+01  0.14183199837E+02  0.51100000000E-03 0.  1.
        -12    1    3    3    0    0 -0.27402887130E+02  0.73186224419E+01 -0.21262588742E+02  0.35448245902E+02  0.00000000000E+00 0.  1.
</event>
<event>
 7    1  0.1999542E-015  0.9000778E+02  0.7816164E-02  0.1186339E+00
        -11   -1    0    0    0    0  0.00000000000E+00  0.00000000000E+00  0.45593999997E+02  0.45594000000E+02  0.51100000000E-03 0.  1.
         11   -1    0    0    0    0 -0.00000000000E+00 -0.00000000000E+00 -0.45593999997E+02  0.45594000000E+02  0.51100000000E-03 0. -1.
    9900012    2    1    2    0    0  0.48935273913E+00  0.36365618415E+00  0.10105458139E+01  0.90007781899E+02  0.90000043820E+02 0.  0.
         12    1    1    2    0    0 -0.48935273913E+00 -0.36365618415E+00 -0.10105458139E+01  0.11802181009E+01  0.00000000000E+00 0. -1.
         11    1    3    3    0    0 -0.11332674444E+02  0.63163523516E+01  0.10167153076E+02  0.16483228416E+02  0.51100000000E-03 0. -1.
        -11    1    3    3    0    0  0.21632482172E+02  0.25825768845E+02  0.10002606961E+02  0.35142378515E+02  0.51100000000E-03 0.  1.
         12    1    3    3    0    0 -0.98104549893E+01 -0.31778465013E+02 -0.19159214224E+02  0.38382174969E+02  0.00000000000E+00 0. -1.
</event>
<event>
 7    1  0.1999542E-015  0.9000770E+02  0.7816164E-02  0.1186339E+00
        -11   -1    0    0    0    0  0.00000000000E+00  0.00000000000E+00  0.45593999997E+02  0.45594000000E+02  0.51100000000E-03 0. -1.
         11   -1    0    0    0    0 -0.00000000000E+00 -0.00000000000E+00 -0.45593999997E+02  0.45594000000E+02  0.51100000000E-03 0.  1.
    9900012    2    1    2    0    0 -0.10257953008E+00 -0.71096935372E+00 -0.93653563654E+00  0.90007703859E+02  0.89999964750E+02 0.  0.
         12    1    1    2    0    0  0.10257953008E+00  0.71096935372E+00  0.93653563654E+00  0.11802961410E+01  0.00000000000E+00 0. -1.
         11    1    3    3    0    0  0.17847731562E+02 -0.77378477492E+01  0.37813361810E+02  0.42523712695E+02  0.51100000000E-03 0. -1.
        -11    1    3    3    0    0  0.34969825503E+00 -0.52906299158E+01 -0.61227803128E+01  0.80994748469E+01  0.51100000000E-03 0.  1.
        -12    1    3    3    0    0 -0.18300009347E+02  0.12317508311E+02 -0.32627117134E+02  0.39384516318E+02  0.00000000000E+00 0.  1.
</event>
<event>
 7    1  0.2491620E-015  0.9000774E+02  0.7816164E-02  0.1186339E+00
        -11   -1    0    0    0    0  0.00000000000E+00  0.00000000000E+00  0.45593999997E+02  0.45594000000E+02  0.51100000000E-03 0. -1.
         11   -1    0    0    0    0 -0.00000000000E+00 -0.00000000000E+00 -0.45593999997E+02  0.45594000000E+02  0.51100000000E-03 0.  1.
    9900012    2    1    2    0    0 -0.29850825365E+00 -0.41267768277E+00 -0.10647085079E+01  0.90007739752E+02  0.90000001116E+02 0.  0.
         12    1    1    2    0    0  0.29850825365E+00  0.41267768277E+00  0.10647085079E+01  0.11802602484E+01  0.00000000000E+00 0. -1.
         11    1    3    3    0    0 -0.27044199902E+02 -0.22502778771E+02  0.17282514733E+02  0.39197565186E+02  0.51100000000E-03 0. -1.
        -11    1    3    3    0    0 -0.25141378099E+01  0.55409088565E+01  0.65789469432E+01  0.89613114568E+01  0.51100000000E-03 0.  1.
        -12    1    3    3    0    0  0.29259829458E+02  0.16549192232E+02 -0.24926170184E+02  0.41848863109E+02  0.00000000000E+00 0.  1.
</event>
<event>
 7    1  0.1999542E-015  0.9000754E+02  0.7816164E-02  0.1186339E+00
        -11   -1    0    0    0    0  0.00000000000E+00  0.00000000000E+00  0.45593999997E+02  0.45594000000E+02  0.51100000000E-03 0.  1.
         11   -1    0    0    0    0 -0.00000000000E+00 -0.00000000000E+00 -0.45593999997E+02  0.45594000000E+02  0.51100000000E-03 0. -1.
    9900012    2    1    2    0    0 -0.63021678450E+00  0.96589838463E+00 -0.25170401449E+00  0.90007539160E+02  0.89999797876E+02 0.  0.
         12    1    1    2    0    0  0.63021678450E+00 -0.96589838463E+00  0.25170401449E+00  0.11804608404E+01  0.00000000000E+00 0. -1.
         11    1    3    3    0    0  0.19264401965E+02 -0.14040780395E+02 -0.30775792378E+02  0.38928268571E+02  0.51100000000E-03 0. -1.
        -11    1    3    3    0    0  0.65574530594E+01 -0.44187925615E+01  0.38865904760E+01  0.88108741971E+01  0.51100000000E-03 0.  1.
        -12    1    3    3    0    0 -0.26452071809E+02  0.19425471341E+02  0.26637497887E+02  0.42268396392E+02  0.00000000000E+00 0.  1.
</event>
<event>
 7    1  0.1999542E-015  0.9000806E+02  0.7816164E-02  0.1186338E+00
        -11   -1    0    0    0    0  0.00000000000E+00  0.00000000000E+00  0.45593999997E+02  0.45594000000E+02  0.51100000000E-03 0. -1.
         11   -1    0    0    0    0 -0.00000000000E+00 -0.00000000000E+00 -0.45593999997E+02  0.45594000000E+02  0.51100000000E-03 0.  1.
    9900012    2    1    2    0    0  0.42183953583E+00 -0.25967954365E+00 -0.10709281740E+01  0.90008055419E+02  0.90000320950E+02 0.  0.
         12    1    1    2    0    0 -0.42183953583E+00  0.25967954365E+00  0.10709281740E+01  0.11799445806E+01  0.00000000000E+00 0. -1.
         11    1    3    3    0    0  0.30794055286E+02 -0.18323453381E+02 -0.16274957324E+02  0.39356029029E+02  0.51100000000E-03 0. -1.
        -11    1    3    3    0    0 -0.92607283800E+00 -0.84349516862E+01  0.45592236537E+01  0.96328885302E+01  0.51100000000E-03 0.  1.
        -12    1    3    3    0    0 -0.29446142912E+02  0.26498725523E+02  0.10644805496E+02  0.41019137860E+02  0.00000000000E+00 0.  1.
</event>
<event>
 7    1  0.1999542E-015  0.9000747E+02  0.7816164E-02  0.1186340E+00
        -11   -1    0    0    0    0  0.00000000000E+00  0.00000000000E+00  0.45593999997E+02  0.45594000000E+02  0.51100000000E-03 0.  1.
         11   -1    0    0    0    0 -0.00000000000E+00 -0.00000000000E+00 -0.45593999997E+02  0.45594000000E+02  0.51100000000E-03 0. -1.
    9900012    2    1    2    0    0  0.86402133746E-01  0.14618176662E+00  0.11682495334E+01  0.90007474096E+02  0.89999731954E+02 0.  0.
         12    1    1    2    0    0 -0.86402133746E-01 -0.14618176662E+00 -0.11682495334E+01  0.11805259039E+01  0.00000000000E+00 0. -1.
         11    1    3    3    0    0 -0.33389807253E+02 -0.83000832662E+01 -0.12670447007E+02  0.36664844718E+02  0.51100000000E-03 0. -1.
        -11    1    3    3    0    0 -0.29498320314E+01  0.33643072159E+00 -0.90771582283E+01  0.95503662969E+01  0.51100000000E-03 0.  1.
        -12    1    3    3    0    0  0.36426041418E+02  0.81098343112E+01  0.22915854769E+02  0.43792263081E+02  0.00000000000E+00 0.  1.
</event>
<event>
 7    1  0.1999542E-015  0.9000775E+02  0.7816164E-02  0.1186339E+00
        -11   -1    0    0    0    0  0.00000000000E+00  0.00000000000E+00  0.45593999997E+02  0.45594000000E+02  0.51100000000E-03 0.  1.
         11   -1    0    0    0    0 -0.00000000000E+00 -0.00000000000E+00 -0.45593999997E+02  0.45594000000E+02  0.51100000000E-03 0. -1.
    9900012    2    1    2    0    0  0.10048304031E+00 -0.10243691255E+01  0.57754011595E+00  0.90007753614E+02  0.90000015162E+02 0.  0.
         12    1    1    2    0    0 -0.10048304031E+00  0.10243691255E+01 -0.57754011595E+00  0.11802463862E+01  0.00000000000E+00 0. -1.
         11    1    3    3    0    0 -0.35013061730E+00 -0.30617134310E+02 -0.19317336755E+02  0.36203466745E+02  0.51100000000E-03 0. -1.
        -11    1    3    3    0    0 -0.38082285760E+01  0.50700713969E+00 -0.10704287352E+02  0.11372837337E+02  0.51100000000E-03 0.  1.
        -12    1    3    3    0    0  0.42588422336E+01  0.29085758045E+02  0.30599164222E+02  0.42431449531E+02  0.00000000000E+00 0.  1.
</event>
<event>
 7    1  0.1999542E-015  0.9000724E+02  0.7816164E-02  0.1186340E+00
        -11   -1    0    0    0    0  0.00000000000E+00  0.00000000000E+00  0.45593999997E+02  0.45594000000E+02  0.51100000000E-03 0. -1.
         11   -1    0    0    0    0 -0.00000000000E+00 -0.00000000000E+00 -0.45593999997E+02  0.45594000000E+02  0.51100000000E-03 0.  1.
    9900012    2    1    2    0    0 -0.11447350283E+01  0.71574500691E-01 -0.28044812272E+00  0.90007240777E+02  0.89999495553E+02 0.  0.
         12    1    1    2    0    0  0.11447350283E+01 -0.71574500691E-01  0.28044812272E+00  0.11807592234E+01  0.00000000000E+00 0. -1.
         11    1    3    3    0    0  0.28562102976E+02 -0.23761600632E+02  0.65098998494E+00  0.37159536854E+02  0.51100000000E-03 0. -1.
        -11    1    3    3    0    0  0.60780410027E+01 -0.75151941811E+00  0.63534331276E+01  0.88245949842E+01  0.51100000000E-03 0.  1.
        -12    1    3    3    0    0 -0.35784879007E+02  0.24584694551E+02 -0.72848712353E+01  0.44023108938E+02  0.00000000000E+00 0.  1.
</event>
<event>
 7    1  0.1999542E-015  0.9000773E+02  0.7816164E-02  0.1186339E+00
        -11   -1    0    0    0    0  0.00000000000E+00  0.00000000000E+00  0.45593999997E+02  0.45594000000E+02  0.51100000000E-03 0.  1.
         11   -1    0    0    0    0 -0.00000000000E+00 -0.00000000000E+00 -0.45593999997E+02  0.45594000000E+02  0.51100000000E-03 0. -1.
    9900012    2    1    2    0    0  0.10510230466E+01  0.34694190773E+00  0.40988735804E+00  0.90007734870E+02  0.89999996170E+02 0.  0.
         12    1    1    2    0    0 -0.10510230466E+01 -0.34694190773E+00 -0.40988735804E+00  0.11802651304E+01  0.00000000000E+00 0. -1.
         11    1    3    3    0    0 -0.90763371217E+01  0.71566776155E+01  0.18708619278E+01  0.11708887849E+02  0.51100000000E-03 0. -1.
        -11    1    3    3    0    0  0.48169044525E+01 -0.38038768763E+02  0.16659016338E+02  0.41805182969E+02  0.51100000000E-03 0.  1.
         12    1    3    3    0    0  0.53104557159E+01  0.31229033055E+02 -0.18119990907E+02  0.36493664052E+02  0.00000000000E+00 0. -1.
</event>
<event>
 7    1  0.1999542E-015  0.9000783E+02  0.7816164E-02  0.1186339E+00
        -11   -1    0    0    0    0  0.00000000000E+00  0.00000000000E+00  0.45593999997E+02  0.45594000000E+02  0.51100000000E-03 0.  1.
         11   -1    0    0    0    0 -0.00000000000E+00 -0.00000000000E+00 -0.45593999997E+02  0.45594000000E+02  0.51100000000E-03 0. -1.
    9900012    2    1    2    0    0  0.46241473333E+00 -0.10746081692E+01 -0.15550683202E+00  0.90007833708E+02  0.90000096313E+02 0.  0.
         12    1    1    2    0    0 -0.46241473333E+00  0.10746081692E+01  0.15550683202E+00  0.11801662924E+01  0.00000000000E+00 0. -1.
         11    1    3    3    0    0  0.24302958303E+02 -0.26536368999E+02 -0.24154502378E+02  0.43338812251E+02  0.51100000000E-03 0. -1.
        -11    1    3    3    0    0  0.77257580987E+00  0.74948976937E+01 -0.52559425193E+00  0.75529209184E+01  0.51100000000E-03 0.  1.
        -12    1    3    3    0    0 -0.24613119380E+02  0.17966863136E+02  0.24524589798E+02  0.39116100538E+02  0.00000000000E+00 0.  1.
</event>
<event>
 7    1  0.1999542E-015  0.9000724E+02  0.7816164E-02  0.1186340E+00
        -11   -1    0    0    0    0  0.00000000000E+00  0.00000000000E+00  0.45593999997E+02  0.45594000000E+02  0.51100000000E-03 0. -1.
         11   -1    0    0    0    0 -0.00000000000E+00 -0.00000000000E+00 -0.45593999997E+02  0.45594000000E+02  0.51100000000E-03 0.  1.
    9900012    2    1    2    0    0  0.55333984335E+00 -0.52111245786E+00 -0.90357388010E+00  0.90007242221E+02  0.89999497017E+02 0.  0.
         12    1    1    2    0    0 -0.55333984335E+00  0.52111245786E+00  0.90357388010E+00  0.11807577790E+01  0.00000000000E+00 0. -1.
         11    1    3    3    0    0  0.28979064459E+02  0.22697848468E+02  0.73815328007E+01  0.37542849235E+02  0.51100000000E-03 0. -1.
        -11    1    3    3    0    0  0.65823941379E+01 -0.10889819628E+00  0.52137811942E+01  0.83978143589E+01  0.51100000000E-03 0.  1.
        -12    1    3    3    0    0 -0.35008118753E+02 -0.23110062730E+02 -0.13498887875E+02  0.44066578627E+02  0.00000000000E+00 0.  1.
</event>
<event>
 7    1  0.2560954E-015  0.9000779E+02  0.7816164E-02  0.1186339E+00
        -11   -1    0    0    0    0  0.00000000000E+00  0.00000000000E+00  0.45593999997E+02  0.45594000000E+02  0.51100000000E-03 0.  1.
         11   -1    0    0    0    0 -0.00000000000E+00 -0.00000000000E+00 -0.45593999997E+02  0.45594000000E+02  0.51100000000E-03 0. -1.
    9900012    2    1    2    0    0  0.10201393984E+01 -0.48930997071E+00  0.33584668111E+00  0.90007787463E+02  0.90000049457E+02 0.  0.
         12    1    1    2    0    0 -0.10201393984E+01  0.48930997071E+00 -0.33584668111E+00  0.11802125371E+01  0.00000000000E+00 0. -1.
         11    1    3    3    0    0  0.24692635153E+02  0.12191991295E+02 -0.30307548112E+02  0.40950193594E+02  0.51100000000E-03 0. -1.
        -11    1    3    3    0    0 -0.42765712095E+01 -0.89032929246E+01 -0.27524758657E+01  0.10253477940E+02  0.51100000000E-03 0.  1.
        -12    1    3    3    0    0 -0.19395924545E+02 -0.37780083408E+01  0.33395870659E+02  0.38804115929E+02  0.00000000000E+00 0.  1.
</event>
<event>
 7    1  0.1999542E-015  0.9000774E+02  0.7816164E-02  0.1186339E+00
        -11   -1    0    0    0    0  0.00000000000E+00  0.00000000000E+00  0.45593999997E+02  0.45594000000E+02  0.51100000000E-03 0.  1.
         11   -1    0    0    0    0 -0.00000000000E+00 -0.00000000000E+00 -0.45593999997E+02  0.45594000000E+02  0.51100000000E-03 0. -1.
    9900012    2    1    2    0    0 -0.19843290470E+00 -0.44961032278E+00  0.10730736885E+01  0.90007740621E+02  0.90000001997E+02 0.  0.
         12    1    1    2    0    0  0.19843290470E+00  0.44961032278E+00 -0.10730736885E+01  0.11802593787E+01  0.00000000000E+00 0. -1.
         11    1    3    3    0    0  0.14276725498E+02  0.82775045584E+01 -0.26149227636E+01  0.16708674213E+02  0.51100000000E-03 0. -1.
        -11    1    3    3    0    0  0.77971765026E+01 -0.33669403009E+02 -0.11702749580E+02  0.36488066658E+02  0.51100000000E-03 0.  1.
         12    1    3    3    0    0 -0.22272334905E+02  0.24942288128E+02  0.15390746032E+02  0.36810999750E+02  0.00000000000E+00 0. -1.
</event>
<event>
 7    1  0.1999542E-015  0.9000776E+02  0.7816164E-02  0.1186339E+00
        -11   -1    0    0    0    0  0.00000000000E+00  0.00000000000E+00  0.45593999997E+02  0.45594000000E+02  0.51100000000E-03 0. -1.
         11   -1    0    0    0    0 -0.00000000000E+00 -0.00000000000E+00 -0.45593999997E+02  0.45594000000E+02  0.51100000000E-03 0.  1.
    9900012    2    1    2    0    0  0.72763677406E+00  0.91284457125E+00 -0.17388367750E+00  0.90007755949E+02  0.90000017528E+02 0.  0.
         12    1    1    2    0    0 -0.72763677406E+00 -0.91284457125E+00  0.17388367750E+00  0.11802440508E+01  0.00000000000E+00 0. -1.
         11    1    3    3    0    0  0.14417260676E+02  0.18094117712E+02  0.21544830462E+02  0.31613829586E+02  0.51100000000E-03 0. -1.
        -11    1    3    3    0    0  0.21087086113E+01  0.15492127520E+02  0.84734986424E+00  0.15657926720E+02  0.51100000000E-03 0.  1.
        -12    1    3    3    0    0 -0.15798332514E+02 -0.32673400660E+02 -0.22566064004E+02  0.42735999644E+02  0.00000000000E+00 0.  1.
</event>
<event>
 7    1  0.1999542E-015  0.9000781E+02  0.7816164E-02  0.1186339E+00
        -11   -1    0    0    0    0  0.00000000000E+00  0.00000000000E+00  0.45593999997E+02  0.45594000000E+02  0.51100000000E-03 0.  1.
         11   -1    0    0    0    0 -0.00000000000E+00 -0.00000000000E+00 -0.45593999997E+02  0.45594000000E+02  0.51100000000E-03 0. -1.
    9900012    2    1    2    0    0 -0.49296314820E+00 -0.78079355774E+00  0.73498577099E+00  0.90007807080E+02  0.90000069333E+02 0.  0.
         12    1    1    2    0    0  0.49296314820E+00  0.78079355774E+00 -0.73498577099E+00  0.11801929202E+01  0.00000000000E+00 0. -1.
         11    1    3    3    0    0  0.20307873508E+02 -0.30334007287E+02  0.11141190986E+02  0.38166580425E+02  0.51100000000E-03 0. -1.
        -11    1    3    3    0    0 -0.76239176976E+00 -0.80733413620E+01 -0.24877363820E+01  0.84822705996E+01  0.51100000000E-03 0.  1.
        -12    1    3    3    0    0 -0.20038444887E+02  0.37626555091E+02 -0.79184688329E+01  0.43358956055E+02  0.00000000000E+00 0.  1.
</event>
<event>
 7    1  0.1999542E-015  0.9000777E+02  0.7816164E-02  0.1186339E+00
        -11   -1    0    0    0    0  0.00000000000E+00  0.00000000000E+00  0.45593999997E+02  0.45594000000E+02  0.51100000000E-03 0. -1.
         11   -1    0    0    0    0 -0.00000000000E+00 -0.00000000000E+00 -0.45593999997E+02  0.45594000000E+02  0.51100000000E-03 0.  1.
    9900012    2    1    2    0    0  0.27020603319E-01 -0.11648558016E+01  0.18793631571E+00  0.90007771543E+02  0.90000033328E+02 0.  0.
         12    1    1    2    0    0 -0.27020603319E-01  0.11648558016E+01 -0.18793631571E+00  0.11802284568E+01  0.00000000000E+00 0. -1.
         11    1    3    3    0    0  0.20042109248E+01  0.63318696110E+01 -0.61979805655E+01  0.90842940041E+01  0.51100000000E-03 0. -1.
        -11    1    3    3    0    0 -0.23716156545E+02  0.24021479329E+02 -0.15143475210E+02  0.36997464672E+02  0.51100000000E-03 0.  1.
         12    1    3    3    0    0  0.21738966223E+02 -0.31518204742E+02  0.21529392091E+02  0.43926012867E+02  0.00000000000E+00 0. -1.
</event>
<event>
 7    1  0.1999542E-015  0.9000778E+02  0.7816164E-02  0.1186339E+00
        -11   -1    0    0    0    0  0.00000000000E+00  0.00000000000E+00  0.45593999997E+02  0.45594000000E+02  0.51100000000E-03 0. -1.
         11   -1    0    0    0    0 -0.00000000000E+00 -0.00000000000E+00 -0.45593999997E+02  0.45594000000E+02  0.51100000000E-03 0.  1.
    9900012    2    1    2    0    0  0.80797565154E+00  0.33980967396E+00 -0.79033062209E+00  0.90007780630E+02  0.90000042535E+02 0.  0.
         12    1    1    2    0    0 -0.80797565154E+00 -0.33980967396E+00  0.79033062209E+00  0.11802193695E+01  0.00000000000E+00 0. -1.
         11    1    3    3    0    0 -0.18729146590E+02  0.10068152123E+02 -0.39282248919E+01  0.21623588283E+02  0.51100000000E-03 0. -1.
        -11    1    3    3    0    0 -0.68761036500E+01 -0.19540205708E+02  0.25183157059E+02  0.32608156038E+02  0.51100000000E-03 0.  1.
        -12    1    3    3    0    0  0.26413225891E+02  0.98118632583E+01 -0.22045262789E+02  0.35776036310E+02  0.00000000000E+00 0.  1.
</event>
<event>
 7    1  0.1999542E-015  0.9000777E+02  0.7816164E-02  0.1186339E+00
        -11   -1    0    0    0    0  0.00000000000E+00  0.00000000000E+00  0.45593999997E+02  0.45594000000E+02  0.51100000000E-03 0. -1.
         11   -1    0    0    0    0 -0.00000000000E+00 -0.00000000000E+00 -0.45593999997E+02  0.45594000000E+02  0.51100000000E-03 0.  1.
    9900012    2    1    2    0    0  0.70485338842E+00 -0.66488832343E+00  0.67382663730E+00  0.90007772429E+02  0.90000034225E+02 0.  0.
         12    1    1    2    0    0 -0.70485338842E+00  0.66488832343E+00 -0.67382663730E+00  0.11802275708E+01  0.00000000000E+00 0. -1.
         11    1    3    3    0    0  0.26680992239E+02 -0.18445183593E+02  0.15960260715E+02  0.36150104661E+02  0.51100000000E-03 0. -1.
        -11    1    3    3    0    0  0.49992987863E+01 -0.13365112720E+01 -0.16646878174E+02  0.17432664855E+02  0.51100000000E-03 0.  1.
        -12    1    3    3    0    0 -0.30975437637E+02  0.19116806542E+02  0.13604440969E+01  0.36425002914E+02  0.00000000000E+00 0.  1.
</event>
<event>
 7    1  0.1999542E-015  0.9000772E+02  0.7816164E-02  0.1186339E+00
        -11   -1    0    0    0    0  0.00000000000E+00  0.00000000000E+00  0.45593999997E+02  0.45594000000E+02  0.51100000000E-03 0.  1.
         11   -1    0    0    0    0 -0.00000000000E+00 -0.00000000000E+00 -0.45593999997E+02  0.45594000000E+02  0.51100000000E-03 0. -1.
    9900012    2    1    2    0    0  0.51510495582E-01 -0.84030106135E+00 -0.82722014879E+00  0.90007723600E+02  0.89999984752E+02 0.  0.
         12    1    1    2    0    0 -0.51510495582E-01  0.84030106135E+00  0.82722014879E+00  0.11802763996E+01  0.00000000000E+00 0. -1.
         11    1    3    3    0    0 -0.37321490336E+02 -0.11601763716E+01 -0.92768475808E+01  0.38474661160E+02  0.51100000000E-03 0. -1.
        -11    1    3    3    0    0 -0.48366664291E+01  0.54721812851E+01  0.50401689845E+01  0.88736358848E+01  0.51100000000E-03 0.  1.
        -12    1    3    3    0    0  0.42209667261E+02 -0.51523059748E+01  0.34094584475E+01  0.42659426555E+02  0.00000000000E+00 0.  1.
</event>
<event>
 7    1  0.1999542E-015  0.9000752E+02  0.7816164E-02  0.1186339E+00
        -11   -1    0    0    0    0  0.00000000000E+00  0.00000000000E+00  0.45593999997E+02  0.45594000000E+02  0.51100000000E-03 0.  1.
         11   -1    0    0    0    0 -0.00000000000E+00 -0.00000000000E+00 -0.45593999997E+02  0.45594000000E+02  0.51100000000E-03 0. -1.
    9900012    2    1    2    0    0  0.51335151368E-01 -0.87167428386E+00  0.79440587020E+00  0.90007520419E+02  0.89999778888E+02 0.  0.
         12    1    1    2    0    0 -0.51335151368E-01  0.87167428386E+00 -0.79440587020E+00  0.11804795812E+01  0.00000000000E+00 0. -1.
         11    1    3    3    0    0 -0.21130971460E+02 -0.84952823976E+01 -0.29102055164E+02  0.36954260822E+02  0.51100000000E-03 0. -1.
        -11    1    3    3    0    0 -0.76371239475E+01 -0.62958323706E+01  0.10256056839E+01  0.99506298648E+01  0.51100000000E-03 0.  1.
        -12    1    3    3    0    0  0.28819430559E+02  0.13919440484E+02  0.28870855350E+02  0.43102629732E+02  0.00000000000E+00 0.  1.
</event>
<event>
 7    1  0.1999542E-015  0.9000780E+02  0.7816164E-02  0.1186339E+00
        -11   -1    0    0    0    0  0.00000000000E+00  0.00000000000E+00  0.45593999997E+02  0.45594000000E+02  0.51100000000E-03 0.  1.
         11   -1    0    0    0    0 -0.00000000000E+00 -0.00000000000E+00 -0.45593999997E+02  0.45594000000E+02  0.51100000000E-03 0. -1.
    9900012    2    1    2    0    0 -0.54244867838E+00 -0.32095057451E-01  0.10476556020E+01  0.90007803863E+02  0.90000066074E+02 0.  0.
         12    1    1    2    0    0  0.54244867838E+00  0.32095057451E-01 -0.10476556020E+01  0.11801961370E+01  0.00000000000E+00 0. -1.
         11    1    3    3    0    0  0.14649548663E+02 -0.16293657087E+02  0.16879325040E+02  0.27658708418E+02  0.51100000000E-03 0. -1.
        -11    1    3    3    0    0 -0.50997490141E+01  0.83941086362E+01  0.21094233637E+02  0.23268760018E+02  0.51100000000E-03 0.  1.
        -12    1    3    3    0    0 -0.10092248327E+02  0.78674533936E+01 -0.36925903074E+02  0.39080335427E+02  0.00000000000E+00 0.  1.
</event>
<event>
 7    1  0.1999542E-015  0.9000775E+02  0.7816164E-02  0.1186339E+00
        -11   -1    0    0    0    0  0.00000000000E+00  0.00000000000E+00  0.45593999997E+02  0.45594000000E+02  0.51100000000E-03 0. -1.
         11   -1    0    0    0    0 -0.00000000000E+00 -0.00000000000E+00 -0.45593999997E+02  0.45594000000E+02  0.51100000000E-03 0.  1.
    9900012    2    1    2    0    0 -0.10485455843E+01 -0.15146504939E+00  0.52018367222E+00  0.90007754027E+02  0.90000015580E+02 0.  0.
         12    1    1    2    0    0  0.10485455843E+01  0.15146504939E+00 -0.52018367222E+00  0.11802459728E+01  0.00000000000E+00 0. -1.
         11    1    3    3    0    0  0.12072079625E+01  0.16230852382E+02  0.28378713227E+02  0.32714664675E+02  0.51100000000E-03 0. -1.
        -11    1    3    3    0    0 -0.11389720252E+02  0.11053082826E+02  0.16766996864E+01  0.15959564201E+02  0.51100000000E-03 0.  1.
        -12    1    3    3    0    0  0.91339667049E+01 -0.27435400258E+02 -0.29535229241E+02  0.41333525151E+02  0.00000000000E+00 0.  1.
</event>
<event>
 7    1  0.2324260E-015  0.9000775E+02  0.7816164E-02  0.1186339E+00
        -11   -1    0    0    0    0  0.00000000000E+00  0.00000000000E+00  0.45593999997E+02  0.45594000000E+02  0.51100000000E-03 0. -1.
         11   -1    0    0    0    0 -0.00000000000E+00 -0.00000000000E+00 -0.45593999997E+02  0.45594000000E+02  0.51100000000E-03 0.  1.
    9900012    2    1    2    0    0 -0.54450038602E+00 -0.95063508339E+00 -0.43908174325E+00  0.90007754047E+02  0.90000015600E+02 0.  0.
         12    1    1    2    0    0  0.54450038602E+00  0.95063508339E+00  0.43908174325E+00  0.11802459529E+01  0.00000000000E+00 0. -1.
         11    1    3    3    0    0 -0.10938966871E+02 -0.14677603599E+00  0.34698982875E+02  0.36382715020E+02  0.51100000000E-03 0. -1.
        -11    1    3    3    0    0 -0.28439289684E+01  0.59249998035E+01  0.66058473473E+01  0.93183031763E+01  0.51100000000E-03 0.  1.
        -12    1    3    3    0    0  0.13238395454E+02 -0.67288588509E+01 -0.41743911965E+02  0.44306735851E+02  0.00000000000E+00 0.  1.
</event>
<event>
 7    1  0.1999542E-015  0.9000840E+02  0.7816164E-02  0.1186338E+00
        -11   -1    0    0    0    0  0.00000000000E+00  0.00000000000E+00  0.45593999997E+02  0.45594000000E+02  0.51100000000E-03 0. -1.
         11   -1    0    0    0    0 -0.00000000000E+00 -0.00000000000E+00 -0.45593999997E+02  0.45594000000E+02  0.51100000000E-03 0.  1.
    9900012    2    1    2    0    0  0.31613128578E+00  0.79809157159E+00  0.80905510746E+00  0.90008398663E+02  0.90000668723E+02 0.  0.
         12    1    1    2    0    0 -0.31613128578E+00 -0.79809157159E+00 -0.80905510746E+00  0.11796013366E+01  0.00000000000E+00 0. -1.
         11    1    3    3    0    0 -0.45412102019E+01 -0.38464033619E+01  0.49290756272E+01  0.77274313792E+01  0.51100000000E-03 0. -1.
        -11    1    3    3    0    0  0.42140830910E+02 -0.41561567552E+01 -0.10037131198E+02  0.43518585360E+02  0.51100000000E-03 0.  1.
         12    1    3    3    0    0 -0.37283489423E+02  0.88006516887E+01  0.59171106780E+01  0.38762381924E+02  0.00000000000E+00 0. -1.
</event>
<event>
 7    1  0.1999542E-015  0.9000769E+02  0.7816164E-02  0.1186339E+00
        -11   -1    0    0    0    0  0.00000000000E+00  0.00000000000E+00  0.45593999997E+02  0.45594000000E+02  0.51100000000E-03 0.  1.
         11   -1    0    0    0    0 -0.00000000000E+00 -0.00000000000E+00 -0.45593999997E+02  0.45594000000E+02  0.51100000000E-03 0. -1.
    9900012    2    1    2    0    0 -0.85271092526E+00 -0.30392194729E-01  0.81553190034E+00  0.90007689919E+02  0.89999950626E+02 0.  0.
         12    1    1    2    0    0  0.85271092526E+00  0.30392194729E-01 -0.81553190034E+00  0.11803100813E+01  0.00000000000E+00 0. -1.
         11    1    3    3    0    0  0.29633772743E+02  0.75286503494E+01 -0.14819967928E+02  0.33977529527E+02  0.51100000000E-03 0. -1.
        -11    1    3    3    0    0  0.10854851574E+02 -0.41090314087E+01 -0.24585703714E+00  0.11609151035E+02  0.51100000000E-03 0.  1.
        -12    1    3    3    0    0 -0.41341335242E+02 -0.34500111354E+01  0.15881356865E+02  0.44421009357E+02  0.00000000000E+00 0.  1.
</event>
<event>
 7    1  0.1999542E-015  0.9000775E+02  0.7816164E-02  0.1186339E+00
        -11   -1    0    0    0    0  0.00000000000E+00  0.00000000000E+00  0.45593999997E+02  0.45594000000E+02  0.51100000000E-03 0.  1.
         11   -1    0    0    0    0 -0.00000000000E+00 -0.00000000000E+00 -0.45593999997E+02  0.45594000000E+02  0.51100000000E-03 0. -1.
    9900012    2    1    2    0    0  0.38273697482E+00 -0.78201569834E+00  0.79683546274E+00  0.90007753035E+02  0.90000014575E+02 0.  0.
         12    1    1    2    0    0 -0.38273697482E+00  0.78201569834E+00 -0.79683546274E+00  0.11802469653E+01  0.00000000000E+00 0. -1.
         11    1    3    3    0    0 -0.52349815518E+01 -0.72762310997E+01  0.35380349696E+01  0.96367143037E+01  0.51100000000E-03 0. -1.
        -11    1    3    3    0    0  0.34148959555E+02  0.25706264838E+02  0.96350892584E+01  0.43815504515E+02  0.51100000000E-03 0.  1.
         12    1    3    3    0    0 -0.28531241029E+02 -0.19212049437E+02 -0.12376288765E+02  0.36555534216E+02  0.00000000000E+00 0. -1.
</event>
<event>
 7    1  0.1999542E-015  0.9000785E+02  0.7816164E-02  0.1186339E+00
        -11   -1    0    0    0    0  0.00000000000E+00  0.00000000000E+00  0.45593999997E+02  0.45594000000E+02  0.51100000000E-03 0.  1.
         11   -1    0    0    0    0 -0.00000000000E+00 -0.00000000000E+00 -0.45593999997E+02  0.45594000000E+02  0.51100000000E-03 0. -1.
    9900012    2    1    2    0    0 -0.10416707128E+01  0.44722033563E+00  0.32813942030E+00  0.90007847729E+02  0.90000110519E+02 0.  0.
         12    1    1    2    0    0  0.10416707128E+01 -0.44722033563E+00 -0.32813942030E+00  0.11801522706E+01  0.00000000000E+00 0. -1.
         11    1    3    3    0    0  0.32737664056E+02 -0.59729202691E+01 -0.22571045757E+02  0.40210477878E+02  0.51100000000E-03 0. -1.
        -11    1    3    3    0    0  0.49023671021E+00 -0.72909088804E+01  0.39581634739E+01  0.83105200007E+01  0.51100000000E-03 0.  1.
        -12    1    3    3    0    0 -0.34269571479E+02  0.13711049485E+02  0.18941021703E+02  0.41486849850E+02  0.00000000000E+00 0.  1.
</event>
<event>
 7    1  0.1999542E-015  0.9000770E+02  0.7816164E-02  0.1186339E+00
        -11   -1    0    0    0    0  0.00000000000E+00  0.00000000000E+00  0.45593999997E+02  0.45594000000E+02  0.51100000000E-03 0.  1.
         11   -1    0    0    0    0 -0.00000000000E+00 -0.00000000000E+00 -0.45593999997E+02  0.45594000000E+02  0.51100000000E-03 0. -1.
    9900012    2    1    2    0    0 -0.10111940782E+01  0.59298203865E+00  0.13769939591E+00  0.90007702459E+02  0.89999963331E+02 0.  0.
         12    1    1    2    0    0  0.10111940782E+01 -0.59298203865E+00 -0.13769939591E+00  0.11802975411E+01  0.00000000000E+00 0. -1.
         11    1    3    3    0    0  0.79701599781E+01 -0.11988654716E+02 -0.15189299989E+01  0.14476133481E+02  0.51100000000E-03 0. -1.
        -11    1    3    3    0    0 -0.31122218872E+02 -0.11399450091E+02 -0.17710239976E+02  0.37579150737E+02  0.51100000000E-03 0.  1.
         12    1    3    3    0    0  0.22140864815E+02  0.23981086845E+02  0.19366869370E+02  0.37952418240E+02  0.00000000000E+00 0. -1.
</event>
<event>
 7    1  0.1999542E-015  0.9000768E+02  0.7816164E-02  0.1186339E+00
        -11   -1    0    0    0    0  0.00000000000E+00  0.00000000000E+00  0.45593999997E+02  0.45594000000E+02  0.51100000000E-03 0.  1.
         11   -1    0    0    0    0 -0.00000000000E+00 -0.00000000000E+00 -0.45593999997E+02  0.45594000000E+02  0.51100000000E-03 0. -1.
    9900012    2    1    2    0    0 -0.67087249695E-01  0.32779389362E+00  0.11319001941E+01  0.90007683269E+02  0.89999943888E+02 0.  0.
         12    1    1    2    0    0  0.67087249695E-01 -0.32779389362E+00 -0.11319001941E+01  0.11803167308E+01  0.00000000000E+00 0. -1.
         11    1    3    3    0    0  0.29631809470E+02  0.14709393450E+02 -0.26391089400E+02  0.42319026313E+02  0.51100000000E-03 0. -1.
        -11    1    3    3    0    0  0.12809120917E+01 -0.64956997814E+01  0.73297199957E+01  0.98772287061E+01  0.51100000000E-03 0.  1.
        -12    1    3    3    0    0 -0.30979808811E+02 -0.78858997750E+01  0.20193269598E+02  0.37811428250E+02  0.00000000000E+00 0.  1.
</event>
<event>
 7    1  0.1999542E-015  0.9000771E+02  0.7816164E-02  0.1186339E+00
        -11   -1    0    0    0    0  0.00000000000E+00  0.00000000000E+00  0.45593999997E+02  0.45594000000E+02  0.51100000000E-03 0.  1.
         11   -1    0    0    0    0 -0.00000000000E+00 -0.00000000000E+00 -0.45593999997E+02  0.45594000000E+02  0.51100000000E-03 0. -1.
    9900012    2    1    2    0    0  0.25447912682E+00 -0.93089665259E+00 -0.67951874130E+00  0.90007714474E+02  0.89999975505E+02 0.  0.
         12    1    1    2    0    0 -0.25447912682E+00  0.93089665259E+00  0.67951874130E+00  0.11802855263E+01  0.00000000000E+00 0. -1.
         11    1    3    3    0    0 -0.26296746370E+01  0.73317779142E+01  0.50215662774E+01  0.92674853234E+01  0.51100000000E-03 0. -1.
        -11    1    3    3    0    0 -0.37264028101E+02 -0.11285393990E+02  0.45320760542E+01  0.39198311461E+02  0.51100000000E-03 0.  1.
         12    1    3    3    0    0  0.40148181864E+02  0.30227194235E+01 -0.10233161073E+02  0.41541917689E+02  0.00000000000E+00 0. -1.
</event>
<event>
 7    1  0.1999542E-015  0.9000767E+02  0.7816164E-02  0.1186339E+00
        -11   -1    0    0    0    0  0.00000000000E+00  0.00000000000E+00  0.45593999997E+02  0.45594000000E+02  0.51100000000E-03 0. -1.
         11   -1    0    0    0    0 -0.00000000000E+00 -0.00000000000E+00 -0.45593999997E+02  0.45594000000E+02  0.51100000000E-03 0.  1.
    9900012    2    1    2    0    0  0.33500860580E-01 -0.10805481993E+01 -0.47378878636E+00  0.90007668465E+02  0.89999928889E+02 0.  0.
         12    1    1    2    0    0 -0.33500860580E-01  0.10805481993E+01  0.47378878636E+00  0.11803315351E+01  0.00000000000E+00 0. -1.
         11    1    3    3    0    0 -0.28610283821E+02  0.19856822338E+02  0.15700521044E+02  0.38201414830E+02  0.51100000000E-03 0. -1.
        -11    1    3    3    0    0 -0.23175453990E+01 -0.30956659672E+01  0.78473935753E+01  0.87484713318E+01  0.51100000000E-03 0.  1.
        -12    1    3    3    0    0  0.30961330081E+02 -0.17841704571E+02 -0.24021703406E+02  0.43057782303E+02  0.00000000000E+00 0.  1.
</event>
<event>
 7    1  0.1999542E-015  0.9000772E+02  0.7816164E-02  0.1186339E+00
        -11   -1    0    0    0    0  0.00000000000E+00  0.00000000000E+00  0.45593999997E+02  0.45594000000E+02  0.51100000000E-03 0.  1.
         11   -1    0    0    0    0 -0.00000000000E+00 -0.00000000000E+00 -0.45593999997E+02  0.45594000000E+02  0.51100000000E-03 0. -1.
    9900012    2    1    2    0    0  0.44681229423E+00  0.10817405034E+01  0.15248337065E+00  0.90007722524E+02  0.89999983661E+02 0.  0.
         12    1    1    2    0    0 -0.44681229423E+00 -0.10817405034E+01 -0.15248337065E+00  0.11802774764E+01  0.00000000000E+00 0. -1.
         11    1    3    3    0    0 -0.29635246997E+02  0.58095968053E+01 -0.20915975684E+02  0.36735232661E+02  0.51100000000E-03 0. -1.
        -11    1    3    3    0    0 -0.39895476303E+01  0.10587956438E+02  0.26403715729E+01  0.11618643386E+02  0.51100000000E-03 0.  1.
        -12    1    3    3    0    0  0.34071606921E+02 -0.15315812739E+02  0.18428087482E+02  0.41653846477E+02  0.00000000000E+00 0.  1.
</event>
<event>
 7    1  0.1999542E-015  0.9000798E+02  0.7816164E-02  0.1186339E+00
        -11   -1    0    0    0    0  0.00000000000E+00  0.00000000000E+00  0.45593999997E+02  0.45594000000E+02  0.51100000000E-03 0. -1.
         11   -1    0    0    0    0 -0.00000000000E+00 -0.00000000000E+00 -0.45593999997E+02  0.45594000000E+02  0.51100000000E-03 0.  1.
    9900012    2    1    2    0    0 -0.95340147929E+00  0.48419667932E+00  0.49903658795E+00  0.90007975288E+02  0.90000239761E+02 0.  0.
         12    1    1    2    0    0  0.95340147929E+00 -0.48419667932E+00 -0.49903658795E+00  0.11800247121E+01  0.00000000000E+00 0. -1.
         11    1    3    3    0    0  0.79787864906E+00  0.29891216571E+01 -0.10211745467E+02  0.10670107982E+02  0.51100000000E-03 0. -1.
        -11    1    3    3    0    0 -0.27204526442E+02  0.27567287323E+02  0.91906456519E+00  0.38741273459E+02  0.51100000000E-03 0.  1.
         12    1    3    3    0    0  0.25453246313E+02 -0.30072212301E+02  0.97917174894E+01  0.40596593847E+02  0.00000000000E+00 0. -1.
</event>
<event>
 7    1  0.1999542E-015  0.9000718E+02  0.7816164E-02  0.1186340E+00
        -11   -1    0    0    0    0  0.00000000000E+00  0.00000000000E+00  0.45593999997E+02  0.45594000000E+02  0.51100000000E-03 0.  1.
         11   -1    0    0    0    0 -0.00000000000E+00 -0.00000000000E+00 -0.45593999997E+02  0.45594000000E+02  0.51100000000E-03 0. -1.
    9900012    2    1    2    0    0 -0.68882755229E+00  0.89780058831E+00 -0.33734448364E+00  0.90007182235E+02  0.89999436239E+02 0.  0.
         12    1    1    2    0    0  0.68882755229E+00 -0.89780058831E+00  0.33734448364E+00  0.11808177649E+01  0.00000000000E+00 0. -1.
         11    1    3    3    0    0 -0.86293735696E+00  0.90695555304E+01  0.21546164348E+01  0.93618305178E+01  0.51100000000E-03 0. -1.
        -11    1    3    3    0    0 -0.11145383920E+02  0.22050366742E+02  0.27232324302E+02  0.36770065859E+02  0.51100000000E-03 0.  1.
         12    1    3    3    0    0  0.11319493725E+02 -0.30222121684E+02 -0.29724285220E+02  0.43875285858E+02  0.00000000000E+00 0. -1.
</event>
<event>
 7    1  0.1999542E-015  0.9000776E+02  0.7816164E-02  0.1186339E+00
        -11   -1    0    0    0    0  0.00000000000E+00  0.00000000000E+00  0.45593999997E+02  0.45594000000E+02  0.51100000000E-03 0. -1.
         11   -1    0    0    0    0 -0.00000000000E+00 -0.00000000000E+00 -0.45593999997E+02  0.45594000000E+02  0.51100000000E-03 0.  1.
    9900012    2    1    2    0    0 -0.24724664723E+00 -0.94739422269E+00 -0.65899341598E+00  0.90007763142E+02  0.90000024816E+02 0.  0.
         12    1    1    2    0    0  0.24724664723E+00  0.94739422269E+00  0.65899341598E+00  0.11802368576E+01  0.00000000000E+00 0. -1.
         11    1    3    3    0    0  0.74094011202E+01 -0.31948351981E+02  0.22612609490E+02  0.39836246403E+02  0.51100000000E-03 0. -1.
        -11    1    3    3    0    0  0.20077640568E+00  0.30978328319E+01  0.73660378069E+01  0.79934593671E+01  0.51100000000E-03 0.  1.
        -12    1    3    3    0    0 -0.78574241731E+01  0.27903124926E+02 -0.30637640713E+02  0.42178057373E+02  0.00000000000E+00 0.  1.
</event>
<event>
 7    1  0.1999542E-015  0.9000787E+02  0.7816164E-02  0.1186339E+00
        -11   -1    0    0    0    0  0.00000000000E+00  0.00000000000E+00  0.45593999997E+02  0.45594000000E+02  0.51100000000E-03 0.  1.
         11   -1    0    0    0    0 -0.00000000000E+00 -0.00000000000E+00 -0.45593999997E+02  0.45594000000E+02  0.51100000000E-03 0. -1.
    9900012    2    1    2    0    0 -0.75725440874E+00 -0.57927358086E+00  0.69550221652E+00  0.90007866341E+02  0.90000129376E+02 0.  0.
         12    1    1    2    0    0  0.75725440874E+00  0.57927358086E+00 -0.69550221652E+00  0.11801336595E+01  0.00000000000E+00 0. -1.
         11    1    3    3    0    0 -0.29604024164E+01  0.11506587019E+00 -0.31197741530E+01  0.43023497821E+01  0.51100000000E-03 0. -1.
        -11    1    3    3    0    0 -0.12138334594E+02  0.34739239730E+02 -0.18766532106E+02  0.41307828208E+02  0.51100000000E-03 0.  1.
        -12    1    3    3    0    0  0.14341482602E+02 -0.35433579181E+02  0.22581808476E+02  0.44397688350E+02  0.00000000000E+00 0.  1.
</event>
<event>
 7    1  0.1999542E-015  0.9000781E+02  0.7816164E-02  0.1186339E+00
        -11   -1    0    0    0    0  0.00000000000E+00  0.00000000000E+00  0.45593999997E+02  0.45594000000E+02  0.51100000000E-03 0. -1.
         11   -1    0    0    0    0 -0.00000000000E+00 -0.00000000000E+00 -0.45593999997E+02  0.45594000000E+02  0.51100000000E-03 0.  1.
    9900012    2    1    2    0    0 -0.80918684972E+00  0.22284419839E+00 -0.82969555991E+00  0.90007814584E+02  0.90000076936E+02 0.  0.
         12    1    1    2    0    0  0.80918684972E+00 -0.22284419839E+00  0.82969555991E+00  0.11801854162E+01  0.00000000000E+00 0. -1.
         11    1    3    3    0    0 -0.87289418799E+01  0.37067014246E+02  0.49231248809E+01  0.38397853200E+02  0.51100000000E-03 0. -1.
        -11    1    3    3    0    0  0.69984825137E+01  0.52722898002E+01  0.14219515153E+01  0.88768093144E+01  0.51100000000E-03 0.  1.
        -12    1    3    3    0    0  0.92127251649E+00 -0.42116459848E+02 -0.71747719561E+01  0.42733152070E+02  0.00000000000E+00 0.  1.
</event>
<event>
 7    1  0.1999542E-015  0.9000778E+02  0.7816164E-02  0.1186339E+00
        -11   -1    0    0    0    0  0.00000000000E+00  0.00000000000E+00  0.45593999997E+02  0.45594000000E+02  0.51100000000E-03 0.  1.
         11   -1    0    0    0    0 -0.00000000000E+00 -0.00000000000E+00 -0.45593999997E+02  0.45594000000E+02  0.51100000000E-03 0. -1.
    9900012    2    1    2    0    0  0.24673272891E+00 -0.11520861517E+01 -0.68844432843E-01  0.90007780064E+02  0.90000041961E+02 0.  0.
         12    1    1    2    0    0 -0.24673272891E+00  0.11520861517E+01  0.68844432843E-01  0.11802199356E+01  0.00000000000E+00 0. -1.
         11    1    3    3    0    0 -0.21655934077E+01  0.83531833908E+01  0.24119706826E+01  0.89600820534E+01  0.51100000000E-03 0. -1.
        -11    1    3    3    0    0 -0.30548763171E+02  0.17215913103E+02  0.10621291498E+02  0.36639137935E+02  0.51100000000E-03 0.  1.
         12    1    3    3    0    0  0.32961089308E+02 -0.26721182645E+02 -0.13102106613E+02  0.44408560076E+02  0.00000000000E+00 0. -1.
</event>
<event>
 7    1  0.1999542E-015  0.9000758E+02  0.7816164E-02  0.1186339E+00
        -11   -1    0    0    0    0  0.00000000000E+00  0.00000000000E+00  0.45593999997E+02  0.45594000000E+02  0.51100000000E-03 0.  1.
         11   -1    0    0    0    0 -0.00000000000E+00 -0.00000000000E+00 -0.45593999997E+02  0.45594000000E+02  0.51100000000E-03 0. -1.
    9900012    2    1    2    0    0  0.10982516271E+01  0.15497389993E+00  0.40398952429E+00  0.90007584361E+02  0.89999843674E+02 0.  0.
         12    1    1    2    0    0 -0.10982516271E+01 -0.15497389993E+00 -0.40398952429E+00  0.11804156394E+01  0.00000000000E+00 0. -1.
         11    1    3    3    0    0 -0.87128579910E+01 -0.34847594734E+01  0.62383887800E+00  0.94046062206E+01  0.51100000000E-03 0. -1.
        -11    1    3    3    0    0 -0.28063101274E+02  0.57744126840E+01  0.22460620513E+02  0.36405507400E+02  0.51100000000E-03 0.  1.
         12    1    3    3    0    0  0.37874210892E+02 -0.21346793107E+01 -0.22680469867E+02  0.44197470740E+02  0.00000000000E+00 0. -1.
</event>
<event>
 7    1  0.1999542E-015  0.9000780E+02  0.7816164E-02  0.1186339E+00
        -11   -1    0    0    0    0  0.00000000000E+00  0.00000000000E+00  0.45593999997E+02  0.45594000000E+02  0.51100000000E-03 0. -1.
         11   -1    0    0    0    0 -0.00000000000E+00 -0.00000000000E+00 -0.45593999997E+02  0.45594000000E+02  0.51100000000E-03 0.  1.
    9900012    2    1    2    0    0 -0.20848553573E+00  0.73926108329E+00 -0.89604401593E+00  0.90007801692E+02  0.90000063874E+02 0.  0.
         12    1    1    2    0    0  0.20848553573E+00 -0.73926108329E+00  0.89604401593E+00  0.11801983081E+01  0.00000000000E+00 0. -1.
         11    1    3    3    0    0 -0.15894155083E+02  0.33607245254E+02 -0.35329304286E+01  0.37343710274E+02  0.51100000000E-03 0. -1.
        -11    1    3    3    0    0 -0.62093823260E+01  0.35980716049E+01  0.68508918087E+01  0.99215556734E+01  0.51100000000E-03 0.  1.
        -12    1    3    3    0    0  0.21895051873E+02 -0.36466055776E+02 -0.42140053960E+01  0.42742535744E+02  0.00000000000E+00 0.  1.
</event>
<event>
 7    1  0.1999542E-015  0.9000776E+02  0.7816164E-02  0.1186339E+00
        -11   -1    0    0    0    0  0.00000000000E+00  0.00000000000E+00  0.45593999997E+02  0.45594000000E+02  0.51100000000E-03 0.  1.
         11   -1    0    0    0    0 -0.00000000000E+00 -0.00000000000E+00 -0.45593999997E+02  0.45594000000E+02  0.51100000000E-03 0. -1.
    9900012    2    1    2    0    0 -0.11562493075E+01 -0.23490314114E+00  0.29651704389E-01  0.90007758003E+02  0.90000019609E+02 0.  0.
         12    1    1    2    0    0  0.11562493075E+01  0.23490314114E+00 -0.29651704389E-01  0.11802419966E+01  0.00000000000E+00 0. -1.
         11    1    3    3    0    0 -0.13676648001E+02 -0.23103420705E+01 -0.77068921048E+01  0.15867720920E+02  0.51100000000E-03 0. -1.
        -11    1    3    3    0    0  0.93910628709E+01 -0.95976509030E-01  0.40287156100E+02  0.41367332767E+02  0.51100000000E-03 0.  1.
         12    1    3    3    0    0  0.31293358227E+01  0.21714154384E+01 -0.32550612291E+02  0.32772704316E+02  0.00000000000E+00 0. -1.
</event>
<event>
 7    1  0.2279102E-015  0.9000779E+02  0.7816164E-02  0.1186339E+00
        -11   -1    0    0    0    0  0.00000000000E+00  0.00000000000E+00  0.45593999997E+02  0.45594000000E+02  0.51100000000E-03 0. -1.
         11   -1    0    0    0    0 -0.00000000000E+00 -0.00000000000E+00 -0.45593999997E+02  0.45594000000E+02  0.51100000000E-03 0.  1.
    9900012    2    1    2    0    0  0.11450495933E+01 -0.20127927333E+00  0.20307376523E+00  0.90007792022E+02  0.90000054077E+02 0.  0.
         12    1    1    2    0    0 -0.11450495933E+01  0.20127927333E+00 -0.20307376523E+00  0.11802079779E+01  0.00000000000E+00 0. -1.
         11    1    3    3    0    0 -0.33612021599E+02  0.32022635058E+01 -0.19983776281E+02  0.39234854431E+02  0.51100000000E-03 0. -1.
        -11    1    3    3    0    0 -0.10319161333E+00  0.92367417716E+01  0.19122279104E+01  0.94331682327E+01  0.51100000000E-03 0.  1.
        -12    1    3    3    0    0  0.34860262806E+02 -0.12640284551E+02  0.18274622135E+02  0.41339769358E+02  0.00000000000E+00 0.  1.
</event>
<event>
 7    1  0.1999542E-015  0.9000770E+02  0.7816164E-02  0.1186339E+00
        -11   -1    0    0    0    0  0.00000000000E+00  0.00000000000E+00  0.45593999997E+02  0.45594000000E+02  0.51100000000E-03 0. -1.
         11   -1    0    0    0    0 -0.00000000000E+00 -0.00000000000E+00 -0.45593999997E+02  0.45594000000E+02  0.51100000000E-03 0.  1.
    9900012    2    1    2    0    0 -0.48079413643E+00 -0.82007624801E+00  0.69958240276E+00  0.90007701905E+02  0.89999962770E+02 0.  0.
         12    1    1    2    0    0  0.48079413643E+00  0.82007624801E+00 -0.69958240276E+00  0.11802980947E+01  0.00000000000E+00 0. -1.
         11    1    3    3    0    0  0.15502629592E+02 -0.29144270575E+02  0.14837191114E+02  0.36192019452E+02  0.51100000000E-03 0. -1.
        -11    1    3    3    0    0  0.10473701042E+02 -0.28254751366E+01 -0.10338512558E+01  0.10897273602E+02  0.51100000000E-03 0.  1.
        -12    1    3    3    0    0 -0.26457124771E+02  0.31149669464E+02 -0.13103757456E+02  0.42918408851E+02  0.00000000000E+00 0.  1.
</event>
<event>
 7    1  0.1999542E-015  0.9000771E+02  0.7816164E-02  0.1186339E+00
        -11   -1    0    0    0    0  0.00000000000E+00  0.00000000000E+00  0.45593999997E+02  0.45594000000E+02  0.51100000000E-03 0.  1.
         11   -1    0    0    0    0 -0.00000000000E+00 -0.00000000000E+00 -0.45593999997E+02  0.45594000000E+02  0.51100000000E-03 0. -1.
    9900012    2    1    2    0    0  0.12517842689E+00  0.10672615327E+01  0.48821765561E+00  0.90007714739E+02  0.89999975774E+02 0.  0.
         12    1    1    2    0    0 -0.12517842689E+00 -0.10672615327E+01 -0.48821765561E+00  0.11802852608E+01  0.00000000000E+00 0. -1.
         11    1    3    3    0    0 -0.98199554443E+01  0.36707140927E+01  0.84740241993E+01  0.13480161471E+02  0.51100000000E-03 0. -1.
        -11    1    3    3    0    0  0.25742952233E+02  0.21353349515E+01  0.27296013305E+02  0.37581000354E+02  0.51100000000E-03 0.  1.
         12    1    3    3    0    0 -0.15797818362E+02 -0.47387875115E+01 -0.35281819848E+02  0.38946552914E+02  0.00000000000E+00 0. -1.
</event>
<event>
 7    1  0.1999542E-015  0.9000778E+02  0.7816164E-02  0.1186339E+00
        -11   -1    0    0    0    0  0.00000000000E+00  0.00000000000E+00  0.45593999997E+02  0.45594000000E+02  0.51100000000E-03 0.  1.
         11   -1    0    0    0    0 -0.00000000000E+00 -0.00000000000E+00 -0.45593999997E+02  0.45594000000E+02  0.51100000000E-03 0. -1.
    9900012    2    1    2    0    0 -0.96775253962E-01 -0.28509681445E+00  0.11411765066E+01  0.90007775673E+02  0.90000037512E+02 0.  0.
         12    1    1    2    0    0  0.96775253962E-01  0.28509681445E+00 -0.11411765066E+01  0.11802243272E+01  0.00000000000E+00 0. -1.
         11    1    3    3    0    0  0.11827993325E+02 -0.56301747754E+01 -0.35027572274E+02  0.37396939898E+02  0.51100000000E-03 0. -1.
        -11    1    3    3    0    0  0.47820551784E+00  0.81682907064E+01 -0.49543765580E+01  0.95653280613E+01  0.51100000000E-03 0.  1.
        -12    1    3    3    0    0 -0.12402974097E+02 -0.28232127454E+01  0.41123125339E+02  0.43045507713E+02  0.00000000000E+00 0.  1.
</event>
<event>
 7    1  0.1999542E-015  0.9000771E+02  0.7816164E-02  0.1186339E+00
        -11   -1    0    0    0    0  0.00000000000E+00  0.00000000000E+00  0.45593999997E+02  0.45594000000E+02  0.51100000000E-03 0. -1.
         11   -1    0    0    0    0 -0.00000000000E+00 -0.00000000000E+00 -0.45593999997E+02  0.45594000000E+02  0.51100000000E-03 0.  1.
    9900012    2    1    2    0    0  0.17926562570E+00  0.10052079691E+01 -0.59202746330E+00  0.90007713703E+02  0.89999974724E+02 0.  0.
         12    1    1    2    0    0 -0.17926562570E+00 -0.10052079691E+01  0.59202746330E+00  0.11802862970E+01  0.00000000000E+00 0. -1.
         11    1    3    3    0    0 -0.55363525851E+01 -0.45558669455E-01  0.76191937308E+01  0.94183538322E+01  0.51100000000E-03 0. -1.
        -11    1    3    3    0    0 -0.18980490417E+02  0.33435661934E+02 -0.10318596690E+02  0.39807988436E+02  0.51100000000E-03 0.  1.
         12    1    3    3    0    0  0.24696108628E+02 -0.32384895295E+02  0.21073754960E+01  0.40781371435E+02  0.00000000000E+00 0. -1.
</event>
<event>
 7    1  0.1999542E-015  0.9000779E+02  0.7816164E-02  0.1186339E+00
        -11   -1    0    0    0    0  0.00000000000E+00  0.00000000000E+00  0.45593999997E+02  0.45594000000E+02  0.51100000000E-03 0.  1.
         11   -1    0    0    0    0 -0.00000000000E+00 -0.00000000000E+00 -0.45593999997E+02  0.45594000000E+02  0.51100000000E-03 0. -1.
    9900012    2    1    2    0    0 -0.10510911646E+00 -0.41055726976E+00  0.11014908173E+01  0.90007793569E+02  0.90000055645E+02 0.  0.
         12    1    1    2    0    0  0.10510911646E+00  0.41055726976E+00 -0.11014908173E+01  0.11802064306E+01  0.00000000000E+00 0. -1.
         11    1    3    3    0    0 -0.24176559027E+02 -0.15238707935E+02 -0.72993075060E+01  0.29495832184E+02  0.51100000000E-03 0. -1.
        -11    1    3    3    0    0  0.18090008946E+02 -0.17517836852E+02  0.11073849599E+02  0.27509147149E+02  0.51100000000E-03 0.  1.
         12    1    3    3    0    0  0.59814409641E+01  0.32345987517E+02 -0.26730512760E+01  0.33002814237E+02  0.00000000000E+00 0. -1.
</event>
<event>
 7    1  0.2607318E-015  0.9000795E+02  0.7816164E-02  0.1186339E+00
        -11   -1    0    0    0    0  0.00000000000E+00  0.00000000000E+00  0.45593999997E+02  0.45594000000E+02  0.51100000000E-03 0.  1.
         11   -1    0    0    0    0 -0.00000000000E+00 -0.00000000000E+00 -0.45593999997E+02  0.45594000000E+02  0.51100000000E-03 0. -1.
    9900012    2    1    2    0    0  0.87445637125E+00 -0.20703077958E+00  0.76484692165E+00  0.90007946398E+02  0.90000210491E+02 0.  0.
         12    1    1    2    0    0 -0.87445637125E+00  0.20703077958E+00 -0.76484692165E+00  0.11800536015E+01  0.00000000000E+00 0. -1.
         11    1    3    3    0    0  0.16757096879E+02  0.31260415913E+02 -0.12389367880E+02  0.37570072340E+02  0.51100000000E-03 0. -1.
        -11    1    3    3    0    0  0.69989915297E+01 -0.26466893639E+00 -0.60369273248E+01  0.92466439244E+01  0.51100000000E-03 0.  1.
        -12    1    3    3    0    0 -0.22881632037E+02 -0.31202777756E+02  0.19191142126E+02  0.43191230134E+02  0.00000000000E+00 0.  1.
</event>
<event>
 7    1  0.1999542E-015  0.9000771E+02  0.7816164E-02  0.1186339E+00
        -11   -1    0    0    0    0  0.00000000000E+00  0.00000000000E+00  0.45593999997E+02  0.45594000000E+02  0.51100000000E-03 0.  1.
         11   -1    0    0    0    0 -0.00000000000E+00 -0.00000000000E+00 -0.45593999997E+02  0.45594000000E+02  0.51100000000E-03 0. -1.
    9900012    2    1    2    0    0 -0.82855859633E+00 -0.35648286310E+00  0.76124517248E+00  0.90007710378E+02  0.89999971355E+02 0.  0.
         12    1    1    2    0    0  0.82855859633E+00  0.35648286310E+00 -0.76124517248E+00  0.11802896220E+01  0.00000000000E+00 0. -1.
         11    1    3    3    0    0  0.17318783835E+01  0.32775936085E+02 -0.23435451484E+02  0.40329663717E+02  0.51100000000E-03 0. -1.
        -11    1    3    3    0    0 -0.77987942019E+01 -0.30820075712E+01 -0.29043766696E+01  0.88744219966E+01  0.51100000000E-03 0.  1.
        -12    1    3    3    0    0  0.52383572220E+01 -0.30050411377E+02  0.27101073326E+02  0.40803624664E+02  0.00000000000E+00 0.  1.
</event>
<event>
 7    1  0.1999542E-015  0.9000762E+02  0.7816164E-02  0.1186339E+00
        -11   -1    0    0    0    0  0.00000000000E+00  0.00000000000E+00  0.45593999997E+02  0.45594000000E+02  0.51100000000E-03 0. -1.
         11   -1    0    0    0    0 -0.00000000000E+00 -0.00000000000E+00 -0.45593999997E+02  0.45594000000E+02  0.51100000000E-03 0.  1.
    9900012    2    1    2    0    0  0.85841284004E+00 -0.23117187890E+00 -0.77652042050E+00  0.90007619974E+02  0.89999879758E+02 0.  0.
         12    1    1    2    0    0 -0.85841284004E+00  0.23117187890E+00  0.77652042050E+00  0.11803800257E+01  0.00000000000E+00 0. -1.
         11    1    3    3    0    0  0.25632842970E+01 -0.54360452251E+01 -0.78586627101E+01  0.98934116425E+01  0.51100000000E-03 0. -1.
        -11    1    3    3    0    0  0.81697615585E+01  0.17180200047E+02 -0.32466106683E+02  0.37629142443E+02  0.51100000000E-03 0.  1.
         12    1    3    3    0    0 -0.98746330155E+01 -0.11975326701E+02  0.39548248972E+02  0.42485065889E+02  0.00000000000E+00 0. -1.
</event>
<event>
 7    1  0.1999542E-015  0.9000774E+02  0.7816164E-02  0.1186339E+00
        -11   -1    0    0    0    0  0.00000000000E+00  0.00000000000E+00  0.45593999997E+02  0.45594000000E+02  0.51100000000E-03 0.  1.
         11   -1    0    0    0    0 -0.00000000000E+00 -0.00000000000E+00 -0.45593999997E+02  0.45594000000E+02  0.51100000000E-03 0. -1.
    9900012    2    1    2    0    0  0.42241066494E+00  0.38074171065E+00  0.10342220213E+01  0.90007741465E+02  0.90000002852E+02 0.  0.
         12    1    1    2    0    0 -0.42241066494E+00 -0.38074171065E+00 -0.10342220213E+01  0.11802585350E+01  0.00000000000E+00 0. -1.
         11    1    3    3    0    0  0.96124981701E+01 -0.22400825289E+02 -0.34110312284E+02  0.41925058128E+02  0.51100000000E-03 0. -1.
        -11    1    3    3    0    0  0.43700087381E+01 -0.15028024929E+01  0.78763436283E+01  0.91319319378E+01  0.51100000000E-03 0.  1.
        -12    1    3    3    0    0 -0.13560096243E+02  0.24284369492E+02  0.27268190677E+02  0.38950751399E+02  0.00000000000E+00 0.  1.
</event>
<event>
 7    1  0.1999542E-015  0.9000774E+02  0.7816164E-02  0.1186339E+00
        -11   -1    0    0    0    0  0.00000000000E+00  0.00000000000E+00  0.45593999997E+02  0.45594000000E+02  0.51100000000E-03 0. -1.
         11   -1    0    0    0    0 -0.00000000000E+00 -0.00000000000E+00 -0.45593999997E+02  0.45594000000E+02  0.51100000000E-03 0.  1.
    9900012    2    1    2    0    0  0.99598630519E+00  0.30379980321E-01 -0.63253426353E+00  0.90007741021E+02  0.90000002402E+02 0.  0.
         12    1    1    2    0    0 -0.99598630519E+00 -0.30379980321E-01  0.63253426353E+00  0.11802589791E+01  0.00000000000E+00 0. -1.
         11    1    3    3    0    0  0.62350406233E+01 -0.88219145011E+01  0.18220087249E+01  0.10955438060E+02  0.51100000000E-03 0. -1.
        -11    1    3    3    0    0  0.11829267644E+02 -0.15811369141E+02 -0.31579167610E+02  0.37244795534E+02  0.51100000000E-03 0.  1.
         12    1    3    3    0    0 -0.17068321962E+02  0.24663663623E+02  0.29124624622E+02  0.41807507427E+02  0.00000000000E+00 0. -1.
</event>
<event>
 7    1  0.1999542E-015  0.9000772E+02  0.7816164E-02  0.1186339E+00
        -11   -1    0    0    0    0  0.00000000000E+00  0.00000000000E+00  0.45593999997E+02  0.45594000000E+02  0.51100000000E-03 0.  1.
         11   -1    0    0    0    0 -0.00000000000E+00 -0.00000000000E+00 -0.45593999997E+02  0.45594000000E+02  0.51100000000E-03 0. -1.
    9900012    2    1    2    0    0 -0.11357758928E+01 -0.17663344541E+00  0.26810367416E+00  0.90007717901E+02  0.89999978977E+02 0.  0.
         12    1    1    2    0    0  0.11357758928E+01  0.17663344541E+00 -0.26810367416E+00  0.11802820988E+01  0.00000000000E+00 0. -1.
         11    1    3    3    0    0  0.14193634804E+02  0.36103930116E+02  0.13633118781E+02  0.41119520507E+02  0.51100000000E-03 0. -1.
        -11    1    3    3    0    0  0.79956712713E+00 -0.30281598780E+01  0.62918127954E+01  0.70282265438E+01  0.51100000000E-03 0.  1.
        -12    1    3    3    0    0 -0.16128977824E+02 -0.33252403684E+02 -0.19656827902E+02  0.41859970850E+02  0.00000000000E+00 0.  1.
</event>
<event>
 7    1  0.1999542E-015  0.9000779E+02  0.7816164E-02  0.1186339E+00
        -11   -1    0    0    0    0  0.00000000000E+00  0.00000000000E+00  0.45593999997E+02  0.45594000000E+02  0.51100000000E-03 0.  1.
         11   -1    0    0    0    0 -0.00000000000E+00 -0.00000000000E+00 -0.45593999997E+02  0.45594000000E+02  0.51100000000E-03 0. -1.
    9900012    2    1    2    0    0  0.71412956536E+00  0.52018366806E+00  0.78251282237E+00  0.90007788832E+02  0.90000050844E+02 0.  0.
         12    1    1    2    0    0 -0.71412956536E+00 -0.52018366806E+00 -0.78251282237E+00  0.11802111683E+01  0.00000000000E+00 0. -1.
         11    1    3    3    0    0 -0.10489482798E+02  0.41115488162E+02  0.10228820008E+02  0.43647925211E+02  0.51100000000E-03 0. -1.
        -11    1    3    3    0    0  0.91159629851E+01 -0.67910537267E+01 -0.74783442011E+00  0.11392034430E+02  0.51100000000E-03 0.  1.
        -12    1    3    3    0    0  0.20876493785E+01 -0.33804250768E+02 -0.86984727660E+01  0.34967829191E+02  0.00000000000E+00 0.  1.
</event>
<event>
 7    1  0.2010278E-015  0.9000787E+02  0.7816164E-02  0.1186339E+00
        -11   -1    0    0    0    0  0.00000000000E+00  0.00000000000E+00  0.45593999997E+02  0.45594000000E+02  0.51100000000E-03 0.  1.
         11   -1    0    0    0    0 -0.00000000000E+00 -0.00000000000E+00 -0.45593999997E+02  0.45594000000E+02  0.51100000000E-03 0. -1.
    9900012    2    1    2    0    0 -0.11735323608E+01 -0.14730488611E-01  0.12377334250E+00  0.90007866520E+02  0.90000129558E+02 0.  0.
         12    1    1    2    0    0  0.11735323608E+01  0.14730488611E-01 -0.12377334250E+00  0.11801334795E+01  0.00000000000E+00 0. -1.
         11    1    3    3    0    0 -0.32337517741E+02 -0.20598724381E+02  0.82695646065E+01  0.39222547072E+02  0.51100000000E-03 0. -1.
        -11    1    3    3    0    0  0.16452529596E+01 -0.83266612006E+01 -0.35943125536E+01  0.92173329681E+01  0.51100000000E-03 0.  1.
        -12    1    3    3    0    0  0.29518732420E+02  0.28910655093E+02 -0.45514787103E+01  0.41567986481E+02  0.00000000000E+00 0.  1.
</event>
<event>
 7    1  0.1999542E-015  0.9000765E+02  0.7816164E-02  0.1186339E+00
        -11   -1    0    0    0    0  0.00000000000E+00  0.00000000000E+00  0.45593999997E+02  0.45594000000E+02  0.51100000000E-03 0. -1.
         11   -1    0    0    0    0 -0.00000000000E+00 -0.00000000000E+00 -0.45593999997E+02  0.45594000000E+02  0.51100000000E-03 0.  1.
    9900012    2    1    2    0    0 -0.62712425485E+00 -0.43104858516E+00 -0.90229810606E+00  0.90007648533E+02  0.89999908693E+02 0.  0.
         12    1    1    2    0    0  0.62712425485E+00  0.43104858516E+00  0.90229810606E+00  0.11803514671E+01  0.00000000000E+00 0. -1.
         11    1    3    3    0    0 -0.48212242928E+01  0.11461103260E+02 -0.29918308156E+01  0.12788750663E+02  0.51100000000E-03 0. -1.
        -11    1    3    3    0    0 -0.27124760280E+02  0.18699364516E+02 -0.32891007062E+01  0.33109470507E+02  0.51100000000E-03 0.  1.
         12    1    3    3    0    0  0.31318860318E+02 -0.30591516361E+02  0.53786334157E+01  0.44109427363E+02  0.00000000000E+00 0. -1.
</event>
<event>
 7    1  0.1999542E-015  0.9000864E+02  0.7816164E-02  0.1186337E+00
        -11   -1    0    0    0    0  0.00000000000E+00  0.00000000000E+00  0.45593999997E+02  0.45594000000E+02  0.51100000000E-03 0.  1.
         11   -1    0    0    0    0 -0.00000000000E+00 -0.00000000000E+00 -0.45593999997E+02  0.45594000000E+02  0.51100000000E-03 0. -1.
    9900012    2    1    2    0    0  0.95073916178E+00  0.41919377033E+00  0.55790586950E+00  0.90008641136E+02  0.90000914394E+02 0.  0.
         12    1    1    2    0    0 -0.95073916178E+00 -0.41919377033E+00 -0.55790586950E+00  0.11793588640E+01  0.00000000000E+00 0. -1.
         11    1    3    3    0    0 -0.92851522471E+01 -0.33189406888E+01 -0.56768101484E+01  0.11377855390E+02  0.51100000000E-03 0. -1.
        -11    1    3    3    0    0 -0.33517326892E+02 -0.44336838935E+01  0.11171969068E+01  0.33827753163E+02  0.51100000000E-03 0.  1.
         12    1    3    3    0    0  0.43753218301E+02  0.81718183527E+01  0.51175191111E+01  0.44803032584E+02  0.00000000000E+00 0. -1.
</event>
<event>
 7    1  0.2202846E-015  0.9000768E+02  0.7816164E-02  0.1186339E+00
        -11   -1    0    0    0    0  0.00000000000E+00  0.00000000000E+00  0.45593999997E+02  0.45594000000E+02  0.51100000000E-03 0.  1.
         11   -1    0    0    0    0 -0.00000000000E+00 -0.00000000000E+00 -0.45593999997E+02  0.45594000000E+02  0.51100000000E-03 0. -1.
    9900012    2    1    2    0    0  0.90597734122E+00 -0.90143765792E-01  0.75115782374E+00  0.90007678469E+02  0.89999939024E+02 0.  0.
         12    1    1    2    0    0 -0.90597734122E+00  0.90143765792E-01 -0.75115782374E+00  0.11803215314E+01  0.00000000000E+00 0. -1.
         11    1    3    3    0    0  0.26113428681E+02  0.11926718593E+02 -0.24698448514E+02  0.37870451979E+02  0.51100000000E-03 0. -1.
        -11    1    3    3    0    0 -0.34533657793E+01 -0.22837368774E+01 -0.91966586901E+01  0.10085619498E+02  0.51100000000E-03 0.  1.
        -12    1    3    3    0    0 -0.21754085560E+02 -0.97331254810E+01  0.34646265028E+02  0.42051606992E+02  0.00000000000E+00 0.  1.
</event>
<event>
 7    1  0.1999542E-015  0.9000769E+02  0.7816164E-02  0.1186339E+00
        -11   -1    0    0    0    0  0.00000000000E+00  0.00000000000E+00  0.45593999997E+02  0.45594000000E+02  0.51100000000E-03 0. -1.
         11   -1    0    0    0    0 -0.00000000000E+00 -0.00000000000E+00 -0.45593999997E+02  0.45594000000E+02  0.51100000000E-03 0.  1.
    9900012    2    1    2    0    0 -0.60728488437E+00 -0.94158540211E+00  0.37113953394E+00  0.90007693873E+02  0.89999954632E+02 0.  0.
         12    1    1    2    0    0  0.60728488437E+00  0.94158540211E+00 -0.37113953394E+00  0.11803061272E+01  0.00000000000E+00 0. -1.
         11    1    3    3    0    0  0.14859439663E+02  0.34092765513E+02  0.21619929815E+02  0.43017914558E+02  0.51100000000E-03 0. -1.
        -11    1    3    3    0    0  0.28065999726E+01 -0.88974549704E+01 -0.14209150410E+01  0.94371981102E+01  0.51100000000E-03 0.  1.
        -12    1    3    3    0    0 -0.18273324520E+02 -0.26136895945E+02 -0.19827875240E+02  0.37552581205E+02  0.00000000000E+00 0.  1.
</event>
<event>
 7    1  0.1999542E-015  0.9000775E+02  0.7816164E-02  0.1186339E+00
        -11   -1    0    0    0    0  0.00000000000E+00  0.00000000000E+00  0.45593999997E+02  0.45594000000E+02  0.51100000000E-03 0. -1.
         11   -1    0    0    0    0 -0.00000000000E+00 -0.00000000000E+00 -0.45593999997E+02  0.45594000000E+02  0.51100000000E-03 0.  1.
    9900012    2    1    2    0    0  0.85980845754E+00 -0.44435164449E+00 -0.67547458325E+00  0.90007752195E+02  0.90000013724E+02 0.  0.
         12    1    1    2    0    0 -0.85980845754E+00  0.44435164449E+00  0.67547458325E+00  0.11802478046E+01  0.00000000000E+00 0. -1.
         11    1    3    3    0    0 -0.61600296353E+01  0.26249681873E+01  0.92296823331E+01  0.11402782964E+02  0.51100000000E-03 0. -1.
        -11    1    3    3    0    0 -0.15229294139E+01 -0.38711681065E+02 -0.15112893989E+02  0.41585010880E+02  0.51100000000E-03 0.  1.
         12    1    3    3    0    0  0.85427675067E+01  0.35642361233E+02  0.52077370722E+01  0.37019958352E+02  0.00000000000E+00 0. -1.
</event>
<event>
 7    1  0.1999542E-015  0.9000775E+02  0.7816164E-02  0.1186339E+00
        -11   -1    0    0    0    0  0.00000000000E+00  0.00000000000E+00  0.45593999997E+02  0.45594000000E+02  0.51100000000E-03 0. -1.
         11   -1    0    0    0    0 -0.00000000000E+00 -0.00000000000E+00 -0.45593999997E+02  0.45594000000E+02  0.51100000000E-03 0.  1.
    9900012    2    1    2    0    0 -0.11363847041E+01  0.29713457911E+00 -0.11547500549E+00  0.90007748488E+02  0.90000009968E+02 0.  0.
         12    1    1    2    0    0  0.11363847041E+01 -0.29713457911E+00  0.11547500549E+00  0.11802515116E+01  0.00000000000E+00 0. -1.
         11    1    3    3    0    0  0.15810368150E+02 -0.35433899912E+02 -0.26640687081E+01  0.38892496273E+02  0.51100000000E-03 0. -1.
        -11    1    3    3    0    0  0.74998850362E+01  0.14037672990E+01 -0.37545998557E+01  0.85038731484E+01  0.51100000000E-03 0.  1.
        -12    1    3    3    0    0 -0.24446637890E+02  0.34327267192E+02  0.63031935583E+01  0.42611379067E+02  0.00000000000E+00 0.  1.
</event>
<event>
 7    1  0.1999542E-015  0.9000776E+02  0.7816164E-02  0.1186339E+00
        -11   -1    0    0    0    0  0.00000000000E+00  0.00000000000E+00  0.45593999997E+02  0.45594000000E+02  0.51100000000E-03 0.  1.
         11   -1    0    0    0    0 -0.00000000000E+00 -0.00000000000E+00 -0.45593999997E+02  0.45594000000E+02  0.51100000000E-03 0. -1.
    9900012    2    1    2    0    0 -0.67415963127E+00  0.96640891643E+00  0.67270996999E-01  0.90007761554E+02  0.90000023207E+02 0.  0.
         12    1    1    2    0    0  0.67415963127E+00 -0.96640891643E+00 -0.67270996999E-01  0.11802384459E+01  0.00000000000E+00 0. -1.
         11    1    3    3    0    0 -0.46787012710E+01 -0.40232097094E+01  0.93120722289E+01  0.11170995990E+02  0.51100000000E-03 0. -1.
        -11    1    3    3    0    0  0.15924999015E+02  0.26145670882E+02  0.23128388165E+02  0.38368268646E+02  0.51100000000E-03 0.  1.
         12    1    3    3    0    0 -0.11920457376E+02 -0.21156052256E+02 -0.32373189397E+02  0.40468496918E+02  0.00000000000E+00 0. -1.
</event>
<event>
 7    1  0.1999542E-015  0.9000758E+02  0.7816164E-02  0.1186339E+00
        -11   -1    0    0    0    0  0.00000000000E+00  0.00000000000E+00  0.45593999997E+02  0.45594000000E+02  0.51100000000E-03 0.  1.
         11   -1    0    0    0    0 -0.00000000000E+00 -0.00000000000E+00 -0.45593999997E+02  0.45594000000E+02  0.51100000000E-03 0. -1.
    9900012    2    1    2    0    0  0.16287393183E-01  0.46885881323E-01  0.11793728418E+01  0.90007583182E+02  0.89999842480E+02 0.  0.
         12    1    1    2    0    0 -0.16287393183E-01 -0.46885881323E-01 -0.11793728418E+01  0.11804168183E+01  0.00000000000E+00 0. -1.
         11    1    3    3    0    0 -0.38786365024E+01  0.11147725750E+01 -0.12235563124E+02  0.12883925809E+02  0.51100000000E-03 0. -1.
        -11    1    3    3    0    0 -0.34764122518E+02 -0.87670741922E+01  0.12630151562E+01  0.35874796333E+02  0.51100000000E-03 0.  1.
         12    1    3    3    0    0  0.38659046414E+02  0.76991874985E+01  0.12151920810E+02  0.41248861040E+02  0.00000000000E+00 0. -1.
</event>
<event>
 7    1  0.1999542E-015  0.9000764E+02  0.7816164E-02  0.1186339E+00
        -11   -1    0    0    0    0  0.00000000000E+00  0.00000000000E+00  0.45593999997E+02  0.45594000000E+02  0.51100000000E-03 0.  1.
         11   -1    0    0    0    0 -0.00000000000E+00 -0.00000000000E+00 -0.45593999997E+02  0.45594000000E+02  0.51100000000E-03 0. -1.
    9900012    2    1    2    0    0 -0.42729258379E+00  0.99184077101E+00  0.47635951670E+00  0.90007641810E+02  0.89999901882E+02 0.  0.
         12    1    1    2    0    0  0.42729258379E+00 -0.99184077101E+00 -0.47635951670E+00  0.11803581899E+01  0.00000000000E+00 0. -1.
         11    1    3    3    0    0  0.30366044140E+02 -0.16871404262E+02 -0.58005131541E+01  0.35219126502E+02  0.51100000000E-03 0. -1.
        -11    1    3    3    0    0  0.70700062927E+01  0.96562118821E+00 -0.82009623650E+01  0.10870749617E+02  0.51100000000E-03 0.  1.
        -12    1    3    3    0    0 -0.37863343016E+02  0.16897623845E+02  0.14477835036E+02  0.43917765691E+02  0.00000000000E+00 0.  1.
</event>
<event>
 7    1  0.1999542E-015  0.9000773E+02  0.7816164E-02  0.1186339E+00
        -11   -1    0    0    0    0  0.00000000000E+00  0.00000000000E+00  0.45593999997E+02  0.45594000000E+02  0.51100000000E-03 0.  1.
         11   -1    0    0    0    0 -0.00000000000E+00 -0.00000000000E+00 -0.45593999997E+02  0.45594000000E+02  0.51100000000E-03 0. -1.
    9900012    2    1    2    0    0 -0.11500940255E+01  0.54808510023E-01 -0.25943575715E+00  0.90007734287E+02  0.89999995580E+02 0.  0.
         12    1    1    2    0    0  0.11500940255E+01 -0.54808510023E-01  0.25943575715E+00  0.11802657126E+01  0.00000000000E+00 0. -1.
         11    1    3    3    0    0 -0.19906749789E+02  0.10662568881E+02  0.14495319399E+02  0.26834368765E+02  0.51100000000E-03 0. -1.
        -11    1    3    3    0    0 -0.13846743709E+02 -0.30281920835E+01  0.13346357021E+02  0.19468628730E+02  0.51100000000E-03 0.  1.
        -12    1    3    3    0    0  0.32603399472E+02 -0.75795682870E+01 -0.28101112177E+02  0.43704736793E+02  0.00000000000E+00 0.  1.
</event>
<event>
 7    1  0.1999542E-015  0.9000739E+02  0.7816164E-02  0.1186340E+00
        -11   -1    0    0    0    0  0.00000000000E+00  0.00000000000E+00  0.45593999997E+02  0.45594000000E+02  0.51100000000E-03 0.  1.
         11   -1    0    0    0    0 -0.00000000000E+00 -0.00000000000E+00 -0.45593999997E+02  0.45594000000E+02  0.51100000000E-03 0. -1.
    9900012    2    1    2    0    0  0.67063114551E+00  0.97164469208E+00 -0.26002362243E-02  0.90007387319E+02  0.89999644031E+02 0.  0.
         12    1    1    2    0    0 -0.67063114551E+00 -0.97164469208E+00  0.26002362243E-02  0.11806126809E+01  0.00000000000E+00 0. -1.
         11    1    3    3    0    0 -0.49372568395E+01 -0.51957190380E+01 -0.38550958156E+01  0.81384129552E+01  0.51100000000E-03 0. -1.
        -11    1    3    3    0    0  0.42912814600E+02  0.90498731045E+01 -0.24530582600E+01  0.43925247355E+02  0.51100000000E-03 0.  1.
         12    1    3    3    0    0 -0.37304926615E+02 -0.28825093744E+01  0.63055538393E+01  0.37943727009E+02  0.00000000000E+00 0. -1.
</event>
<event>
 7    1  0.1999542E-015  0.9000778E+02  0.7816164E-02  0.1186339E+00
        -11   -1    0    0    0    0  0.00000000000E+00  0.00000000000E+00  0.45593999997E+02  0.45594000000E+02  0.51100000000E-03 0. -1.
         11   -1    0    0    0    0 -0.00000000000E+00 -0.00000000000E+00 -0.45593999997E+02  0.45594000000E+02  0.51100000000E-03 0.  1.
    9900012    2    1    2    0    0  0.34898727108E+00  0.71379540093E+00 -0.87270474996E+00  0.90007784100E+02  0.90000046050E+02 0.  0.
         12    1    1    2    0    0 -0.34898727108E+00 -0.71379540093E+00  0.87270474996E+00  0.11802158999E+01  0.00000000000E+00 0. -1.
         11    1    3    3    0    0  0.98622867884E+01 -0.30496974323E+02 -0.12834468998E+02  0.34526131238E+02  0.51100000000E-03 0. -1.
        -11    1    3    3    0    0  0.84865873691E+01 -0.34674111325E+01 -0.74878696316E+01  0.11836946271E+02  0.51100000000E-03 0.  1.
        -12    1    3    3    0    0 -0.17999886886E+02  0.34678180856E+02  0.19449633879E+02  0.43644706592E+02  0.00000000000E+00 0.  1.
</event>
<event>
 7    1  0.1999542E-015  0.9000782E+02  0.7816164E-02  0.1186339E+00
        -11   -1    0    0    0    0  0.00000000000E+00  0.00000000000E+00  0.45593999997E+02  0.45594000000E+02  0.51100000000E-03 0. -1.
         11   -1    0    0    0    0 -0.00000000000E+00 -0.00000000000E+00 -0.45593999997E+02  0.45594000000E+02  0.51100000000E-03 0.  1.
    9900012    2    1    2    0    0 -0.46477398664E+00  0.19947290650E+00 -0.10663120090E+01  0.90007819675E+02  0.90000082095E+02 0.  0.
         12    1    1    2    0    0  0.46477398664E+00 -0.19947290650E+00  0.10663120090E+01  0.11801803251E+01  0.00000000000E+00 0. -1.
         11    1    3    3    0    0 -0.14988197554E+00 -0.57302930125E+01 -0.59637996651E+01  0.82719785616E+01  0.51100000000E-03 0. -1.
        -11    1    3    3    0    0 -0.30337363457E+02  0.46569727535E+01 -0.24820845357E+02  0.39472995595E+02  0.51100000000E-03 0.  1.
         12    1    3    3    0    0  0.30022471446E+02  0.12727931656E+01  0.29718333013E+02  0.42262845518E+02  0.00000000000E+00 0. -1.
</event>
<event>
 7    1  0.1999542E-015  0.9000771E+02  0.7816164E-02  0.1186339E+00
        -11   -1    0    0    0    0  0.00000000000E+00  0.00000000000E+00  0.45593999997E+02  0.45594000000E+02  0.51100000000E-03 0. -1.
         11   -1    0    0    0    0 -0.00000000000E+00 -0.00000000000E+00 -0.45593999997E+02  0.45594000000E+02  0.51100000000E-03 0.  1.
    9900012    2    1    2    0    0  0.32899633458E+00 -0.93007029675E-01 -0.11296881068E+01  0.90007710157E+02  0.89999971131E+02 0.  0.
         12    1    1    2    0    0 -0.32899633458E+00  0.93007029675E-01  0.11296881068E+01  0.11802898434E+01  0.00000000000E+00 0. -1.
         11    1    3    3    0    0  0.47982512247E+01 -0.71199129866E+01  0.30900990004E+01  0.91249705668E+01  0.51100000000E-03 0. -1.
        -11    1    3    3    0    0  0.25269911260E+02 -0.24457046918E+02 -0.11429903128E+02  0.36977807464E+02  0.51100000000E-03 0.  1.
         12    1    3    3    0    0 -0.29739166150E+02  0.31483952875E+02  0.72101160206E+01  0.43904932126E+02  0.00000000000E+00 0. -1.
</event>
<event>
 7    1  0.1999542E-015  0.9000778E+02  0.7816164E-02  0.1186339E+00
        -11   -1    0    0    0    0  0.00000000000E+00  0.00000000000E+00  0.45593999997E+02  0.45594000000E+02  0.51100000000E-03 0.  1.
         11   -1    0    0    0    0 -0.00000000000E+00 -0.00000000000E+00 -0.45593999997E+02  0.45594000000E+02  0.51100000000E-03 0. -1.
    9900012    2    1    2    0    0 -0.24672358823E-01 -0.11734261704E+01 -0.12397994969E+00  0.90007784456E+02  0.90000046411E+02 0.  0.
         12    1    1    2    0    0  0.24672358823E-01  0.11734261704E+01  0.12397994969E+00  0.11802155441E+01  0.00000000000E+00 0. -1.
         11    1    3    3    0    0 -0.80745093857E+01 -0.30193557681E+01 -0.79227536483E+01  0.11708297772E+02  0.51100000000E-03 0. -1.
        -11    1    3    3    0    0  0.23455115604E+01 -0.33534134152E+02  0.21532542718E+02  0.39921046755E+02  0.51100000000E-03 0.  1.
         12    1    3    3    0    0  0.57043254665E+01  0.35380063750E+02 -0.13733769019E+02  0.38378439930E+02  0.00000000000E+00 0. -1.
</event>
<event>
 7    1  0.1999542E-015  0.9000764E+02  0.7816164E-02  0.1186339E+00
        -11   -1    0    0    0    0  0.00000000000E+00  0.00000000000E+00  0.45593999997E+02  0.45594000000E+02  0.51100000000E-03 0.  1.
         11   -1    0    0    0    0 -0.00000000000E+00 -0.00000000000E+00 -0.45593999997E+02  0.45594000000E+02  0.51100000000E-03 0. -1.
    9900012    2    1    2    0    0 -0.14012896110E+00 -0.10614193440E+01  0.49698331002E+00  0.90007644308E+02  0.89999904413E+02 0.  0.
         12    1    1    2    0    0  0.14012896110E+00  0.10614193440E+01 -0.49698331002E+00  0.11803556921E+01  0.00000000000E+00 0. -1.
         11    1    3    3    0    0  0.29966125416E+02  0.20580489347E+02  0.13298353947E+02  0.38708803033E+02  0.51100000000E-03 0. -1.
        -11    1    3    3    0    0 -0.15435847166E+01  0.37094675063E+01  0.71569668181E+01  0.82076170265E+01  0.51100000000E-03 0.  1.
        -12    1    3    3    0    0 -0.28562669661E+02 -0.25351376197E+02 -0.19958337456E+02  0.43091224249E+02  0.00000000000E+00 0.  1.
</event>
<event>
 7    1  0.1999542E-015  0.9000779E+02  0.7816164E-02  0.1186339E+00
        -11   -1    0    0    0    0  0.00000000000E+00  0.00000000000E+00  0.45593999997E+02  0.45594000000E+02  0.51100000000E-03 0. -1.
         11   -1    0    0    0    0 -0.00000000000E+00 -0.00000000000E+00 -0.45593999997E+02  0.45594000000E+02  0.51100000000E-03 0.  1.
    9900012    2    1    2    0    0 -0.86935935789E+00 -0.48667001180E+00 -0.63266676045E+00  0.90007787891E+02  0.90000049891E+02 0.  0.
         12    1    1    2    0    0  0.86935935789E+00  0.48667001180E+00  0.63266676045E+00  0.11802121095E+01  0.00000000000E+00 0. -1.
         11    1    3    3    0    0  0.13221009137E+02 -0.28376888052E+02 -0.15148359339E+02  0.34778091509E+02  0.51100000000E-03 0. -1.
        -11    1    3    3    0    0 -0.12927136168E+02 -0.49862938643E+01 -0.73934250972E+01  0.15704671628E+02  0.51100000000E-03 0.  1.
        -12    1    3    3    0    0 -0.11632323264E+01  0.32876511904E+02  0.21909117676E+02  0.39525024753E+02  0.00000000000E+00 0.  1.
</event>
<event>
 7    1  0.1999542E-015  0.9000780E+02  0.7816164E-02  0.1186339E+00
        -11   -1    0    0    0    0  0.00000000000E+00  0.00000000000E+00  0.45593999997E+02  0.45594000000E+02  0.51100000000E-03 0.  1.
         11   -1    0    0    0    0 -0.00000000000E+00 -0.00000000000E+00 -0.45593999997E+02  0.45594000000E+02  0.51100000000E-03 0. -1.
    9900012    2    1    2    0    0  0.54890533720E+00  0.10041361706E+01  0.28858575154E+00  0.90007801604E+02  0.90000063785E+02 0.  0.
         12    1    1    2    0    0 -0.54890533720E+00 -0.10041361706E+01 -0.28858575154E+00  0.11801983961E+01  0.00000000000E+00 0. -1.
         11    1    3    3    0    0  0.28631590893E+02 -0.31526670133E+02 -0.12727598848E+01  0.42606558706E+02  0.51100000000E-03 0. -1.
        -11    1    3    3    0    0 -0.56694413010E+01 -0.21582377941E+01  0.51337903732E+00  0.60880303332E+01  0.51100000000E-03 0.  1.
        -12    1    3    3    0    0 -0.22413244255E+02  0.34689044097E+02  0.10479665991E+01  0.41313212565E+02  0.00000000000E+00 0.  1.
</event>
<event>
 7    1  0.1999542E-015  0.9000776E+02  0.7816164E-02  0.1186339E+00
        -11   -1    0    0    0    0  0.00000000000E+00  0.00000000000E+00  0.45593999997E+02  0.45594000000E+02  0.51100000000E-03 0.  1.
         11   -1    0    0    0    0 -0.00000000000E+00 -0.00000000000E+00 -0.45593999997E+02  0.45594000000E+02  0.51100000000E-03 0. -1.
    9900012    2    1    2    0    0 -0.90817858163E+00  0.58846927410E+00  0.47104603057E+00  0.90007759014E+02  0.90000020633E+02 0.  0.
         12    1    1    2    0    0  0.90817858163E+00 -0.58846927410E+00 -0.47104603057E+00  0.11802409862E+01  0.00000000000E+00 0. -1.
         11    1    3    3    0    0  0.25066999571E+02  0.56870427331E+01 -0.27579579616E+02  0.37700532285E+02  0.51100000000E-03 0. -1.
        -11    1    3    3    0    0 -0.90413557871E+00  0.84788942455E+01 -0.39929458334E+01  0.94155576287E+01  0.51100000000E-03 0.  1.
        -12    1    3    3    0    0 -0.25071042574E+02 -0.13577467704E+02  0.32043571480E+02  0.42891669100E+02  0.00000000000E+00 0.  1.
</event>
<event>
 7    1  0.1999542E-015  0.9000782E+02  0.7816164E-02  0.1186339E+00
        -11   -1    0    0    0    0  0.00000000000E+00  0.00000000000E+00  0.45593999997E+02  0.45594000000E+02  0.51100000000E-03 0.  1.
         11   -1    0    0    0    0 -0.00000000000E+00 -0.00000000000E+00 -0.45593999997E+02  0.45594000000E+02  0.51100000000E-03 0. -1.
    9900012    2    1    2    0    0  0.15020656641E+00 -0.29326718537E+00  0.11332492769E+01  0.90007821379E+02  0.90000083821E+02 0.  0.
         12    1    1    2    0    0 -0.15020656641E+00  0.29326718537E+00 -0.11332492769E+01  0.11801786213E+01  0.00000000000E+00 0. -1.
         11    1    3    3    0    0 -0.10531995204E+02  0.57166332145E+01 -0.46735579706E+01  0.12862541065E+02  0.51100000000E-03 0. -1.
        -11    1    3    3    0    0 -0.25487553052E+02  0.19069935863E+02  0.88101903140E+01  0.33028733976E+02  0.51100000000E-03 0.  1.
         12    1    3    3    0    0  0.36169754823E+02 -0.25079836263E+02 -0.30033830665E+01  0.44116546338E+02  0.00000000000E+00 0. -1.
</event>
<event>
 7    1  0.1999542E-015  0.9000751E+02  0.7816164E-02  0.1186340E+00
        -11   -1    0    0    0    0  0.00000000000E+00  0.00000000000E+00  0.45593999997E+02  0.45594000000E+02  0.51100000000E-03 0.  1.
         11   -1    0    0    0    0 -0.00000000000E+00 -0.00000000000E+00 -0.45593999997E+02  0.45594000000E+02  0.51100000000E-03 0. -1.
    9900012    2    1    2    0    0 -0.91600794020E+00 -0.60239752130E+00 -0.43772496774E+00  0.90007510073E+02  0.89999768406E+02 0.  0.
         12    1    1    2    0    0  0.91600794020E+00  0.60239752130E+00  0.43772496774E+00  0.11804899269E+01  0.00000000000E+00 0. -1.
         11    1    3    3    0    0  0.16576393541E+02 -0.60914421426E+01 -0.34124842094E+02  0.38423786102E+02  0.51100000000E-03 0. -1.
        -11    1    3    3    0    0 -0.13062153067E+01  0.83127203585E+01 -0.48343103586E+01  0.97045388912E+01  0.51100000000E-03 0.  1.
        -12    1    3    3    0    0 -0.16186186174E+02 -0.28236757373E+01  0.38521427485E+02  0.41879185080E+02  0.00000000000E+00 0.  1.
</event>
<event>
 7    1  0.1999542E-015  0.9000770E+02  0.7816164E-02  0.1186339E+00
        -11   -1    0    0    0    0  0.00000000000E+00  0.00000000000E+00  0.45593999997E+02  0.45594000000E+02  0.51100000000E-03 0. -1.
         11   -1    0    0    0    0 -0.00000000000E+00 -0.00000000000E+00 -0.45593999997E+02  0.45594000000E+02  0.51100000000E-03 0.  1.
    9900012    2    1    2    0    0  0.94477085485E+00  0.67401984931E+00 -0.21495772526E+00  0.90007702771E+02  0.89999963647E+02 0.  0.
         12    1    1    2    0    0 -0.94477085485E+00 -0.67401984931E+00  0.21495772526E+00  0.11802972291E+01  0.00000000000E+00 0. -1.
         11    1    3    3    0    0  0.19517309507E+01 -0.20956198342E+02  0.28745157653E+02  0.35626613527E+02  0.51100000000E-03 0. -1.
        -11    1    3    3    0    0 -0.12027036281E+01 -0.88680860071E+00  0.96064600694E+01  0.97219854370E+01  0.51100000000E-03 0.  1.
        -12    1    3    3    0    0  0.19574353223E+00  0.22517026792E+02 -0.38566575447E+02  0.44659103807E+02  0.00000000000E+00 0.  1.
</event>
<event>
 7    1  0.1999542E-015  0.9000768E+02  0.7816164E-02  0.1186339E+00
        -11   -1    0    0    0    0  0.00000000000E+00  0.00000000000E+00  0.45593999997E+02  0.45594000000E+02  0.51100000000E-03 0.  1.
         11   -1    0    0    0    0 -0.00000000000E+00 -0.00000000000E+00 -0.45593999997E+02  0.45594000000E+02  0.51100000000E-03 0. -1.
    9900012    2    1    2    0    0 -0.91421308664E+00 -0.14396066348E+00  0.73256358828E+00  0.90007678158E+02  0.89999938709E+02 0.  0.
         12    1    1    2    0    0  0.91421308664E+00  0.14396066348E+00 -0.73256358828E+00  0.11803218422E+01  0.00000000000E+00 0. -1.
         11    1    3    3    0    0 -0.36188759043E+01 -0.13646723512E+01  0.14832531421E+02  0.15328489229E+02  0.51100000000E-03 0. -1.
        -11    1    3    3    0    0 -0.93798702488E+01 -0.32383591311E+02  0.51570602066E+01  0.34106806100E+02  0.51100000000E-03 0.  1.
         12    1    3    3    0    0  0.12084533066E+02  0.33604302999E+02 -0.19257028039E+02  0.40572382829E+02  0.00000000000E+00 0. -1.
</event>
<event>
 7    1  0.1999542E-015  0.9000777E+02  0.7816164E-02  0.1186339E+00
        -11   -1    0    0    0    0  0.00000000000E+00  0.00000000000E+00  0.45593999997E+02  0.45594000000E+02  0.51100000000E-03 0. -1.
         11   -1    0    0    0    0 -0.00000000000E+00 -0.00000000000E+00 -0.45593999997E+02  0.45594000000E+02  0.51100000000E-03 0.  1.
    9900012    2    1    2    0    0 -0.19241350195E-02 -0.10079447538E+01 -0.61398594908E+00  0.90007773295E+02  0.90000035103E+02 0.  0.
         12    1    1    2    0    0  0.19241350195E-02  0.10079447538E+01  0.61398594908E+00  0.11802267048E+01  0.00000000000E+00 0. -1.
         11    1    3    3    0    0  0.38954421696E+02  0.12130079305E+01  0.17533778653E+02  0.42735836859E+02  0.51100000000E-03 0. -1.
        -11    1    3    3    0    0 -0.99017316081E+01 -0.68672720946E+01  0.11182153873E+01  0.12101823035E+02  0.51100000000E-03 0.  1.
        -12    1    3    3    0    0 -0.29054614223E+02  0.46463194103E+01 -0.19265979989E+02  0.35170113401E+02  0.00000000000E+00 0.  1.
</event>
<event>
 7    1  0.1999542E-015  0.9000772E+02  0.7816164E-02  0.1186339E+00
        -11   -1    0    0    0    0  0.00000000000E+00  0.00000000000E+00  0.45593999997E+02  0.45594000000E+02  0.51100000000E-03 0. -1.
         11   -1    0    0    0    0 -0.00000000000E+00 -0.00000000000E+00 -0.45593999997E+02  0.45594000000E+02  0.51100000000E-03 0.  1.
    9900012    2    1    2    0    0 -0.75928682654E+00  0.37722679831E-01 -0.90283752897E+00  0.90007722452E+02  0.89999983589E+02 0.  0.
         12    1    1    2    0    0  0.75928682654E+00 -0.37722679831E-01  0.90283752897E+00  0.11802775475E+01  0.00000000000E+00 0. -1.
         11    1    3    3    0    0  0.41682378685E+01 -0.34697221349E+02  0.22613995357E+02  0.41625282732E+02  0.51100000000E-03 0. -1.
        -11    1    3    3    0    0  0.30582157547E+01 -0.90827949129E+00 -0.81548461651E+01  0.87566644035E+01  0.51100000000E-03 0.  1.
        -12    1    3    3    0    0 -0.79857404498E+01  0.35643223520E+02 -0.15361986721E+02  0.39625775317E+02  0.00000000000E+00 0.  1.
</event>
<event>
 7    1  0.1999542E-015  0.9000767E+02  0.7816164E-02  0.1186339E+00
        -11   -1    0    0    0    0  0.00000000000E+00  0.00000000000E+00  0.45593999997E+02  0.45594000000E+02  0.51100000000E-03 0.  1.
         11   -1    0    0    0    0 -0.00000000000E+00 -0.00000000000E+00 -0.45593999997E+02  0.45594000000E+02  0.51100000000E-03 0. -1.
    9900012    2    1    2    0    0  0.23579396632E+00  0.66468753354E+00  0.94645365589E+00  0.90007668337E+02  0.89999928759E+02 0.  0.
         12    1    1    2    0    0 -0.23579396632E+00 -0.66468753354E+00 -0.94645365589E+00  0.11803316629E+01  0.00000000000E+00 0. -1.
         11    1    3    3    0    0 -0.27146605382E+02  0.10842999368E+02 -0.28198451315E+02  0.40616024865E+02  0.51100000000E-03 0. -1.
        -11    1    3    3    0    0 -0.42045856383E+01 -0.63541419756E+01  0.87321534469E+01  0.11588967371E+02  0.51100000000E-03 0.  1.
        -12    1    3    3    0    0  0.31586984986E+02 -0.38241698586E+01  0.20412751524E+02  0.37802676101E+02  0.00000000000E+00 0.  1.
</event>
<event>
 7    1  0.1999542E-015  0.9000772E+02  0.7816164E-02  0.1186339E+00
        -11   -1    0    0    0    0  0.00000000000E+00  0.00000000000E+00  0.45593999997E+02  0.45594000000E+02  0.51100000000E-03 0. -1.
         11   -1    0    0    0    0 -0.00000000000E+00 -0.00000000000E+00 -0.45593999997E+02  0.45594000000E+02  0.51100000000E-03 0.  1.
    9900012    2    1    2    0    0  0.22590893218E+00  0.59861997609E+00 -0.99180454762E+00  0.90007721651E+02  0.89999982776E+02 0.  0.
         12    1    1    2    0    0 -0.22590893218E+00 -0.59861997609E+00  0.99180454762E+00  0.11802783494E+01  0.00000000000E+00 0. -1.
         11    1    3    3    0    0 -0.42331628125E+01 -0.97974528354E+01 -0.12652797976E+01  0.10747589622E+02  0.51100000000E-03 0. -1.
        -11    1    3    3    0    0  0.24767469120E+02 -0.54210066291E+01 -0.30159518627E+02  0.39400652324E+02  0.51100000000E-03 0.  1.
         12    1    3    3    0    0 -0.20308397376E+02  0.15817079441E+02  0.30432993877E+02  0.39859479704E+02  0.00000000000E+00 0. -1.
</event>
<event>
 7    1  0.1999542E-015  0.9000779E+02  0.7816164E-02  0.1186339E+00
        -11   -1    0    0    0    0  0.00000000000E+00  0.00000000000E+00  0.45593999997E+02  0.45594000000E+02  0.51100000000E-03 0.  1.
         11   -1    0    0    0    0 -0.00000000000E+00 -0.00000000000E+00 -0.45593999997E+02  0.45594000000E+02  0.51100000000E-03 0. -1.
    9900012    2    1    2    0    0 -0.36027420281E+00  0.97231595937E+00 -0.56364241512E+00  0.90007792985E+02  0.90000055052E+02 0.  0.
         12    1    1    2    0    0  0.36027420281E+00 -0.97231595937E+00  0.56364241512E+00  0.11802070150E+01  0.00000000000E+00 0. -1.
         11    1    3    3    0    0  0.34921346069E+02 -0.36584265410E+01  0.13344741683E+01  0.35137804678E+02  0.51100000000E-03 0. -1.
        -11    1    3    3    0    0  0.86019377622E+01 -0.23411123258E+01 -0.51878501873E+01  0.10314452482E+02  0.51100000000E-03 0.  1.
        -12    1    3    3    0    0 -0.43883558034E+02  0.69718548262E+01  0.32897336038E+01  0.44555535825E+02  0.00000000000E+00 0.  1.
</event>
<event>
 7    1  0.1999542E-015  0.9000773E+02  0.7816164E-02  0.1186339E+00
        -11   -1    0    0    0    0  0.00000000000E+00  0.00000000000E+00  0.45593999997E+02  0.45594000000E+02  0.51100000000E-03 0.  1.
         11   -1    0    0    0    0 -0.00000000000E+00 -0.00000000000E+00 -0.45593999997E+02  0.45594000000E+02  0.51100000000E-03 0. -1.
    9900012    2    1    2    0    0  0.37367301798E+00  0.44687869859E+00  0.10264992075E+01  0.90007731929E+02  0.89999993191E+02 0.  0.
         12    1    1    2    0    0 -0.37367301798E+00 -0.44687869859E+00 -0.10264992075E+01  0.11802680707E+01  0.00000000000E+00 0. -1.
         11    1    3    3    0    0  0.32794004468E+02 -0.15549732800E+02 -0.35840217076E+01  0.36470345914E+02  0.51100000000E-03 0. -1.
        -11    1    3    3    0    0  0.39307606371E+01 -0.79694490859E+01  0.45798239494E+01  0.99968887954E+01  0.51100000000E-03 0.  1.
        -12    1    3    3    0    0 -0.36351092087E+02  0.23966060585E+02  0.30696965684E-01  0.43540497220E+02  0.00000000000E+00 0.  1.
</event>
<event>
 7    1  0.1999542E-015  0.9000768E+02  0.7816164E-02  0.1186339E+00
        -11   -1    0    0    0    0  0.00000000000E+00  0.00000000000E+00  0.45593999997E+02  0.45594000000E+02  0.51100000000E-03 0.  1.
         11   -1    0    0    0    0 -0.00000000000E+00 -0.00000000000E+00 -0.45593999997E+02  0.45594000000E+02  0.51100000000E-03 0. -1.
    9900012    2    1    2    0    0  0.74742146382E+00 -0.71211772746E+00 -0.57218688876E+00  0.90007682950E+02  0.89999943565E+02 0.  0.
         12    1    1    2    0    0 -0.74742146382E+00  0.71211772746E+00  0.57218688876E+00  0.11803170498E+01  0.00000000000E+00 0. -1.
         11    1    3    3    0    0  0.16569899018E+02  0.32252655680E+02  0.73985506326E+01  0.37007214210E+02  0.51100000000E-03 0. -1.
        -11    1    3    3    0    0 -0.14895376005E+02 -0.42658834856E+01  0.10628390873E+02  0.18789163926E+02  0.51100000000E-03 0.  1.
        -12    1    3    3    0    0 -0.92710154946E+00 -0.28698889922E+02 -0.18599128394E+02  0.34211304814E+02  0.00000000000E+00 0.  1.
</event>
<event>
 7    1  0.1999542E-015  0.9000781E+02  0.7816164E-02  0.1186339E+00
        -11   -1    0    0    0    0  0.00000000000E+00  0.00000000000E+00  0.45593999997E+02  0.45594000000E+02  0.51100000000E-03 0.  1.
         11   -1    0    0    0    0 -0.00000000000E+00 -0.00000000000E+00 -0.45593999997E+02  0.45594000000E+02  0.51100000000E-03 0. -1.
    9900012    2    1    2    0    0  0.22393116578E+00 -0.98064234920E+00 -0.61729305113E+00  0.90007807094E+02  0.90000069348E+02 0.  0.
         12    1    1    2    0    0 -0.22393116578E+00  0.98064234920E+00  0.61729305113E+00  0.11801929058E+01  0.00000000000E+00 0. -1.
         11    1    3    3    0    0 -0.59612202005E+01  0.48782706929E+01 -0.43553349657E+01  0.88488764347E+01  0.51100000000E-03 0. -1.
        -11    1    3    3    0    0 -0.31715705007E+02 -0.13550402412E+01 -0.18740806525E+02  0.36863802132E+02  0.51100000000E-03 0.  1.
         12    1    3    3    0    0  0.37900856374E+02 -0.45038728010E+01  0.22478848440E+02  0.44295128527E+02  0.00000000000E+00 0. -1.
</event>
<event>
 7    1  0.1999542E-015  0.9000792E+02  0.7816164E-02  0.1186339E+00
        -11   -1    0    0    0    0  0.00000000000E+00  0.00000000000E+00  0.45593999997E+02  0.45594000000E+02  0.51100000000E-03 0.  1.
         11   -1    0    0    0    0 -0.00000000000E+00 -0.00000000000E+00 -0.45593999997E+02  0.45594000000E+02  0.51100000000E-03 0. -1.
    9900012    2    1    2    0    0 -0.35586038449E+00 -0.11237371530E+01 -0.56227101579E-01  0.90007922338E+02  0.90000186112E+02 0.  0.
         12    1    1    2    0    0  0.35586038449E+00  0.11237371530E+01  0.56227101579E-01  0.11800776624E+01  0.00000000000E+00 0. -1.
         11    1    3    3    0    0  0.35173911967E+02 -0.45693623245E+01 -0.17466884432E+02  0.39537010600E+02  0.51100000000E-03 0. -1.
        -11    1    3    3    0    0 -0.18175232424E+01  0.91870863098E+01 -0.39349051213E+01  0.10158219538E+02  0.51100000000E-03 0.  1.
        -12    1    3    3    0    0 -0.33712249109E+02 -0.57414611383E+01  0.21345562452E+02  0.40312692200E+02  0.00000000000E+00 0.  1.
</event>
<event>
 7    1  0.1999542E-015  0.9000729E+02  0.7816164E-02  0.1186340E+00
        -11   -1    0    0    0    0  0.00000000000E+00  0.00000000000E+00  0.45593999997E+02  0.45594000000E+02  0.51100000000E-03 0. -1.
         11   -1    0    0    0    0 -0.00000000000E+00 -0.00000000000E+00 -0.45593999997E+02  0.45594000000E+02  0.51100000000E-03 0.  1.
    9900012    2    1    2    0    0 -0.86729170066E+00 -0.91734655908E-01 -0.79590655198E+00  0.90007289459E+02  0.89999544879E+02 0.  0.
         12    1    1    2    0    0  0.86729170066E+00  0.91734655908E-01  0.79590655198E+00  0.11807105406E+01  0.00000000000E+00 0. -1.
         11    1    3    3    0    0  0.63863089679E-01 -0.87284406437E+01 -0.77663124747E+01  0.11683551013E+02  0.51100000000E-03 0. -1.
        -11    1    3    3    0    0 -0.54672222784E+01  0.31006485463E+01 -0.35095221260E+02  0.35653598646E+02  0.51100000000E-03 0.  1.
         12    1    3    3    0    0  0.45360674880E+01  0.55360574415E+01  0.42065627183E+02  0.42670139800E+02  0.00000000000E+00 0. -1.
</event>
<event>
 7    1  0.1999542E-015  0.9000799E+02  0.7816164E-02  0.1186339E+00
        -11   -1    0    0    0    0  0.00000000000E+00  0.00000000000E+00  0.45593999997E+02  0.45594000000E+02  0.51100000000E-03 0. -1.
         11   -1    0    0    0    0 -0.00000000000E+00 -0.00000000000E+00 -0.45593999997E+02  0.45594000000E+02  0.51100000000E-03 0.  1.
    9900012    2    1    2    0    0  0.58767760376E+00 -0.71795504657E+00  0.72910115651E+00  0.90007994529E+02  0.90000259257E+02 0.  0.
         12    1    1    2    0    0 -0.58767760376E+00  0.71795504657E+00 -0.72910115651E+00  0.11800054709E+01  0.00000000000E+00 0. -1.
         11    1    3    3    0    0  0.20853270693E+02 -0.33494175394E+02 -0.74445387197E+00  0.39462297143E+02  0.51100000000E-03 0. -1.
        -11    1    3    3    0    0  0.84586445119E+01  0.25710562471E+01  0.14194369448E+00  0.88418971651E+01  0.51100000000E-03 0.  1.
        -12    1    3    3    0    0 -0.28724237602E+02  0.30205164101E+02  0.13316113340E+01  0.41703800221E+02  0.00000000000E+00 0.  1.
</event>
<event>
 7    1  0.1999542E-015  0.9000769E+02  0.7816164E-02  0.1186339E+00
        -11   -1    0    0    0    0  0.00000000000E+00  0.00000000000E+00  0.45593999997E+02  0.45594000000E+02  0.51100000000E-03 0.  1.
         11   -1    0    0    0    0 -0.00000000000E+00 -0.00000000000E+00 -0.45593999997E+02  0.45594000000E+02  0.51100000000E-03 0. -1.
    9900012    2    1    2    0    0 -0.66983415861E+00  0.45655341914E+00  0.85791621367E+00  0.90007686883E+02  0.89999947550E+02 0.  0.
         12    1    1    2    0    0  0.66983415861E+00 -0.45655341914E+00 -0.85791621367E+00  0.11803131170E+01  0.00000000000E+00 0. -1.
         11    1    3    3    0    0 -0.51244285836E+01  0.42630598541E+01  0.55227060200E+01  0.86564270732E+01  0.51100000000E-03 0. -1.
        -11    1    3    3    0    0  0.40632434746E+02  0.18348010298E+01 -0.14925220145E+02  0.43325782680E+02  0.51100000000E-03 0.  1.
         12    1    3    3    0    0 -0.36177840321E+02 -0.56413074647E+01  0.10260430338E+02  0.38025477130E+02  0.00000000000E+00 0. -1.
</event>
<event>
 7    1  0.1999542E-015  0.9000769E+02  0.7816164E-02  0.1186339E+00
        -11   -1    0    0    0    0  0.00000000000E+00  0.00000000000E+00  0.45593999997E+02  0.45594000000E+02  0.51100000000E-03 0.  1.
         11   -1    0    0    0    0 -0.00000000000E+00 -0.00000000000E+00 -0.45593999997E+02  0.45594000000E+02  0.51100000000E-03 0. -1.
    9900012    2    1    2    0    0 -0.10063756581E+00  0.11614890224E+01 -0.18427092474E+00  0.90007686295E+02  0.89999946954E+02 0.  0.
         12    1    1    2    0    0  0.10063756581E+00 -0.11614890224E+01  0.18427092474E+00  0.11803137051E+01  0.00000000000E+00 0. -1.
         11    1    3    3    0    0 -0.28635663356E+02 -0.18443792836E+02 -0.98183791677E+01  0.35448205593E+02  0.51100000000E-03 0. -1.
        -11    1    3    3    0    0 -0.97485406678E+01  0.47653785045E+01 -0.35801572687E+01  0.11426303154E+02  0.51100000000E-03 0.  1.
        -12    1    3    3    0    0  0.38283566458E+02  0.14839903354E+02  0.13214265512E+02  0.43133177547E+02  0.00000000000E+00 0.  1.
</event>
<event>
 7    1  0.1999542E-015  0.9000802E+02  0.7816164E-02  0.1186338E+00
        -11   -1    0    0    0    0  0.00000000000E+00  0.00000000000E+00  0.45593999997E+02  0.45594000000E+02  0.51100000000E-03 0.  1.
         11   -1    0    0    0    0 -0.00000000000E+00 -0.00000000000E+00 -0.45593999997E+02  0.45594000000E+02  0.51100000000E-03 0. -1.
    9900012    2    1    2    0    0  0.59089847824E+00 -0.10155984770E+01  0.10843277699E+00  0.90008017396E+02  0.90000282425E+02 0.  0.
         12    1    1    2    0    0 -0.59089847824E+00  0.10155984770E+01 -0.10843277699E+00  0.11799826038E+01  0.00000000000E+00 0. -1.
         11    1    3    3    0    0  0.42490227937E+00  0.37508510197E+01 -0.76857225595E+01  0.85626956528E+01  0.51100000000E-03 0. -1.
        -11    1    3    3    0    0  0.19119469654E+02  0.35880768047E+01  0.39236148531E+02  0.43793878189E+02  0.51100000000E-03 0.  1.
         12    1    3    3    0    0 -0.18953473455E+02 -0.83545263014E+01 -0.31441993194E+02  0.37651443555E+02  0.00000000000E+00 0. -1.
</event>
<event>
 7    1  0.1999542E-015  0.9000762E+02  0.7816164E-02  0.1186339E+00
        -11   -1    0    0    0    0  0.00000000000E+00  0.00000000000E+00  0.45593999997E+02  0.45594000000E+02  0.51100000000E-03 0.  1.
         11   -1    0    0    0    0 -0.00000000000E+00 -0.00000000000E+00 -0.45593999997E+02  0.45594000000E+02  0.51100000000E-03 0. -1.
    9900012    2    1    2    0    0  0.18847043010E+00 -0.51294001635E+00  0.10462588956E+01  0.90007624534E+02  0.89999884378E+02 0.  0.
         12    1    1    2    0    0 -0.18847043010E+00  0.51294001635E+00 -0.10462588956E+01  0.11803754657E+01  0.00000000000E+00 0. -1.
         11    1    3    3    0    0  0.56441365187E+01  0.28598180951E+01  0.61577532247E+01  0.88290861145E+01  0.51100000000E-03 0. -1.
        -11    1    3    3    0    0 -0.10662331470E+02 -0.41007677725E+02 -0.78279137226E+01  0.43088179101E+02  0.51100000000E-03 0.  1.
         12    1    3    3    0    0  0.52066653813E+01  0.37634919613E+02  0.27164193935E+01  0.38090359319E+02  0.00000000000E+00 0. -1.
</event>
<event>
 7    1  0.1999542E-015  0.9000772E+02  0.7816164E-02  0.1186339E+00
        -11   -1    0    0    0    0  0.00000000000E+00  0.00000000000E+00  0.45593999997E+02  0.45594000000E+02  0.51100000000E-03 0.  1.
         11   -1    0    0    0    0 -0.00000000000E+00 -0.00000000000E+00 -0.45593999997E+02  0.45594000000E+02  0.51100000000E-03 0. -1.
    9900012    2    1    2    0    0  0.46084903936E+00 -0.32783848361E+00  0.10359590330E+01  0.90007715701E+02  0.89999976748E+02 0.  0.
         12    1    1    2    0    0 -0.46084903936E+00  0.32783848361E+00 -0.10359590330E+01  0.11802842990E+01  0.00000000000E+00 0. -1.
         11    1    3    3    0    0 -0.17746179229E+01 -0.32116794735E+01 -0.82423291586E+01  0.90222028371E+01  0.51100000000E-03 0. -1.
        -11    1    3    3    0    0  0.22524316096E+02 -0.32485712340E+01  0.38597719223E+02  0.44807164161E+02  0.51100000000E-03 0.  1.
         12    1    3    3    0    0 -0.20288849133E+02  0.61324122239E+01 -0.29319431032E+02  0.36178348703E+02  0.00000000000E+00 0. -1.
</event>
<event>
 7    1  0.1999542E-015  0.9000778E+02  0.7816164E-02  0.1186339E+00
        -11   -1    0    0    0    0  0.00000000000E+00  0.00000000000E+00  0.45593999997E+02  0.45594000000E+02  0.51100000000E-03 0. -1.
         11   -1    0    0    0    0 -0.00000000000E+00 -0.00000000000E+00 -0.45593999997E+02  0.45594000000E+02  0.51100000000E-03 0.  1.
    9900012    2    1    2    0    0  0.30854896543E+00 -0.10394423138E+01  0.46612419377E+00  0.90007781990E+02  0.90000043912E+02 0.  0.
         12    1    1    2    0    0 -0.30854896543E+00  0.10394423138E+01 -0.46612419377E+00  0.11802180103E+01  0.00000000000E+00 0. -1.
         11    1    3    3    0    0  0.45027380208E+01 -0.81484826388E+01  0.24749609412E+01  0.96331641177E+01  0.51100000000E-03 0. -1.
        -11    1    3    3    0    0 -0.22746283746E+02  0.25368774288E+02 -0.27616675720E+02  0.43859422149E+02  0.51100000000E-03 0.  1.
         12    1    3    3    0    0  0.18552094691E+02 -0.18259733963E+02  0.25607838973E+02  0.36515195723E+02  0.00000000000E+00 0. -1.
</event>
<event>
 7    1  0.1999542E-015  0.9000774E+02  0.7816164E-02  0.1186339E+00
        -11   -1    0    0    0    0  0.00000000000E+00  0.00000000000E+00  0.45593999997E+02  0.45594000000E+02  0.51100000000E-03 0.  1.
         11   -1    0    0    0    0 -0.00000000000E+00 -0.00000000000E+00 -0.45593999997E+02  0.45594000000E+02  0.51100000000E-03 0. -1.
    9900012    2    1    2    0    0 -0.15824580144E+00 -0.11059314906E+01  0.38064899769E+00  0.90007737379E+02  0.89999998712E+02 0.  0.
         12    1    1    2    0    0  0.15824580144E+00  0.11059314906E+01 -0.38064899769E+00  0.11802626212E+01  0.00000000000E+00 0. -1.
         11    1    3    3    0    0  0.67660900011E+01 -0.31717266074E+00  0.63219471719E+01  0.92653973852E+01  0.51100000000E-03 0. -1.
        -11    1    3    3    0    0 -0.39132611646E+02  0.18060393309E+02 -0.52477816462E+01  0.43417488563E+02  0.51100000000E-03 0.  1.
         12    1    3    3    0    0  0.32208275843E+02 -0.18849152138E+02 -0.69351652795E+00  0.37324851430E+02  0.00000000000E+00 0. -1.
</event>
<event>
 7    1  0.1999542E-015  0.9000773E+02  0.7816164E-02  0.1186339E+00
        -11   -1    0    0    0    0  0.00000000000E+00  0.00000000000E+00  0.45593999997E+02  0.45594000000E+02  0.51100000000E-03 0.  1.
         11   -1    0    0    0    0 -0.00000000000E+00 -0.00000000000E+00 -0.45593999997E+02  0.45594000000E+02  0.51100000000E-03 0. -1.
    9900012    2    1    2    0    0 -0.79831051221E+00 -0.58864117000E+00  0.63972212227E+00  0.90007727788E+02  0.89999988995E+02 0.  0.
         12    1    1    2    0    0  0.79831051221E+00  0.58864117000E+00 -0.63972212227E+00  0.11802722121E+01  0.00000000000E+00 0. -1.
         11    1    3    3    0    0  0.12908871709E+02 -0.58412057850E+01  0.30325804306E+01  0.14489830853E+02  0.51100000000E-03 0. -1.
        -11    1    3    3    0    0  0.75690030558E+01 -0.24037108340E+02  0.20670667349E+02  0.32593693769E+02  0.51100000000E-03 0.  1.
         12    1    3    3    0    0 -0.21276185277E+02  0.29289672955E+02 -0.23063525657E+02  0.42924203166E+02  0.00000000000E+00 0. -1.
</event>
<event>
 7    1  0.1999542E-015  0.9000774E+02  0.7816164E-02  0.1186339E+00
        -11   -1    0    0    0    0  0.00000000000E+00  0.00000000000E+00  0.45593999997E+02  0.45594000000E+02  0.51100000000E-03 0.  1.
         11   -1    0    0    0    0 -0.00000000000E+00 -0.00000000000E+00 -0.45593999997E+02  0.45594000000E+02  0.51100000000E-03 0. -1.
    9900012    2    1    2    0    0  0.76241599319E+00  0.12983750208E+00  0.89155885560E+00  0.90007740233E+02  0.90000001604E+02 0.  0.
         12    1    1    2    0    0 -0.76241599319E+00 -0.12983750208E+00 -0.89155885560E+00  0.11802597666E+01  0.00000000000E+00 0. -1.
         11    1    3    3    0    0  0.42318200540E+00 -0.17208976609E+02 -0.32741463026E+02  0.36990963225E+02  0.51100000000E-03 0. -1.
        -11    1    3    3    0    0 -0.85493046484E+01 -0.15595681809E+01 -0.43141545494E+01  0.97023086232E+01  0.51100000000E-03 0.  1.
        -12    1    3    3    0    0  0.88885386362E+01  0.18898382292E+02  0.37947176431E+02  0.43314468385E+02  0.00000000000E+00 0.  1.
</event>
<event>
 7    1  0.1999542E-015  0.9000796E+02  0.7816164E-02  0.1186339E+00
        -11   -1    0    0    0    0  0.00000000000E+00  0.00000000000E+00  0.45593999997E+02  0.45594000000E+02  0.51100000000E-03 0. -1.
         11   -1    0    0    0    0 -0.00000000000E+00 -0.00000000000E+00 -0.45593999997E+02  0.45594000000E+02  0.51100000000E-03 0.  1.
    9900012    2    1    2    0    0  0.65196160575E+00 -0.97546589036E+00  0.12610053748E+00  0.90007962295E+02  0.90000226597E+02 0.  0.
         12    1    1    2    0    0 -0.65196160575E+00  0.97546589036E+00 -0.12610053748E+00  0.11800377046E+01  0.00000000000E+00 0. -1.
         11    1    3    3    0    0 -0.88130743537E+01  0.39446513977E+02  0.25016312285E+01  0.40496369017E+02  0.51100000000E-03 0. -1.
        -11    1    3    3    0    0  0.10222168962E+02 -0.12784514641E+01 -0.31784600941E+00  0.10306706689E+02  0.51100000000E-03 0.  1.
        -12    1    3    3    0    0 -0.75713300238E+00 -0.39143528403E+02 -0.20576846816E+01  0.39204886589E+02  0.00000000000E+00 0.  1.
</event>
<event>
 7    1  0.1999542E-015  0.9000765E+02  0.7816164E-02  0.1186339E+00
        -11   -1    0    0    0    0  0.00000000000E+00  0.00000000000E+00  0.45593999997E+02  0.45594000000E+02  0.51100000000E-03 0.  1.
         11   -1    0    0    0    0 -0.00000000000E+00 -0.00000000000E+00 -0.45593999997E+02  0.45594000000E+02  0.51100000000E-03 0. -1.
    9900012    2    1    2    0    0  0.31081123971E+00  0.72133847133E+00  0.88107278122E+00  0.90007651720E+02  0.89999911922E+02 0.  0.
         12    1    1    2    0    0 -0.31081123971E+00 -0.72133847133E+00 -0.88107278122E+00  0.11803482803E+01  0.00000000000E+00 0. -1.
         11    1    3    3    0    0 -0.17683121935E+02 -0.36472645544E+02 -0.39514589781E+01  0.40725430663E+02  0.51100000000E-03 0. -1.
        -11    1    3    3    0    0 -0.21792301864E+01  0.53657593303E+01 -0.76417729524E+01  0.95883841972E+01  0.51100000000E-03 0.  1.
        -12    1    3    3    0    0  0.20173163361E+02  0.31828224685E+02  0.12474304712E+02  0.39693836860E+02  0.00000000000E+00 0.  1.
</event>
<event>
 7    1  0.2207723E-015  0.9000784E+02  0.7816164E-02  0.1186339E+00
        -11   -1    0    0    0    0  0.00000000000E+00  0.00000000000E+00  0.45593999997E+02  0.45594000000E+02  0.51100000000E-03 0. -1.
         11   -1    0    0    0    0 -0.00000000000E+00 -0.00000000000E+00 -0.45593999997E+02  0.45594000000E+02  0.51100000000E-03 0.  1.
    9900012    2    1    2    0    0  0.89812458539E+00 -0.34565406579E+00 -0.68313679242E+00  0.90007838833E+02  0.90000101505E+02 0.  0.
         12    1    1    2    0    0 -0.89812458539E+00  0.34565406579E+00  0.68313679242E+00  0.11801611675E+01  0.00000000000E+00 0. -1.
         11    1    3    3    0    0  0.26979051248E+02  0.24143639521E+02 -0.10354056574E+02  0.37656221576E+02  0.51100000000E-03 0. -1.
        -11    1    3    3    0    0 -0.21591634533E+01  0.88778582794E+01 -0.26025114699E+01  0.95000747713E+01  0.51100000000E-03 0.  1.
        -12    1    3    3    0    0 -0.23921763210E+02 -0.33367151866E+02  0.12273431251E+02  0.42851542485E+02  0.00000000000E+00 0.  1.
</event>
<event>
 7    1  0.1999542E-015  0.9000778E+02  0.7816164E-02  0.1186339E+00
        -11   -1    0    0    0    0  0.00000000000E+00  0.00000000000E+00  0.45593999997E+02  0.45594000000E+02  0.51100000000E-03 0.  1.
         11   -1    0    0    0    0 -0.00000000000E+00 -0.00000000000E+00 -0.45593999997E+02  0.45594000000E+02  0.51100000000E-03 0. -1.
    9900012    2    1    2    0    0 -0.57822979326E+00  0.99237711960E+00 -0.27158578508E+00  0.90007779309E+02  0.90000041196E+02 0.  0.
         12    1    1    2    0    0  0.57822979326E+00 -0.99237711960E+00  0.27158578508E+00  0.11802206912E+01  0.00000000000E+00 0. -1.
         11    1    3    3    0    0  0.72973397630E+00 -0.33639415113E+02 -0.16906032028E+02  0.37655765561E+02  0.51100000000E-03 0. -1.
        -11    1    3    3    0    0  0.81376493037E+01 -0.43308832616E+01  0.82132324740E+00  0.92548613254E+01  0.51100000000E-03 0.  1.
        -12    1    3    3    0    0 -0.94456130732E+01  0.38962675494E+02  0.15813122995E+02  0.43097152422E+02  0.00000000000E+00 0.  1.
</event>
<event>
 7    1  0.1999542E-015  0.9000774E+02  0.7816164E-02  0.1186339E+00
        -11   -1    0    0    0    0  0.00000000000E+00  0.00000000000E+00  0.45593999997E+02  0.45594000000E+02  0.51100000000E-03 0. -1.
         11   -1    0    0    0    0 -0.00000000000E+00 -0.00000000000E+00 -0.45593999997E+02  0.45594000000E+02  0.51100000000E-03 0.  1.
    9900012    2    1    2    0    0 -0.26310549698E-01 -0.11797272735E+01 -0.23791283339E-01  0.90007739558E+02  0.90000000921E+02 0.  0.
         12    1    1    2    0    0  0.26310549698E-01  0.11797272735E+01  0.23791283339E-01  0.11802604416E+01  0.00000000000E+00 0. -1.
         11    1    3    3    0    0  0.49696390965E+01  0.98825711494E+01 -0.46654054389E+00  0.11071593635E+02  0.51100000000E-03 0. -1.
        -11    1    3    3    0    0 -0.14294266091E+02 -0.38236182439E+02 -0.18201226913E+02  0.44694701609E+02  0.51100000000E-03 0.  1.
         12    1    3    3    0    0  0.92983164443E+01  0.27173884016E+02  0.18643976173E+02  0.34241444315E+02  0.00000000000E+00 0. -1.
</event>
<event>
 7    1  0.1999542E-015  0.9000770E+02  0.7816164E-02  0.1186339E+00
        -11   -1    0    0    0    0  0.00000000000E+00  0.00000000000E+00  0.45593999997E+02  0.45594000000E+02  0.51100000000E-03 0. -1.
         11   -1    0    0    0    0 -0.00000000000E+00 -0.00000000000E+00 -0.45593999997E+02  0.45594000000E+02  0.51100000000E-03 0.  1.
    9900012    2    1    2    0    0  0.11535783411E+01 -0.23719833663E+00  0.78051206203E-01  0.90007704261E+02  0.89999965158E+02 0.  0.
         12    1    1    2    0    0 -0.11535783411E+01  0.23719833663E+00 -0.78051206203E-01  0.11802957387E+01  0.00000000000E+00 0. -1.
         11    1    3    3    0    0  0.25818580554E+02 -0.12392305989E+02  0.32703726928E+02  0.43470703983E+02  0.51100000000E-03 0. -1.
        -11    1    3    3    0    0 -0.12664627436E+02 -0.70686388845E+00 -0.46887448939E+01  0.13523193912E+02  0.51100000000E-03 0.  1.
        -12    1    3    3    0    0 -0.12000374776E+02  0.12861971540E+02 -0.27936930828E+02  0.33013806366E+02  0.00000000000E+00 0.  1.
</event>
<event>
 7    1  0.1999542E-015  0.9000783E+02  0.7816164E-02  0.1186339E+00
        -11   -1    0    0    0    0  0.00000000000E+00  0.00000000000E+00  0.45593999997E+02  0.45594000000E+02  0.51100000000E-03 0. -1.
         11   -1    0    0    0    0 -0.00000000000E+00 -0.00000000000E+00 -0.45593999997E+02  0.45594000000E+02  0.51100000000E-03 0.  1.
    9900012    2    1    2    0    0  0.64382671871E+00  0.68177296422E+00 -0.71657400674E+00  0.90007828180E+02  0.90000090712E+02 0.  0.
         12    1    1    2    0    0 -0.64382671871E+00 -0.68177296422E+00  0.71657400674E+00  0.11801718204E+01  0.00000000000E+00 0. -1.
         11    1    3    3    0    0 -0.29429855729E+02  0.15110542244E+02  0.20390747015E+02  0.38861645092E+02  0.51100000000E-03 0. -1.
        -11    1    3    3    0    0 -0.20542069813E+01 -0.71338177520E+01  0.51348308626E+01  0.90264949060E+01  0.51100000000E-03 0.  1.
        -12    1    3    3    0    0  0.32127889429E+02 -0.72949515279E+01 -0.26242151885E+02  0.42119688182E+02  0.00000000000E+00 0.  1.
</event>
<event>
 7    1  0.1999542E-015  0.9000771E+02  0.7816164E-02  0.1186339E+00
        -11   -1    0    0    0    0  0.00000000000E+00  0.00000000000E+00  0.45593999997E+02  0.45594000000E+02  0.51100000000E-03 0. -1.
         11   -1    0    0    0    0 -0.00000000000E+00 -0.00000000000E+00 -0.45593999997E+02  0.45594000000E+02  0.51100000000E-03 0.  1.
    9900012    2    1    2    0    0 -0.11795208945E+01  0.96739518247E-02  0.41566152567E-01  0.90007707294E+02  0.89999968231E+02 0.  0.
         12    1    1    2    0    0  0.11795208945E+01 -0.96739518247E-02 -0.41566152567E-01  0.11802927057E+01  0.00000000000E+00 0. -1.
         11    1    3    3    0    0  0.31166127280E+02 -0.71295590261E+01  0.14669313789E+02  0.35175941620E+02  0.51100000000E-03 0. -1.
        -11    1    3    3    0    0  0.94919860604E+01  0.37566517139E+01 -0.64298601970E+01  0.12064548640E+02  0.51100000000E-03 0.  1.
        -12    1    3    3    0    0 -0.41837634235E+02  0.33825812640E+01 -0.81978874391E+01  0.42767217034E+02  0.00000000000E+00 0.  1.
</event>
<event>
 7    1  0.1999542E-015  0.9000773E+02  0.7816164E-02  0.1186339E+00
        -11   -1    0    0    0    0  0.00000000000E+00  0.00000000000E+00  0.45593999997E+02  0.45594000000E+02  0.51100000000E-03 0. -1.
         11   -1    0    0    0    0 -0.00000000000E+00 -0.00000000000E+00 -0.45593999997E+02  0.45594000000E+02  0.51100000000E-03 0.  1.
    9900012    2    1    2    0    0 -0.65636776294E+00  0.87380203293E+00  0.44573511155E+00  0.90007733749E+02  0.89999995035E+02 0.  0.
         12    1    1    2    0    0  0.65636776294E+00 -0.87380203293E+00 -0.44573511155E+00  0.11802662507E+01  0.00000000000E+00 0. -1.
         11    1    3    3    0    0  0.14924578848E+02 -0.16667167491E+02  0.36235517206E+02  0.42585798495E+02  0.51100000000E-03 0. -1.
        -11    1    3    3    0    0  0.44571156063E+01  0.71615127585E+01 -0.80234741100E+01  0.11641704410E+02  0.51100000000E-03 0.  1.
        -12    1    3    3    0    0 -0.20038062217E+02  0.10379456765E+02 -0.27766307985E+02  0.35780230844E+02  0.00000000000E+00 0.  1.
</event>
<event>
 7    1  0.3325849E-015  0.9000769E+02  0.7816164E-02  0.1186339E+00
        -11   -1    0    0    0    0  0.00000000000E+00  0.00000000000E+00  0.45593999997E+02  0.45594000000E+02  0.51100000000E-03 0. -1.
         11   -1    0    0    0    0 -0.00000000000E+00 -0.00000000000E+00 -0.45593999997E+02  0.45594000000E+02  0.51100000000E-03 0.  1.
    9900012    2    1    2    0    0  0.91236331919E+00 -0.53477110695E+00 -0.52416782480E+00  0.90007686960E+02  0.89999947628E+02 0.  0.
         12    1    1    2    0    0 -0.91236331919E+00  0.53477110695E+00  0.52416782480E+00  0.11803130397E+01  0.00000000000E+00 0. -1.
         11    1    3    3    0    0  0.92940661863E+01 -0.30844041952E+02  0.24109254489E+02  0.40236684040E+02  0.51100000000E-03 0. -1.
        -11    1    3    3    0    0 -0.93088848340E+01 -0.19274685073E+01 -0.55264334122E+00  0.95223887036E+01  0.51100000000E-03 0.  1.
        -12    1    3    3    0    0  0.92718196690E+00  0.32236739352E+02 -0.24080778973E+02  0.40248614217E+02  0.00000000000E+00 0.  1.
</event>
<event>
 7    1  0.1999542E-015  0.9000753E+02  0.7816164E-02  0.1186339E+00
        -11   -1    0    0    0    0  0.00000000000E+00  0.00000000000E+00  0.45593999997E+02  0.45594000000E+02  0.51100000000E-03 0. -1.
         11   -1    0    0    0    0 -0.00000000000E+00 -0.00000000000E+00 -0.45593999997E+02  0.45594000000E+02  0.51100000000E-03 0.  1.
    9900012    2    1    2    0    0  0.84783259012E+00 -0.70236435370E+00 -0.42588542944E+00  0.90007527982E+02  0.89999786551E+02 0.  0.
         12    1    1    2    0    0 -0.84783259012E+00  0.70236435370E+00  0.42588542944E+00  0.11804720180E+01  0.00000000000E+00 0. -1.
         11    1    3    3    0    0  0.34890894176E+01  0.67799424418E+01  0.50864382404E+01  0.91658725014E+01  0.51100000000E-03 0. -1.
        -11    1    3    3    0    0  0.22239220935E+02  0.28291755794E+02 -0.90993670547E+01  0.37118794091E+02  0.51100000000E-03 0.  1.
         12    1    3    3    0    0 -0.24880477762E+02 -0.35774062590E+02  0.35870433850E+01  0.43722861390E+02  0.00000000000E+00 0. -1.
</event>
<event>
 7    1  0.1999542E-015  0.9000767E+02  0.7816164E-02  0.1186339E+00
        -11   -1    0    0    0    0  0.00000000000E+00  0.00000000000E+00  0.45593999997E+02  0.45594000000E+02  0.51100000000E-03 0. -1.
         11   -1    0    0    0    0 -0.00000000000E+00 -0.00000000000E+00 -0.45593999997E+02  0.45594000000E+02  0.51100000000E-03 0.  1.
    9900012    2    1    2    0    0  0.21711855252E+00 -0.72671951158E+00 -0.90438755560E+00  0.90007670146E+02  0.89999930592E+02 0.  0.
         12    1    1    2    0    0 -0.21711855252E+00  0.72671951158E+00  0.90438755560E+00  0.11803298544E+01  0.00000000000E+00 0. -1.
         11    1    3    3    0    0  0.64255566573E+01  0.65276193561E+01 -0.26573341979E+01  0.95372437378E+01  0.51100000000E-03 0. -1.
        -11    1    3    3    0    0 -0.23009811028E+02  0.21883628704E+02 -0.22573547550E+02  0.38960360086E+02  0.51100000000E-03 0.  1.
         12    1    3    3    0    0  0.16801372924E+02 -0.29137967571E+02  0.24326494192E+02  0.41510066321E+02  0.00000000000E+00 0. -1.
</event>
<event>
 7    1  0.1999542E-015  0.9000775E+02  0.7816164E-02  0.1186339E+00
        -11   -1    0    0    0    0  0.00000000000E+00  0.00000000000E+00  0.45593999997E+02  0.45594000000E+02  0.51100000000E-03 0. -1.
         11   -1    0    0    0    0 -0.00000000000E+00 -0.00000000000E+00 -0.45593999997E+02  0.45594000000E+02  0.51100000000E-03 0.  1.
    9900012    2    1    2    0    0 -0.11029495072E+01 -0.39110573772E+00  0.15336099493E+00  0.90007753878E+02  0.90000015429E+02 0.  0.
         12    1    1    2    0    0  0.11029495072E+01  0.39110573772E+00 -0.15336099493E+00  0.11802461219E+01  0.00000000000E+00 0. -1.
         11    1    3    3    0    0  0.27117485004E+02 -0.29043313103E+02  0.22217558814E+01  0.39797088190E+02  0.51100000000E-03 0. -1.
        -11    1    3    3    0    0  0.33761560314E+01 -0.20026788609E+01  0.41934774146E+01  0.57440756659E+01  0.51100000000E-03 0.  1.
        -12    1    3    3    0    0 -0.31596590543E+02  0.30654886226E+02 -0.62618723010E+01  0.44466590022E+02  0.00000000000E+00 0.  1.
</event>
<event>
 7    1  0.1999542E-015  0.9000774E+02  0.7816164E-02  0.1186339E+00
        -11   -1    0    0    0    0  0.00000000000E+00  0.00000000000E+00  0.45593999997E+02  0.45594000000E+02  0.51100000000E-03 0. -1.
         11   -1    0    0    0    0 -0.00000000000E+00 -0.00000000000E+00 -0.45593999997E+02  0.45594000000E+02  0.51100000000E-03 0.  1.
    9900012    2    1    2    0    0  0.94593559363E+00 -0.70561143677E+00 -0.18380124380E-01  0.90007737539E+02  0.89999998875E+02 0.  0.
         12    1    1    2    0    0 -0.94593559363E+00  0.70561143677E+00  0.18380124380E-01  0.11802624606E+01  0.00000000000E+00 0. -1.
         11    1    3    3    0    0 -0.10778525540E+01  0.10485545502E+02 -0.97473213454E+01  0.14356834758E+02  0.51100000000E-03 0. -1.
        -11    1    3    3    0    0  0.20057372990E+02  0.16623403939E+02 -0.18629788234E+02  0.32026626106E+02  0.51100000000E-03 0.  1.
         12    1    3    3    0    0 -0.18033584843E+02 -0.27814560878E+02  0.28358729455E+02  0.43624276675E+02  0.00000000000E+00 0. -1.
</event>
<event>
 7    1  0.1999542E-015  0.9000775E+02  0.7816164E-02  0.1186339E+00
        -11   -1    0    0    0    0  0.00000000000E+00  0.00000000000E+00  0.45593999997E+02  0.45594000000E+02  0.51100000000E-03 0.  1.
         11   -1    0    0    0    0 -0.00000000000E+00 -0.00000000000E+00 -0.45593999997E+02  0.45594000000E+02  0.51100000000E-03 0. -1.
    9900012    2    1    2    0    0 -0.40956135340E+00  0.77041816013E+00  0.79479547279E+00  0.90007752362E+02  0.90000013893E+02 0.  0.
         12    1    1    2    0    0  0.40956135340E+00 -0.77041816013E+00 -0.79479547279E+00  0.11802476381E+01  0.00000000000E+00 0. -1.
         11    1    3    3    0    0  0.50178462812E+00  0.10639734332E+02  0.34857094035E+01  0.11207404016E+02  0.51100000000E-03 0. -1.
        -11    1    3    3    0    0  0.35571219336E+02  0.10173193478E+02 -0.35389220782E+01  0.37166241138E+02  0.51100000000E-03 0.  1.
         12    1    3    3    0    0 -0.36482565317E+02 -0.20042509650E+02  0.84800814741E+00  0.41634107208E+02  0.00000000000E+00 0. -1.
</event>
<event>
 7    1  0.1999542E-015  0.9000777E+02  0.7816164E-02  0.1186339E+00
        -11   -1    0    0    0    0  0.00000000000E+00  0.00000000000E+00  0.45593999997E+02  0.45594000000E+02  0.51100000000E-03 0. -1.
         11   -1    0    0    0    0 -0.00000000000E+00 -0.00000000000E+00 -0.45593999997E+02  0.45594000000E+02  0.51100000000E-03 0.  1.
    9900012    2    1    2    0    0  0.12236208037E+00 -0.11231020363E+01 -0.34147290771E+00  0.90007773577E+02  0.90000035388E+02 0.  0.
         12    1    1    2    0    0 -0.12236208037E+00  0.11231020363E+01  0.34147290771E+00  0.11802264229E+01  0.00000000000E+00 0. -1.
         11    1    3    3    0    0  0.10180569825E+02  0.34467330112E+00 -0.11098222564E+01  0.10246682748E+02  0.51100000000E-03 0. -1.
        -11    1    3    3    0    0 -0.16034232977E+02 -0.24772523152E+02  0.29879618234E+02  0.41994834403E+02  0.51100000000E-03 0.  1.
         12    1    3    3    0    0  0.59760252325E+01  0.23304747815E+02 -0.29111268885E+02  0.37766256426E+02  0.00000000000E+00 0. -1.
</event>
<event>
 7    1  0.1999542E-015  0.9000774E+02  0.7816164E-02  0.1186339E+00
        -11   -1    0    0    0    0  0.00000000000E+00  0.00000000000E+00  0.45593999997E+02  0.45594000000E+02  0.51100000000E-03 0.  1.
         11   -1    0    0    0    0 -0.00000000000E+00 -0.00000000000E+00 -0.45593999997E+02  0.45594000000E+02  0.51100000000E-03 0. -1.
    9900012    2    1    2    0    0 -0.36308614645E+00  0.48201067197E+00  0.10143249750E+01  0.90007736897E+02  0.89999998224E+02 0.  0.
         12    1    1    2    0    0  0.36308614645E+00 -0.48201067197E+00 -0.10143249750E+01  0.11802631031E+01  0.00000000000E+00 0. -1.
         11    1    3    3    0    0  0.89931385130E+01  0.25974258140E+01 -0.19271024908E+01  0.95570332972E+01  0.51100000000E-03 0. -1.
        -11    1    3    3    0    0 -0.12345146866E+02 -0.39629877137E+02 -0.55320576454E+01  0.41875213135E+02  0.51100000000E-03 0.  1.
         12    1    3    3    0    0  0.29889222067E+01  0.37514461995E+02  0.84734851112E+01  0.38575490465E+02  0.00000000000E+00 0. -1.
</event>
<event>
 7    1  0.1999542E-015  0.9000779E+02  0.7816164E-02  0.1186339E+00
        -11   -1    0    0    0    0  0.00000000000E+00  0.00000000000E+00  0.45593999997E+02  0.45594000000E+02  0.51100000000E-03 0.  1.
         11   -1    0    0    0    0 -0.00000000000E+00 -0.00000000000E+00 -0.45593999997E+02  0.45594000000E+02  0.51100000000E-03 0. -1.
    9900012    2    1    2    0    0  0.94835178659E+00 -0.64985229252E+00  0.26687961873E+00  0.90007786526E+02  0.90000048508E+02 0.  0.
         12    1    1    2    0    0 -0.94835178659E+00  0.64985229252E+00 -0.26687961873E+00  0.11802134740E+01  0.00000000000E+00 0. -1.
         11    1    3    3    0    0  0.14182571701E+02 -0.44145508163E+00 -0.33201087447E+02  0.36106127327E+02  0.51100000000E-03 0. -1.
        -11    1    3    3    0    0  0.83873468359E+01  0.17073417225E+01 -0.48681626279E+01  0.98469086690E+01  0.51100000000E-03 0.  1.
        -12    1    3    3    0    0 -0.21621566750E+02 -0.19157389334E+01  0.38336129694E+02  0.44054750530E+02  0.00000000000E+00 0.  1.
</event>
<event>
 7    1  0.1999542E-015  0.9000776E+02  0.7816164E-02  0.1186339E+00
        -11   -1    0    0    0    0  0.00000000000E+00  0.00000000000E+00  0.45593999997E+02  0.45594000000E+02  0.51100000000E-03 0.  1.
         11   -1    0    0    0    0 -0.00000000000E+00 -0.00000000000E+00 -0.45593999997E+02  0.45594000000E+02  0.51100000000E-03 0. -1.
    9900012    2    1    2    0    0  0.82545379353E-01 -0.11200022555E+01  0.36298426574E+00  0.90007755801E+02  0.90000017378E+02 0.  0.
         12    1    1    2    0    0 -0.82545379353E-01  0.11200022555E+01 -0.36298426574E+00  0.11802441989E+01  0.00000000000E+00 0. -1.
         11    1    3    3    0    0  0.38140866894E+01 -0.14638394974E+00 -0.86016024039E+01  0.94104330247E+01  0.51100000000E-03 0. -1.
        -11    1    3    3    0    0 -0.45822134359E-01  0.34453938819E+02  0.23943921762E+02  0.41956970689E+02  0.51100000000E-03 0.  1.
         12    1    3    3    0    0 -0.36857191757E+01 -0.35427557124E+02 -0.14979335092E+02  0.38640352088E+02  0.00000000000E+00 0. -1.
</event>
<event>
 7    1  0.1999542E-015  0.9000769E+02  0.7816164E-02  0.1186339E+00
        -11   -1    0    0    0    0  0.00000000000E+00  0.00000000000E+00  0.45593999997E+02  0.45594000000E+02  0.51100000000E-03 0.  1.
         11   -1    0    0    0    0 -0.00000000000E+00 -0.00000000000E+00 -0.45593999997E+02  0.45594000000E+02  0.51100000000E-03 0. -1.
    9900012    2    1    2    0    0  0.67047335240E-01  0.59182368420E+00  0.10190051879E+01  0.90007694026E+02  0.89999954788E+02 0.  0.
         12    1    1    2    0    0 -0.67047335240E-01 -0.59182368420E+00 -0.10190051879E+01  0.11803059736E+01  0.00000000000E+00 0. -1.
         11    1    3    3    0    0 -0.72990775503E+01  0.41578876225E+01  0.58117447961E+00  0.84203519288E+01  0.51100000000E-03 0. -1.
        -11    1    3    3    0    0 -0.96819147507E+01 -0.23708025842E+02  0.31651540079E+02  0.40714001918E+02  0.51100000000E-03 0.  1.
         12    1    3    3    0    0  0.17048039636E+02  0.20141961903E+02 -0.31213709371E+02  0.40873340180E+02  0.00000000000E+00 0. -1.
</event>
<event>
 7    1  0.1999542E-015  0.9000773E+02  0.7816164E-02  0.1186339E+00
        -11   -1    0    0    0    0  0.00000000000E+00  0.00000000000E+00  0.45593999997E+02  0.45594000000E+02  0.51100000000E-03 0. -1.
         11   -1    0    0    0    0 -0.00000000000E+00 -0.00000000000E+00 -0.45593999997E+02  0.45594000000E+02  0.51100000000E-03 0.  1.
    9900012    2    1    2    0    0  0.69194748156E+00  0.74138093423E+00 -0.60381588505E+00  0.90007732814E+02  0.89999994087E+02 0.  0.
         12    1    1    2    0    0 -0.69194748156E+00 -0.74138093423E+00  0.60381588505E+00  0.11802671858E+01  0.00000000000E+00 0. -1.
         11    1    3    3    0    0 -0.59161466970E+01  0.26161977159E+02  0.63325038535E+01  0.27559942778E+02  0.51100000000E-03 0. -1.
        -11    1    3    3    0    0  0.67202782358E+00  0.13857240694E+02  0.12090243004E+02  0.18402410636E+02  0.51100000000E-03 0.  1.
        -12    1    3    3    0    0  0.59360663550E+01 -0.39277836919E+02 -0.19026562742E+02  0.44045379401E+02  0.00000000000E+00 0.  1.
</event>
<event>
 7    1  0.1999542E-015  0.9000770E+02  0.7816164E-02  0.1186339E+00
        -11   -1    0    0    0    0  0.00000000000E+00  0.00000000000E+00  0.45593999997E+02  0.45594000000E+02  0.51100000000E-03 0.  1.
         11   -1    0    0    0    0 -0.00000000000E+00 -0.00000000000E+00 -0.45593999997E+02  0.45594000000E+02  0.51100000000E-03 0. -1.
    9900012    2    1    2    0    0  0.25548230682E+00 -0.10926516857E+01  0.36597575757E+00  0.90007704626E+02  0.89999965527E+02 0.  0.
         12    1    1    2    0    0 -0.25548230682E+00  0.10926516857E+01 -0.36597575757E+00  0.11802953742E+01  0.00000000000E+00 0. -1.
         11    1    3    3    0    0 -0.19930420825E+02  0.10691415222E+02 -0.34532138909E+02  0.41279494323E+02  0.51100000000E-03 0. -1.
        -11    1    3    3    0    0 -0.25293036877E+01  0.50310505134E+01  0.73738418696E+01  0.92780596351E+01  0.51100000000E-03 0.  1.
        -12    1    3    3    0    0  0.22715206819E+02 -0.16815117421E+02  0.27524272797E+02  0.39450150668E+02  0.00000000000E+00 0.  1.
</event>
<event>
 7    1  0.1999542E-015  0.9000780E+02  0.7816164E-02  0.1186339E+00
        -11   -1    0    0    0    0  0.00000000000E+00  0.00000000000E+00  0.45593999997E+02  0.45594000000E+02  0.51100000000E-03 0.  1.
         11   -1    0    0    0    0 -0.00000000000E+00 -0.00000000000E+00 -0.45593999997E+02  0.45594000000E+02  0.51100000000E-03 0. -1.
    9900012    2    1    2    0    0 -0.44110139021E+00 -0.71755528637E+00  0.82668341782E+00  0.90007804466E+02  0.90000066685E+02 0.  0.
         12    1    1    2    0    0  0.44110139021E+00  0.71755528637E+00 -0.82668341782E+00  0.11801955341E+01  0.00000000000E+00 0. -1.
         11    1    3    3    0    0  0.30824512056E+02 -0.25940681296E+02  0.18410907530E+02  0.44294819177E+02  0.51100000000E-03 0.  1.
        -11    1    3    3    0    0 -0.11330198034E+02  0.15081727877E+02 -0.12923429700E+02  0.22865846556E+02  0.51100000000E-03 0. -1.
        -12    1    3    3    0    0 -0.19935415412E+02  0.10141398132E+02 -0.46607944117E+01  0.22847138733E+02  0.00000000000E+00 0.  1.
</event>
<event>
 7    1  0.1999542E-015  0.9000778E+02  0.7816164E-02  0.1186339E+00
        -11   -1    0    0    0    0  0.00000000000E+00  0.00000000000E+00  0.45593999997E+02  0.45594000000E+02  0.51100000000E-03 0.  1.
         11   -1    0    0    0    0 -0.00000000000E+00 -0.00000000000E+00 -0.45593999997E+02  0.45594000000E+02  0.51100000000E-03 0. -1.
    9900012    2    1    2    0    0 -0.71801863515E+00  0.80990013173E+00 -0.47055953324E+00  0.90007781690E+02  0.90000043609E+02 0.  0.
         12    1    1    2    0    0  0.71801863515E+00 -0.80990013173E+00  0.47055953324E+00  0.11802183095E+01  0.00000000000E+00 0. -1.
         11    1    3    3    0    0 -0.63857264715E+01  0.40416564576E+01 -0.55609446919E+01  0.93827818699E+01  0.51100000000E-03 0. -1.
        -11    1    3    3    0    0 -0.11820814565E+02 -0.33456698567E+02  0.22078993400E+02  0.41791916512E+02  0.51100000000E-03 0.  1.
         12    1    3    3    0    0  0.17488522401E+02  0.30224942241E+02 -0.16988608241E+02  0.38833083308E+02  0.00000000000E+00 0. -1.
</event>
<event>
 7    1  0.1999542E-015  0.9000765E+02  0.7816164E-02  0.1186339E+00
        -11   -1    0    0    0    0  0.00000000000E+00  0.00000000000E+00  0.45593999997E+02  0.45594000000E+02  0.51100000000E-03 0.  1.
         11   -1    0    0    0    0 -0.00000000000E+00 -0.00000000000E+00 -0.45593999997E+02  0.45594000000E+02  0.51100000000E-03 0. -1.
    9900012    2    1    2    0    0  0.62887719486E+00 -0.92475117776E+00 -0.37759611958E+00  0.90007648317E+02  0.89999908474E+02 0.  0.
         12    1    1    2    0    0 -0.62887719486E+00  0.92475117776E+00  0.37759611958E+00  0.11803516834E+01  0.00000000000E+00 0. -1.
         11    1    3    3    0    0 -0.87908878854E+01 -0.23732178206E+01  0.27925702343E+01  0.95241966281E+01  0.51100000000E-03 0. -1.
        -11    1    3    3    0    0 -0.17899950657E+02  0.15278180831E+02  0.28143602587E+02  0.36686419965E+02  0.51100000000E-03 0.  1.
         12    1    3    3    0    0  0.27319715737E+02 -0.13829714188E+02 -0.31313768941E+02  0.43797031723E+02  0.00000000000E+00 0. -1.
</event>
<event>
 7    1  0.1999542E-015  0.9000762E+02  0.7816164E-02  0.1186339E+00
        -11   -1    0    0    0    0  0.00000000000E+00  0.00000000000E+00  0.45593999997E+02  0.45594000000E+02  0.51100000000E-03 0. -1.
         11   -1    0    0    0    0 -0.00000000000E+00 -0.00000000000E+00 -0.45593999997E+02  0.45594000000E+02  0.51100000000E-03 0.  1.
    9900012    2    1    2    0    0  0.10299728257E+01  0.11018416956E+00 -0.56595173267E+00  0.90007624663E+02  0.89999884508E+02 0.  0.
         12    1    1    2    0    0 -0.10299728257E+01 -0.11018416956E+00  0.56595173267E+00  0.11803753372E+01  0.00000000000E+00 0. -1.
         11    1    3    3    0    0 -0.38926572620E+01  0.73755981777E+01 -0.15717423205E+01  0.84866131773E+01  0.51100000000E-03 0. -1.
        -11    1    3    3    0    0 -0.33637410390E+02  0.58303715107E+01 -0.15609978160E+02  0.37538513931E+02  0.51100000000E-03 0.  1.
         12    1    3    3    0    0  0.38560040478E+02 -0.13095785519E+02  0.16615768748E+02  0.43982497554E+02  0.00000000000E+00 0. -1.
</event>
<event>
 7    1  0.1999542E-015  0.9000779E+02  0.7816164E-02  0.1186339E+00
        -11   -1    0    0    0    0  0.00000000000E+00  0.00000000000E+00  0.45593999997E+02  0.45594000000E+02  0.51100000000E-03 0.  1.
         11   -1    0    0    0    0 -0.00000000000E+00 -0.00000000000E+00 -0.45593999997E+02  0.45594000000E+02  0.51100000000E-03 0. -1.
    9900012    2    1    2    0    0 -0.92553291242E+00 -0.46033990452E+00 -0.56953138584E+00  0.90007792392E+02  0.90000054451E+02 0.  0.
         12    1    1    2    0    0  0.92553291242E+00  0.46033990452E+00  0.56953138584E+00  0.11802076085E+01  0.00000000000E+00 0. -1.
         11    1    3    3    0    0 -0.29342694079E+01 -0.14538586242E+02 -0.35279949576E+02  0.38270814849E+02  0.51100000000E-03 0. -1.
        -11    1    3    3    0    0 -0.63056045871E+01  0.89865817969E+00 -0.56240555782E+01  0.84969545803E+01  0.51100000000E-03 0.  1.
        -12    1    3    3    0    0  0.83143410826E+01  0.13179588158E+02  0.40334473768E+02  0.43240022962E+02  0.00000000000E+00 0.  1.
</event>
<event>
 7    1  0.1999542E-015  0.9000797E+02  0.7816164E-02  0.1186339E+00
        -11   -1    0    0    0    0  0.00000000000E+00  0.00000000000E+00  0.45593999997E+02  0.45594000000E+02  0.51100000000E-03 0. -1.
         11   -1    0    0    0    0 -0.00000000000E+00 -0.00000000000E+00 -0.45593999997E+02  0.45594000000E+02  0.51100000000E-03 0.  1.
    9900012    2    1    2    0    0  0.26102113844E+00 -0.11412216409E+01 -0.14814204537E+00  0.90007972486E+02  0.90000236922E+02 0.  0.
         12    1    1    2    0    0 -0.26102113844E+00  0.11412216409E+01  0.14814204537E+00  0.11800275141E+01  0.00000000000E+00 0. -1.
         11    1    3    3    0    0  0.69993355296E+01  0.12407646734E+02 -0.36663527766E+02  0.39333886966E+02  0.51100000000E-03 0. -1.
        -11    1    3    3    0    0  0.46122268712E+01  0.46535934664E+01 -0.17715420987E+01  0.67872623738E+01  0.51100000000E-03 0.  1.
        -12    1    3    3    0    0 -0.11350541262E+02 -0.18202461841E+02  0.38286927819E+02  0.43886823146E+02  0.00000000000E+00 0.  1.
</event>
<event>
 7    1  0.1999542E-015  0.9000777E+02  0.7816164E-02  0.1186339E+00
        -11   -1    0    0    0    0  0.00000000000E+00  0.00000000000E+00  0.45593999997E+02  0.45594000000E+02  0.51100000000E-03 0.  1.
         11   -1    0    0    0    0 -0.00000000000E+00 -0.00000000000E+00 -0.45593999997E+02  0.45594000000E+02  0.51100000000E-03 0. -1.
    9900012    2    1    2    0    0  0.10368248295E+01  0.12137119661E-01  0.56373004916E+00  0.90007769258E+02  0.90000031012E+02 0.  0.
         12    1    1    2    0    0 -0.10368248295E+01 -0.12137119661E-01 -0.56373004916E+00  0.11802307423E+01  0.00000000000E+00 0. -1.
         11    1    3    3    0    0 -0.81168934087E+01  0.11029319451E+01  0.43323885820E+01  0.92666071769E+01  0.51100000000E-03 0. -1.
        -11    1    3    3    0    0 -0.19309215144E+02 -0.27533222121E+02  0.15896865959E+02  0.37197237228E+02  0.51100000000E-03 0.  1.
         12    1    3    3    0    0  0.28462933382E+02  0.26442427296E+02 -0.19665524492E+02  0.43543924852E+02  0.00000000000E+00 0. -1.
</event>
<event>
 7    1  0.1999542E-015  0.9000780E+02  0.7816164E-02  0.1186339E+00
        -11   -1    0    0    0    0  0.00000000000E+00  0.00000000000E+00  0.45593999997E+02  0.45594000000E+02  0.51100000000E-03 0.  1.
         11   -1    0    0    0    0 -0.00000000000E+00 -0.00000000000E+00 -0.45593999997E+02  0.45594000000E+02  0.51100000000E-03 0. -1.
    9900012    2    1    2    0    0  0.12032791477E+00  0.20746152046E+00  0.11555730148E+01  0.90007801677E+02  0.90000063859E+02 0.  0.
         12    1    1    2    0    0 -0.12032791477E+00 -0.20746152046E+00 -0.11555730148E+01  0.11801983232E+01  0.00000000000E+00 0. -1.
         11    1    3    3    0    0 -0.75288281669E+01 -0.35618403777E+02 -0.65175276985E+01  0.36984214318E+02  0.51100000000E-03 0. -1.
        -11    1    3    3    0    0  0.43998885592E+01 -0.76265358102E+01  0.15522437713E+00  0.88060866829E+01  0.51100000000E-03 0.  1.
        -12    1    3    3    0    0  0.32492675225E+01  0.43452401107E+02  0.75178763361E+01  0.44217500676E+02  0.00000000000E+00 0.  1.
</event>
<event>
 7    1  0.1999542E-015  0.9000797E+02  0.7816164E-02  0.1186339E+00
        -11   -1    0    0    0    0  0.00000000000E+00  0.00000000000E+00  0.45593999997E+02  0.45594000000E+02  0.51100000000E-03 0. -1.
         11   -1    0    0    0    0 -0.00000000000E+00 -0.00000000000E+00 -0.45593999997E+02  0.45594000000E+02  0.51100000000E-03 0.  1.
    9900012    2    1    2    0    0  0.24672444727E+00  0.97995683478E-01 -0.11497841638E+01  0.90007966217E+02  0.90000230570E+02 0.  0.
         12    1    1    2    0    0 -0.24672444727E+00 -0.97995683478E-01  0.11497841638E+01  0.11800337835E+01  0.00000000000E+00 0. -1.
         11    1    3    3    0    0  0.19657171925E+01  0.21066737983E+01 -0.86438155995E+00  0.30082011761E+01  0.51100000000E-03 0. -1.
        -11    1    3    3    0    0 -0.36229819327E+02  0.21373210759E+02 -0.11920064109E+02  0.43720725923E+02  0.51100000000E-03 0.  1.
         12    1    3    3    0    0  0.34510826581E+02 -0.23381888874E+02  0.11634661506E+02  0.43279039118E+02  0.00000000000E+00 0. -1.
</event>
<event>
 7    1  0.1999542E-015  0.9000776E+02  0.7816164E-02  0.1186339E+00
        -11   -1    0    0    0    0  0.00000000000E+00  0.00000000000E+00  0.45593999997E+02  0.45594000000E+02  0.51100000000E-03 0. -1.
         11   -1    0    0    0    0 -0.00000000000E+00 -0.00000000000E+00 -0.45593999997E+02  0.45594000000E+02  0.51100000000E-03 0.  1.
    9900012    2    1    2    0    0  0.49986947224E+00 -0.87047571732E+00 -0.62078884092E+00  0.90007755852E+02  0.90000017429E+02 0.  0.
         12    1    1    2    0    0 -0.49986947224E+00  0.87047571732E+00  0.62078884092E+00  0.11802441479E+01  0.00000000000E+00 0. -1.
         11    1    3    3    0    0  0.17802620667E+02 -0.10578660212E+02  0.20323385575E+02  0.29015191814E+02  0.51100000000E-03 0. -1.
        -11    1    3    3    0    0  0.16446664288E+01 -0.17085817823E+02  0.63572873739E+01  0.18304239983E+02  0.51100000000E-03 0.  1.
        -12    1    3    3    0    0 -0.18947417623E+02  0.26794002318E+02 -0.27301461790E+02  0.42688324055E+02  0.00000000000E+00 0.  1.
</event>
<event>
 7    1  0.1999542E-015  0.9000770E+02  0.7816164E-02  0.1186339E+00
        -11   -1    0    0    0    0  0.00000000000E+00  0.00000000000E+00  0.45593999997E+02  0.45594000000E+02  0.51100000000E-03 0. -1.
         11   -1    0    0    0    0 -0.00000000000E+00 -0.00000000000E+00 -0.45593999997E+02  0.45594000000E+02  0.51100000000E-03 0.  1.
    9900012    2    1    2    0    0  0.23388844862E+00  0.11310681104E+01  0.24307440672E+00  0.90007701714E+02  0.89999962577E+02 0.  0.
         12    1    1    2    0    0 -0.23388844862E+00 -0.11310681104E+01 -0.24307440672E+00  0.11802982860E+01  0.00000000000E+00 0. -1.
         11    1    3    3    0    0 -0.13151668674E+02  0.31728803819E+02  0.10079225874E+02  0.35794890350E+02  0.51100000000E-03 0. -1.
        -11    1    3    3    0    0 -0.87320765018E+01 -0.52719763894E+00  0.88711324799E+01  0.12458895983E+02  0.51100000000E-03 0.  1.
        -12    1    3    3    0    0  0.22117633625E+02 -0.30070538069E+02 -0.18707283947E+02  0.41753915381E+02  0.00000000000E+00 0.  1.
</event>
<event>
 7    1  0.1999542E-015  0.9000759E+02  0.7816164E-02  0.1186339E+00
        -11   -1    0    0    0    0  0.00000000000E+00  0.00000000000E+00  0.45593999997E+02  0.45594000000E+02  0.51100000000E-03 0. -1.
         11   -1    0    0    0    0 -0.00000000000E+00 -0.00000000000E+00 -0.45593999997E+02  0.45594000000E+02  0.51100000000E-03 0.  1.
    9900012    2    1    2    0    0 -0.68295215251E+00 -0.43891038496E+00 -0.85692055991E+00  0.90007585321E+02  0.89999844647E+02 0.  0.
         12    1    1    2    0    0  0.68295215251E+00  0.43891038496E+00  0.85692055991E+00  0.11804146791E+01  0.00000000000E+00 0. -1.
         11    1    3    3    0    0  0.51008897344E+01  0.93695368555E+01 -0.31092555442E+01  0.11111920053E+02  0.51100000000E-03 0. -1.
        -11    1    3    3    0    0 -0.24222312948E+02  0.89313368014E+01 -0.28488758606E+02  0.38446047765E+02  0.51100000000E-03 0.  1.
         12    1    3    3    0    0  0.18438471061E+02 -0.18739784042E+02  0.30741093590E+02  0.40449617503E+02  0.00000000000E+00 0. -1.
</event>
<event>
 7    1  0.1999542E-015  0.9000775E+02  0.7816164E-02  0.1186339E+00
        -11   -1    0    0    0    0  0.00000000000E+00  0.00000000000E+00  0.45593999997E+02  0.45594000000E+02  0.51100000000E-03 0.  1.
         11   -1    0    0    0    0 -0.00000000000E+00 -0.00000000000E+00 -0.45593999997E+02  0.45594000000E+02  0.51100000000E-03 0. -1.
    9900012    2    1    2    0    0 -0.48791511574E+00  0.95760457258E+00  0.48778394069E+00  0.90007745430E+02  0.90000006870E+02 0.  0.
         12    1    1    2    0    0  0.48791511574E+00 -0.95760457258E+00 -0.48778394069E+00  0.11802545702E+01  0.00000000000E+00 0. -1.
         11    1    3    3    0    0 -0.55039676045E+01  0.77179367047E+01 -0.94780843555E+00  0.95267280564E+01  0.51100000000E-03 0. -1.
        -11    1    3    3    0    0 -0.79497519405E+00 -0.33591123605E+02 -0.25377013949E+02  0.42106868891E+02  0.51100000000E-03 0.  1.
         12    1    3    3    0    0  0.58110276829E+01  0.26830791472E+02  0.26812606326E+02  0.38374148482E+02  0.00000000000E+00 0. -1.
</event>
<event>
 7    1  0.1999542E-015  0.9000758E+02  0.7816164E-02  0.1186339E+00
        -11   -1    0    0    0    0  0.00000000000E+00  0.00000000000E+00  0.45593999997E+02  0.45594000000E+02  0.51100000000E-03 0. -1.
         11   -1    0    0    0    0 -0.00000000000E+00 -0.00000000000E+00 -0.45593999997E+02  0.45594000000E+02  0.51100000000E-03 0.  1.
    9900012    2    1    2    0    0  0.85636439534E+00  0.56217439890E+00 -0.58650719667E+00  0.90007580276E+02  0.89999839536E+02 0.  0.
         12    1    1    2    0    0 -0.85636439534E+00 -0.56217439890E+00  0.58650719667E+00  0.11804197237E+01  0.00000000000E+00 0. -1.
         11    1    3    3    0    0 -0.26627630666E+01  0.76168887325E+01 -0.11114931975E+01  0.81451039589E+01  0.51100000000E-03 0. -1.
        -11    1    3    3    0    0  0.59412118291E+00  0.33547401941E+02  0.17399954269E+02  0.37796025794E+02  0.51100000000E-03 0.  1.
         12    1    3    3    0    0  0.29250062791E+01 -0.40602116274E+02 -0.16874968269E+02  0.44066450524E+02  0.00000000000E+00 0. -1.
</event>
<event>
 7    1  0.1999542E-015  0.9000773E+02  0.7816164E-02  0.1186339E+00
        -11   -1    0    0    0    0  0.00000000000E+00  0.00000000000E+00  0.45593999997E+02  0.45594000000E+02  0.51100000000E-03 0.  1.
         11   -1    0    0    0    0 -0.00000000000E+00 -0.00000000000E+00 -0.45593999997E+02  0.45594000000E+02  0.51100000000E-03 0. -1.
    9900012    2    1    2    0    0  0.55872145172E+00  0.85119427407E-01  0.10361568501E+01  0.90007730541E+02  0.89999991784E+02 0.  0.
         12    1    1    2    0    0 -0.55872145172E+00 -0.85119427407E-01 -0.10361568501E+01  0.11802694589E+01  0.00000000000E+00 0. -1.
         11    1    3    3    0    0 -0.31077265002E+01 -0.99752398025E+01  0.20414488295E+02  0.22932830304E+02  0.51100000000E-03 0. -1.
        -11    1    3    3    0    0 -0.25535381885E+02  0.51862552516E+01  0.74719655333E+01  0.27106885485E+02  0.51100000000E-03 0.  1.
         12    1    3    3    0    0  0.29201829837E+02  0.48741039783E+01 -0.26850296978E+02  0.39968014752E+02  0.00000000000E+00 0. -1.
</event>
<event>
 7    1  0.1999542E-015  0.9000775E+02  0.7816164E-02  0.1186339E+00
        -11   -1    0    0    0    0  0.00000000000E+00  0.00000000000E+00  0.45593999997E+02  0.45594000000E+02  0.51100000000E-03 0.  1.
         11   -1    0    0    0    0 -0.00000000000E+00 -0.00000000000E+00 -0.45593999997E+02  0.45594000000E+02  0.51100000000E-03 0. -1.
    9900012    2    1    2    0    0  0.89723561375E+00  0.73223522643E+00 -0.22754983561E+00  0.90007754644E+02  0.90000016205E+02 0.  0.
         12    1    1    2    0    0 -0.89723561375E+00 -0.73223522643E+00  0.22754983561E+00  0.11802453563E+01  0.00000000000E+00 0. -1.
         11    1    3    3    0    0  0.24864052409E+02 -0.69874818565E+01 -0.24219945490E+02  0.35406945148E+02  0.51100000000E-03 0. -1.
        -11    1    3    3    0    0  0.10835938396E+02  0.21460331174E+00 -0.13183458374E+01  0.10917950884E+02  0.51100000000E-03 0.  1.
        -12    1    3    3    0    0 -0.34802755191E+02  0.75051137712E+01  0.25310741492E+02  0.43682858612E+02  0.00000000000E+00 0.  1.
</event>
<event>
 7    1  0.1999542E-015  0.9000766E+02  0.7816164E-02  0.1186339E+00
        -11   -1    0    0    0    0  0.00000000000E+00  0.00000000000E+00  0.45593999997E+02  0.45594000000E+02  0.51100000000E-03 0. -1.
         11   -1    0    0    0    0 -0.00000000000E+00 -0.00000000000E+00 -0.45593999997E+02  0.45594000000E+02  0.51100000000E-03 0.  1.
    9900012    2    1    2    0    0 -0.55396388369E+00  0.19058260903E+00 -0.10246990391E+01  0.90007658593E+02  0.89999918887E+02 0.  0.
         12    1    1    2    0    0  0.55396388369E+00 -0.19058260903E+00  0.10246990391E+01  0.11803414066E+01  0.00000000000E+00 0. -1.
         11    1    3    3    0    0  0.30681804479E+02  0.79692544073E+01  0.24054743518E+02  0.39793376683E+02  0.51100000000E-03 0. -1.
        -11    1    3    3    0    0 -0.19194076958E+01 -0.10786195209E+02  0.81236634627E+00  0.10985721293E+02  0.51100000000E-03 0.  1.
        -12    1    3    3    0    0 -0.29316360667E+02  0.30075234109E+01 -0.25891808903E+02  0.39228560617E+02  0.00000000000E+00 0.  1.
</event>
<event>
 7    1  0.1999542E-015  0.9000775E+02  0.7816164E-02  0.1186339E+00
        -11   -1    0    0    0    0  0.00000000000E+00  0.00000000000E+00  0.45593999997E+02  0.45594000000E+02  0.51100000000E-03 0.  1.
         11   -1    0    0    0    0 -0.00000000000E+00 -0.00000000000E+00 -0.45593999997E+02  0.45594000000E+02  0.51100000000E-03 0. -1.
    9900012    2    1    2    0    0  0.88054748166E+00 -0.20013477864E+00 -0.75997448342E+00  0.90007754681E+02  0.90000016243E+02 0.  0.
         12    1    1    2    0    0 -0.88054748166E+00  0.20013477864E+00  0.75997448342E+00  0.11802453188E+01  0.00000000000E+00 0. -1.
         11    1    3    3    0    0 -0.80780220420E+01 -0.42701753028E+01 -0.15250683443E+01  0.92636208333E+01  0.51100000000E-03 0. -1.
        -11    1    3    3    0    0 -0.43115168041E+00 -0.31766549134E+02  0.21432316559E+02  0.38322887795E+02  0.51100000000E-03 0.  1.
         12    1    3    3    0    0  0.93897212041E+01  0.35836589658E+02 -0.20667222698E+02  0.42421246053E+02  0.00000000000E+00 0. -1.
</event>
<event>
 7    1  0.1999542E-015  0.9000778E+02  0.7816164E-02  0.1186339E+00
        -11   -1    0    0    0    0  0.00000000000E+00  0.00000000000E+00  0.45593999997E+02  0.45594000000E+02  0.51100000000E-03 0. -1.
         11   -1    0    0    0    0 -0.00000000000E+00 -0.00000000000E+00 -0.45593999997E+02  0.45594000000E+02  0.51100000000E-03 0.  1.
    9900012    2    1    2    0    0  0.32234902214E+00 -0.10453357253E+01  0.44304993038E+00  0.90007775906E+02  0.90000037748E+02 0.  0.
         12    1    1    2    0    0 -0.32234902214E+00  0.10453357253E+01 -0.44304993038E+00  0.11802240938E+01  0.00000000000E+00 0. -1.
         11    1    3    3    0    0  0.12775043742E+02  0.81061820444E+01 -0.15624166996E+02  0.21749172962E+02  0.51100000000E-03 0.  1.
        -11    1    3    3    0    0 -0.23574945080E+01 -0.18483877989E+02  0.38028941497E+02  0.42348694401E+02  0.51100000000E-03 0. -1.
         12    1    3    3    0    0 -0.10095200212E+02  0.93323602197E+01 -0.21961724570E+02  0.25909908543E+02  0.00000000000E+00 0. -1.
</event>
<event>
 7    1  0.1999542E-015  0.9000736E+02  0.7816164E-02  0.1186340E+00
        -11   -1    0    0    0    0  0.00000000000E+00  0.00000000000E+00  0.45593999997E+02  0.45594000000E+02  0.51100000000E-03 0.  1.
         11   -1    0    0    0    0 -0.00000000000E+00 -0.00000000000E+00 -0.45593999997E+02  0.45594000000E+02  0.51100000000E-03 0. -1.
    9900012    2    1    2    0    0  0.24672759579E+00 -0.79350585315E+00 -0.83868574008E+00  0.90007356186E+02  0.89999612487E+02 0.  0.
         12    1    1    2    0    0 -0.24672759579E+00  0.79350585315E+00  0.83868574008E+00  0.11806438143E+01  0.00000000000E+00 0. -1.
         11    1    3    3    0    0  0.68377787175E+00 -0.72382785709E+01  0.64524472590E+01  0.97208181106E+01  0.51100000000E-03 0. -1.
        -11    1    3    3    0    0  0.30903782413E+02 -0.61013594058E+00  0.21090872834E+02  0.37419793565E+02  0.51100000000E-03 0.  1.
         12    1    3    3    0    0 -0.31340832689E+02  0.70549086584E+01 -0.28382005833E+02  0.42866744510E+02  0.00000000000E+00 0. -1.
</event>
<event>
 7    1  0.1999542E-015  0.9000778E+02  0.7816164E-02  0.1186339E+00
        -11   -1    0    0    0    0  0.00000000000E+00  0.00000000000E+00  0.45593999997E+02  0.45594000000E+02  0.51100000000E-03 0.  1.
         11   -1    0    0    0    0 -0.00000000000E+00 -0.00000000000E+00 -0.45593999997E+02  0.45594000000E+02  0.51100000000E-03 0. -1.
    9900012    2    1    2    0    0 -0.69111958267E+00 -0.37987995035E+00  0.87804176705E+00  0.90007782902E+02  0.90000044836E+02 0.  0.
         12    1    1    2    0    0  0.69111958267E+00  0.37987995035E+00 -0.87804176705E+00  0.11802170982E+01  0.00000000000E+00 0. -1.
         11    1    3    3    0    0  0.42415120776E+01 -0.70361687459E+01  0.78319774927E+01  0.11350681347E+02  0.51100000000E-03 0. -1.
        -11    1    3    3    0    0 -0.12424786644E+02 -0.18348809565E+01  0.33958380485E+02  0.36206542457E+02  0.51100000000E-03 0.  1.
         12    1    3    3    0    0  0.74921549835E+01  0.84911697520E+01 -0.40912316210E+02  0.42450559098E+02  0.00000000000E+00 0. -1.
</event>
<event>
 7    1  0.1999542E-015  0.9000773E+02  0.7816164E-02  0.1186339E+00
        -11   -1    0    0    0    0  0.00000000000E+00  0.00000000000E+00  0.45593999997E+02  0.45594000000E+02  0.51100000000E-03 0.  1.
         11   -1    0    0    0    0 -0.00000000000E+00 -0.00000000000E+00 -0.45593999997E+02  0.45594000000E+02  0.51100000000E-03 0. -1.
    9900012    2    1    2    0    0 -0.95235273147E+00  0.68682693065E+00  0.11974704264E+00  0.90007726171E+02  0.89999987356E+02 0.  0.
         12    1    1    2    0    0  0.95235273147E+00 -0.68682693065E+00 -0.11974704264E+00  0.11802738293E+01  0.00000000000E+00 0. -1.
         11    1    3    3    0    0 -0.43421635929E+02 -0.92349375319E-01  0.13985244373E+01  0.43444250092E+02  0.51100000000E-03 0. -1.
        -11    1    3    3    0    0  0.79337410784E+01 -0.73383345331E+01  0.17893940332E+01  0.10954329395E+02  0.51100000000E-03 0.  1.
        -12    1    3    3    0    0  0.34535542119E+02  0.81175108390E+01 -0.30681714279E+01  0.35609146685E+02  0.00000000000E+00 0.  1.
</event>
<event>
 7    1  0.1999542E-015  0.9000785E+02  0.7816164E-02  0.1186339E+00
        -11   -1    0    0    0    0  0.00000000000E+00  0.00000000000E+00  0.45593999997E+02  0.45594000000E+02  0.51100000000E-03 0.  1.
         11   -1    0    0    0    0 -0.00000000000E+00 -0.00000000000E+00 -0.45593999997E+02  0.45594000000E+02  0.51100000000E-03 0. -1.
    9900012    2    1    2    0    0 -0.68370534038E+00  0.80830404622E+00 -0.52148311385E+00  0.90007850407E+02  0.90000113232E+02 0.  0.
         12    1    1    2    0    0  0.68370534038E+00 -0.80830404622E+00  0.52148311385E+00  0.11801495929E+01  0.00000000000E+00 0. -1.
         11    1    3    3    0    0 -0.73928162310E+01  0.88973551391E+01 -0.26597968102E+01  0.11869759038E+02  0.51100000000E-03 0. -1.
        -11    1    3    3    0    0 -0.26559091462E+02  0.22197621995E+01  0.24946762486E+02  0.36505528927E+02  0.51100000000E-03 0.  1.
         12    1    3    3    0    0  0.33268202352E+02 -0.10308813292E+02 -0.22808448789E+02  0.41632562441E+02  0.00000000000E+00 0. -1.
</event>
<event>
 7    1  0.1999542E-015  0.9000765E+02  0.7816164E-02  0.1186339E+00
        -11   -1    0    0    0    0  0.00000000000E+00  0.00000000000E+00  0.45593999997E+02  0.45594000000E+02  0.51100000000E-03 0. -1.
         11   -1    0    0    0    0 -0.00000000000E+00 -0.00000000000E+00 -0.45593999997E+02  0.45594000000E+02  0.51100000000E-03 0.  1.
    9900012    2    1    2    0    0 -0.10391124749E+01  0.53686546652E+00  0.15886719694E+00  0.90007653419E+02  0.89999913644E+02 0.  0.
         12    1    1    2    0    0  0.10391124749E+01 -0.53686546652E+00 -0.15886719694E+00  0.11803465808E+01  0.00000000000E+00 0. -1.
         11    1    3    3    0    0 -0.17041557888E+01 -0.23072562950E+01 -0.84709628577E+01  0.89434216361E+01  0.51100000000E-03 0. -1.
        -11    1    3    3    0    0  0.23550505086E+02  0.21792860192E+02 -0.21598250426E+02  0.38678669404E+02  0.51100000000E-03 0.  1.
         12    1    3    3    0    0 -0.22885461772E+02 -0.18948738431E+02  0.30228080480E+02  0.42385562379E+02  0.00000000000E+00 0. -1.
</event>
<event>
 7    1  0.1999542E-015  0.9000769E+02  0.7816164E-02  0.1186339E+00
        -11   -1    0    0    0    0  0.00000000000E+00  0.00000000000E+00  0.45593999997E+02  0.45594000000E+02  0.51100000000E-03 0. -1.
         11   -1    0    0    0    0 -0.00000000000E+00 -0.00000000000E+00 -0.45593999997E+02  0.45594000000E+02  0.51100000000E-03 0.  1.
    9900012    2    1    2    0    0 -0.69685722062E+00 -0.47722195147E+00 -0.82449408235E+00  0.90007685945E+02  0.89999946599E+02 0.  0.
         12    1    1    2    0    0  0.69685722062E+00  0.47722195147E+00  0.82449408235E+00  0.11803140551E+01  0.00000000000E+00 0. -1.
         11    1    3    3    0    0 -0.86238633883E+01 -0.32697507039E+01  0.17245997997E+02  0.19557268127E+02  0.51100000000E-03 0. -1.
        -11    1    3    3    0    0 -0.80451160200E+01 -0.29779023757E+02 -0.14230315860E+02  0.33970811551E+02  0.51100000000E-03 0.  1.
        -12    1    3    3    0    0  0.15972122188E+02  0.32571552509E+02 -0.38401762190E+01  0.36479606267E+02  0.00000000000E+00 0.  1.
</event>
<event>
 7    1  0.1999542E-015  0.9000765E+02  0.7816164E-02  0.1186339E+00
        -11   -1    0    0    0    0  0.00000000000E+00  0.00000000000E+00  0.45593999997E+02  0.45594000000E+02  0.51100000000E-03 0.  1.
         11   -1    0    0    0    0 -0.00000000000E+00 -0.00000000000E+00 -0.45593999997E+02  0.45594000000E+02  0.51100000000E-03 0. -1.
    9900012    2    1    2    0    0  0.77765506259E+00  0.76986177997E+00 -0.44247067136E+00  0.90007654774E+02  0.89999915017E+02 0.  0.
         12    1    1    2    0    0 -0.77765506259E+00 -0.76986177997E+00  0.44247067136E+00  0.11803452256E+01  0.00000000000E+00 0. -1.
         11    1    3    3    0    0 -0.82584944970E+01 -0.43582131020E+01  0.16959379309E+01  0.94906774535E+01  0.51100000000E-03 0. -1.
        -11    1    3    3    0    0 -0.22713615702E+02  0.10965749001E+01  0.28330540908E+02  0.36328093305E+02  0.51100000000E-03 0.  1.
         12    1    3    3    0    0  0.31749765262E+02  0.40314999819E+01 -0.30468949510E+02  0.44188884016E+02  0.00000000000E+00 0. -1.
</event>
<event>
 7    1  0.1999542E-015  0.9000768E+02  0.7816164E-02  0.1186339E+00
        -11   -1    0    0    0    0  0.00000000000E+00  0.00000000000E+00  0.45593999997E+02  0.45594000000E+02  0.51100000000E-03 0. -1.
         11   -1    0    0    0    0 -0.00000000000E+00 -0.00000000000E+00 -0.45593999997E+02  0.45594000000E+02  0.51100000000E-03 0.  1.
    9900012    2    1    2    0    0 -0.70554625206E+00 -0.91548498141E+00 -0.23928118264E+00  0.90007676422E+02  0.89999936951E+02 0.  0.
         12    1    1    2    0    0  0.70554625206E+00  0.91548498141E+00  0.23928118264E+00  0.11803235782E+01  0.00000000000E+00 0. -1.
         11    1    3    3    0    0 -0.41289599509E+01 -0.41569546819E+02  0.13434952645E+01  0.41795699693E+02  0.51100000000E-03 0. -1.
        -11    1    3    3    0    0  0.10742409722E+02  0.10896728795E+02 -0.74377366908E+01  0.17013465032E+02  0.51100000000E-03 0.  1.
        -12    1    3    3    0    0 -0.73189960229E+01  0.29757333043E+02  0.58549602437E+01  0.31198511697E+02  0.00000000000E+00 0.  1.
</event>
<event>
 7    1  0.1999542E-015  0.9000767E+02  0.7816164E-02  0.1186339E+00
        -11   -1    0    0    0    0  0.00000000000E+00  0.00000000000E+00  0.45593999997E+02  0.45594000000E+02  0.51100000000E-03 0.  1.
         11   -1    0    0    0    0 -0.00000000000E+00 -0.00000000000E+00 -0.45593999997E+02  0.45594000000E+02  0.51100000000E-03 0. -1.
    9900012    2    1    2    0    0 -0.44263761320E+00 -0.81640512917E+00 -0.72851899532E+00  0.90007667285E+02  0.89999927693E+02 0.  0.
         12    1    1    2    0    0  0.44263761320E+00  0.81640512917E+00  0.72851899532E+00  0.11803327150E+01  0.00000000000E+00 0. -1.
         11    1    3    3    0    0  0.69083910094E+01  0.15344010388E+02 -0.33509348327E+02  0.37497212519E+02  0.51100000000E-03 0. -1.
        -11    1    3    3    0    0 -0.54910002022E+01  0.84500475018E+01 -0.15840153678E+01  0.10201151452E+02  0.51100000000E-03 0.  1.
        -12    1    3    3    0    0 -0.18600284204E+01 -0.24610463019E+02  0.34364844699E+02  0.42309303314E+02  0.00000000000E+00 0.  1.
</event>
<event>
 7    1  0.1999542E-015  0.9000705E+02  0.7816164E-02  0.1186340E+00
        -11   -1    0    0    0    0  0.00000000000E+00  0.00000000000E+00  0.45593999997E+02  0.45594000000E+02  0.51100000000E-03 0.  1.
         11   -1    0    0    0    0 -0.00000000000E+00 -0.00000000000E+00 -0.45593999997E+02  0.45594000000E+02  0.51100000000E-03 0. -1.
    9900012    2    1    2    0    0 -0.46961793711E+00  0.15503077773E+00  0.10724111031E+01  0.90007050753E+02  0.89999303021E+02 0.  0.
         12    1    1    2    0    0  0.46961793711E+00 -0.15503077773E+00 -0.10724111031E+01  0.11809492466E+01  0.00000000000E+00 0. -1.
         11    1    3    3    0    0  0.28541871695E+02 -0.22413444230E+02 -0.11557094405E+01  0.36308905061E+02  0.51100000000E-03 0. -1.
        -11    1    3    3    0    0  0.43547841167E+01 -0.75402228296E+01  0.19806726453E+00  0.87096691054E+01  0.51100000000E-03 0.  1.
        -12    1    3    3    0    0 -0.33366273749E+02  0.30108697837E+02  0.20300532791E+01  0.44988476588E+02  0.00000000000E+00 0.  1.
</event>
<event>
 7    1  0.1999542E-015  0.9000771E+02  0.7816164E-02  0.1186339E+00
        -11   -1    0    0    0    0  0.00000000000E+00  0.00000000000E+00  0.45593999997E+02  0.45594000000E+02  0.51100000000E-03 0.  1.
         11   -1    0    0    0    0 -0.00000000000E+00 -0.00000000000E+00 -0.45593999997E+02  0.45594000000E+02  0.51100000000E-03 0. -1.
    9900012    2    1    2    0    0  0.47453036660E+00  0.83760825494E+00  0.68287566698E+00  0.90007709428E+02  0.89999970393E+02 0.  0.
         12    1    1    2    0    0 -0.47453036660E+00 -0.83760825494E+00 -0.68287566698E+00  0.11802905719E+01  0.00000000000E+00 0. -1.
         11    1    3    3    0    0 -0.12389288808E+02 -0.32143916982E+02 -0.16469118939E+02  0.38183213000E+02  0.51100000000E-03 0. -1.
        -11    1    3    3    0    0  0.63436462214E+01 -0.36100042862E+01 -0.47262671954E+01  0.86954919465E+01  0.51100000000E-03 0.  1.
        -12    1    3    3    0    0  0.65201729529E+01  0.36591529523E+02  0.21878261802E+02  0.43129004482E+02  0.00000000000E+00 0.  1.
</event>
<event>
 7    1  0.1999542E-015  0.9000791E+02  0.7816164E-02  0.1186339E+00
        -11   -1    0    0    0    0  0.00000000000E+00  0.00000000000E+00  0.45593999997E+02  0.45594000000E+02  0.51100000000E-03 0.  1.
         11   -1    0    0    0    0 -0.00000000000E+00 -0.00000000000E+00 -0.45593999997E+02  0.45594000000E+02  0.51100000000E-03 0. -1.
    9900012    2    1    2    0    0 -0.30465463862E-01 -0.10091880967E+01  0.61091486186E+00  0.90007912831E+02  0.90000176480E+02 0.  0.
         12    1    1    2    0    0  0.30465463862E-01  0.10091880967E+01 -0.61091486186E+00  0.11800871694E+01  0.00000000000E+00 0. -1.
         11    1    3    3    0    0  0.82143689601E+01  0.30317622955E+01 -0.36347372318E+01  0.94804406561E+01  0.51100000000E-03 0. -1.
        -11    1    3    3    0    0  0.10907891053E+02  0.15579641735E+02  0.34686739267E+02  0.39558528853E+02  0.51100000000E-03 0.  1.
         12    1    3    3    0    0 -0.19152725477E+02 -0.19620592127E+02 -0.30441087173E+02  0.40968943321E+02  0.00000000000E+00 0. -1.
</event>
<event>
 7    1  0.1999542E-015  0.9000772E+02  0.7816164E-02  0.1186339E+00
        -11   -1    0    0    0    0  0.00000000000E+00  0.00000000000E+00  0.45593999997E+02  0.45594000000E+02  0.51100000000E-03 0. -1.
         11   -1    0    0    0    0 -0.00000000000E+00 -0.00000000000E+00 -0.45593999997E+02  0.45594000000E+02  0.51100000000E-03 0.  1.
    9900012    2    1    2    0    0  0.11505190999E+01 -0.27759715362E-01  0.26191578794E+00  0.90007718389E+02  0.89999979472E+02 0.  0.
         12    1    1    2    0    0 -0.11505190999E+01  0.27759715362E-01 -0.26191578794E+00  0.11802816109E+01  0.00000000000E+00 0. -1.
         11    1    3    3    0    0 -0.13920401760E+02  0.21967795589E+02  0.24027400283E+02  0.35407309878E+02  0.51100000000E-03 0. -1.
        -11    1    3    3    0    0 -0.45994265410E+01  0.72268910217E+01  0.42775925804E+01  0.95749922658E+01  0.51100000000E-03 0.  1.
        -12    1    3    3    0    0  0.19670347401E+02 -0.29222446326E+02 -0.28043077075E+02  0.45025416245E+02  0.00000000000E+00 0.  1.
</event>
<event>
 7    1  0.1999542E-015  0.9000772E+02  0.7816164E-02  0.1186339E+00
        -11   -1    0    0    0    0  0.00000000000E+00  0.00000000000E+00  0.45593999997E+02  0.45594000000E+02  0.51100000000E-03 0.  1.
         11   -1    0    0    0    0 -0.00000000000E+00 -0.00000000000E+00 -0.45593999997E+02  0.45594000000E+02  0.51100000000E-03 0. -1.
    9900012    2    1    2    0    0 -0.10846586148E+01  0.41527655510E+00 -0.21003178428E+00  0.90007723643E+02  0.89999984795E+02 0.  0.
         12    1    1    2    0    0  0.10846586148E+01 -0.41527655510E+00  0.21003178428E+00  0.11802763568E+01  0.00000000000E+00 0. -1.
         11    1    3    3    0    0  0.74548186545E+01 -0.21084692362E+01  0.53531284423E+01  0.94167907523E+01  0.51100000000E-03 0. -1.
        -11    1    3    3    0    0  0.13366286381E+02  0.12410519682E+02  0.31510543438E+02  0.36408693445E+02  0.51100000000E-03 0.  1.
         12    1    3    3    0    0 -0.21905763650E+02 -0.98867738905E+01 -0.37073703664E+02  0.44182239446E+02  0.00000000000E+00 0. -1.
</event>
<event>
 7    1  0.1999542E-015  0.9000770E+02  0.7816164E-02  0.1186339E+00
        -11   -1    0    0    0    0  0.00000000000E+00  0.00000000000E+00  0.45593999997E+02  0.45594000000E+02  0.51100000000E-03 0. -1.
         11   -1    0    0    0    0 -0.00000000000E+00 -0.00000000000E+00 -0.45593999997E+02  0.45594000000E+02  0.51100000000E-03 0.  1.
    9900012    2    1    2    0    0 -0.91607930560E+00 -0.45524101116E-01 -0.74285067285E+00  0.90007703063E+02  0.89999963943E+02 0.  0.
         12    1    1    2    0    0  0.91607930560E+00  0.45524101116E-01  0.74285067285E+00  0.11802969372E+01  0.00000000000E+00 0. -1.
         11    1    3    3    0    0  0.15037858824E+01  0.91744689116E+01 -0.70649351221E+01  0.11676710167E+02  0.51100000000E-03 0. -1.
        -11    1    3    3    0    0  0.20468142146E+01  0.34060074671E+02 -0.13575014308E+01  0.34148513078E+02  0.51100000000E-03 0.  1.
         12    1    3    3    0    0 -0.44666794027E+01 -0.43280067684E+02  0.76795858800E+01  0.44182479818E+02  0.00000000000E+00 0. -1.
</event>
<event>
 7    1  0.1999542E-015  0.9000770E+02  0.7816164E-02  0.1186339E+00
        -11   -1    0    0    0    0  0.00000000000E+00  0.00000000000E+00  0.45593999997E+02  0.45594000000E+02  0.51100000000E-03 0.  1.
         11   -1    0    0    0    0 -0.00000000000E+00 -0.00000000000E+00 -0.45593999997E+02  0.45594000000E+02  0.51100000000E-03 0. -1.
    9900012    2    1    2    0    0  0.10664666056E+01  0.37646900802E+00  0.33767355241E+00  0.90007702002E+02  0.89999962869E+02 0.  0.
         12    1    1    2    0    0 -0.10664666056E+01 -0.37646900802E+00 -0.33767355241E+00  0.11802979975E+01  0.00000000000E+00 0. -1.
         11    1    3    3    0    0  0.47772812635E+00  0.76082438816E+01  0.47306112700E+01  0.89717491257E+01  0.51100000000E-03 0. -1.
        -11    1    3    3    0    0 -0.38110850024E+02  0.19555018393E+00 -0.13782356821E+02  0.40526886004E+02  0.51100000000E-03 0.  1.
         12    1    3    3    0    0  0.38699588503E+02 -0.74273250575E+01  0.93894191032E+01  0.40509066873E+02  0.00000000000E+00 0. -1.
</event>
<event>
 7    1  0.1999542E-015  0.9000734E+02  0.7816164E-02  0.1186340E+00
        -11   -1    0    0    0    0  0.00000000000E+00  0.00000000000E+00  0.45593999997E+02  0.45594000000E+02  0.51100000000E-03 0.  1.
         11   -1    0    0    0    0 -0.00000000000E+00 -0.00000000000E+00 -0.45593999997E+02  0.45594000000E+02  0.51100000000E-03 0. -1.
    9900012    2    1    2    0    0 -0.80828140761E+00  0.85682245986E+00 -0.80566501050E-01  0.90007341488E+02  0.89999597594E+02 0.  0.
         12    1    1    2    0    0  0.80828140761E+00 -0.85682245986E+00  0.80566501050E-01  0.11806585123E+01  0.00000000000E+00 0. -1.
         11    1    3    3    0    0  0.32235329388E+02 -0.19483359353E+02 -0.42515216699E+01  0.37905054930E+02  0.51100000000E-03 0. -1.
        -11    1    3    3    0    0  0.25172630034E+00 -0.42881356901E+01  0.94235131524E+01  0.10356354292E+02  0.51100000000E-03 0.  1.
        -12    1    3    3    0    0 -0.33295337096E+02  0.24628317503E+02 -0.52525579836E+01  0.41745932266E+02  0.00000000000E+00 0.  1.
</event>
<event>
 7    1  0.1999542E-015  0.9000769E+02  0.7816164E-02  0.1186339E+00
        -11   -1    0    0    0    0  0.00000000000E+00  0.00000000000E+00  0.45593999997E+02  0.45594000000E+02  0.51100000000E-03 0. -1.
         11   -1    0    0    0    0 -0.00000000000E+00 -0.00000000000E+00 -0.45593999997E+02  0.45594000000E+02  0.51100000000E-03 0.  1.
    9900012    2    1    2    0    0 -0.13248299944E+00  0.10713094678E+01 -0.47736357149E+00  0.90007689998E+02  0.89999950706E+02 0.  0.
         12    1    1    2    0    0  0.13248299944E+00 -0.10713094678E+01  0.47736357149E+00  0.11803100017E+01  0.00000000000E+00 0. -1.
         11    1    3    3    0    0 -0.23892948753E+01 -0.67338939491E+01  0.91840359902E+01  0.11636175276E+02  0.51100000000E-03 0. -1.
        -11    1    3    3    0    0 -0.23890125083E+02 -0.22994305835E+02  0.82630875639E+01  0.34172427389E+02  0.51100000000E-03 0.  1.
         12    1    3    3    0    0  0.26146936959E+02  0.30799509251E+02 -0.17924487126E+02  0.44199087334E+02  0.00000000000E+00 0. -1.
</event>
<event>
 7    1  0.1999542E-015  0.9000777E+02  0.7816164E-02  0.1186339E+00
        -11   -1    0    0    0    0  0.00000000000E+00  0.00000000000E+00  0.45593999997E+02  0.45594000000E+02  0.51100000000E-03 0.  1.
         11   -1    0    0    0    0 -0.00000000000E+00 -0.00000000000E+00 -0.45593999997E+02  0.45594000000E+02  0.51100000000E-03 0. -1.
    9900012    2    1    2    0    0 -0.64917872545E+00  0.86706882239E+00  0.46872058967E+00  0.90007771060E+02  0.90000032838E+02 0.  0.
         12    1    1    2    0    0  0.64917872545E+00 -0.86706882239E+00 -0.46872058967E+00  0.11802289403E+01  0.00000000000E+00 0. -1.
         11    1    3    3    0    0  0.26121835356E+01  0.97382225932E+01  0.23978970435E+01  0.10363705543E+02  0.51100000000E-03 0. -1.
        -11    1    3    3    0    0  0.24306460124E+02  0.83198212520E+01  0.26182368046E+02  0.36681600649E+02  0.51100000000E-03 0.  1.
         12    1    3    3    0    0 -0.27567822385E+02 -0.17190975023E+02 -0.28111544500E+02  0.42962464867E+02  0.00000000000E+00 0. -1.
</event>
<event>
 7    1  0.1999542E-015  0.9000774E+02  0.7816164E-02  0.1186339E+00
        -11   -1    0    0    0    0  0.00000000000E+00  0.00000000000E+00  0.45593999997E+02  0.45594000000E+02  0.51100000000E-03 0. -1.
         11   -1    0    0    0    0 -0.00000000000E+00 -0.00000000000E+00 -0.45593999997E+02  0.45594000000E+02  0.51100000000E-03 0.  1.
    9900012    2    1    2    0    0 -0.19978139420E+00 -0.11468560268E+00 -0.11575628286E+01  0.90007738548E+02  0.89999999897E+02 0.  0.
         12    1    1    2    0    0  0.19978139420E+00  0.11468560268E+00  0.11575628286E+01  0.11802614520E+01  0.00000000000E+00 0. -1.
         11    1    3    3    0    0 -0.99894407370E+01  0.61735501671E+01 -0.21475044769E+02  0.24476094378E+02  0.51100000000E-03 0. -1.
        -11    1    3    3    0    0  0.32740869126E+02  0.99049069595E+01  0.10652462709E+02  0.35826619364E+02  0.51100000000E-03 0.  1.
         12    1    3    3    0    0 -0.22951209784E+02 -0.16193142729E+02  0.96650192319E+01  0.29705024806E+02  0.00000000000E+00 0. -1.
</event>
<event>
 7    1  0.1999542E-015  0.9000774E+02  0.7816164E-02  0.1186339E+00
        -11   -1    0    0    0    0  0.00000000000E+00  0.00000000000E+00  0.45593999997E+02  0.45594000000E+02  0.51100000000E-03 0.  1.
         11   -1    0    0    0    0 -0.00000000000E+00 -0.00000000000E+00 -0.45593999997E+02  0.45594000000E+02  0.51100000000E-03 0. -1.
    9900012    2    1    2    0    0 -0.38327677102E+00 -0.14579622602E+00  0.11067321108E+01  0.90007740034E+02  0.90000001402E+02 0.  0.
         12    1    1    2    0    0  0.38327677102E+00  0.14579622602E+00 -0.11067321108E+01  0.11802599662E+01  0.00000000000E+00 0. -1.
         11    1    3    3    0    0  0.18620904708E+00  0.11106667998E+02 -0.12558732685E+01  0.11178996635E+02  0.51100000000E-03 0. -1.
        -11    1    3    3    0    0 -0.10567618458E+02  0.40415428041E+01  0.37529687160E+02  0.39198036261E+02  0.51100000000E-03 0.  1.
         12    1    3    3    0    0  0.99981326398E+01 -0.15294007028E+02 -0.35167081781E+02  0.39630707138E+02  0.00000000000E+00 0. -1.
</event>
<event>
 7    1  0.1999542E-015  0.9000774E+02  0.7816164E-02  0.1186339E+00
        -11   -1    0    0    0    0  0.00000000000E+00  0.00000000000E+00  0.45593999997E+02  0.45594000000E+02  0.51100000000E-03 0.  1.
         11   -1    0    0    0    0 -0.00000000000E+00 -0.00000000000E+00 -0.45593999997E+02  0.45594000000E+02  0.51100000000E-03 0. -1.
    9900012    2    1    2    0    0  0.60985773095E+00  0.97162884233E+00  0.27751742256E+00  0.90007743681E+02  0.90000005097E+02 0.  0.
         12    1    1    2    0    0 -0.60985773095E+00 -0.97162884233E+00 -0.27751742256E+00  0.11802563192E+01  0.00000000000E+00 0. -1.
         11    1    3    3    0    0 -0.23045941159E+02 -0.29724558956E+01  0.17095556544E+02  0.28848032026E+02  0.51100000000E-03 0. -1.
        -11    1    3    3    0    0  0.91143105706E-01  0.13669774794E+02  0.15061929118E+02  0.20340421800E+02  0.51100000000E-03 0.  1.
        -12    1    3    3    0    0  0.23564655784E+02 -0.97256900559E+01 -0.31879968240E+02  0.40819289855E+02  0.00000000000E+00 0.  1.
</event>
<event>
 7    1  0.1999542E-015  0.9000772E+02  0.7816164E-02  0.1186339E+00
        -11   -1    0    0    0    0  0.00000000000E+00  0.00000000000E+00  0.45593999997E+02  0.45594000000E+02  0.51100000000E-03 0. -1.
         11   -1    0    0    0    0 -0.00000000000E+00 -0.00000000000E+00 -0.45593999997E+02  0.45594000000E+02  0.51100000000E-03 0.  1.
    9900012    2    1    2    0    0 -0.82552081665E+00  0.10551961038E-01 -0.84348900955E+00  0.90007716275E+02  0.89999977330E+02 0.  0.
         12    1    1    2    0    0  0.82552081665E+00 -0.10551961038E-01  0.84348900955E+00  0.11802837251E+01  0.00000000000E+00 0. -1.
         11    1    3    3    0    0 -0.33026748705E+02 -0.39117694339E+01 -0.19934090709E+02  0.38774167209E+02  0.51100000000E-03 0. -1.
        -11    1    3    3    0    0 -0.47224347413E+01 -0.72074264950E+01  0.11260921293E+01  0.86900213068E+01  0.51100000000E-03 0.  1.
        -12    1    3    3    0    0  0.36923662629E+02  0.11129747890E+02  0.17964509570E+02  0.42543527759E+02  0.00000000000E+00 0.  1.
</event>
<event>
 7    1  0.1999542E-015  0.9000781E+02  0.7816164E-02  0.1186339E+00
        -11   -1    0    0    0    0  0.00000000000E+00  0.00000000000E+00  0.45593999997E+02  0.45594000000E+02  0.51100000000E-03 0.  1.
         11   -1    0    0    0    0 -0.00000000000E+00 -0.00000000000E+00 -0.45593999997E+02  0.45594000000E+02  0.51100000000E-03 0. -1.
    9900012    2    1    2    0    0  0.41422117037E+00  0.92397237244E+00 -0.60625221448E+00  0.90007811087E+02  0.90000073393E+02 0.  0.
         12    1    1    2    0    0 -0.41422117037E+00 -0.92397237244E+00  0.60625221448E+00  0.11801889131E+01  0.00000000000E+00 0. -1.
         11    1    3    3    0    0 -0.85711166769E+01 -0.60028209642E+01  0.16214067572E+02  0.19297509894E+02  0.51100000000E-03 0. -1.
        -11    1    3    3    0    0  0.12290785617E+02 -0.28357583220E+02  0.12468658165E+01  0.30931708840E+02  0.51100000000E-03 0.  1.
        -12    1    3    3    0    0 -0.33054477693E+01  0.35284376557E+02 -0.18067185603E+02  0.39778592353E+02  0.00000000000E+00 0.  1.
</event>
<event>
 7    1  0.1999542E-015  0.9000781E+02  0.7816164E-02  0.1186339E+00
        -11   -1    0    0    0    0  0.00000000000E+00  0.00000000000E+00  0.45593999997E+02  0.45594000000E+02  0.51100000000E-03 0.  1.
         11   -1    0    0    0    0 -0.00000000000E+00 -0.00000000000E+00 -0.45593999997E+02  0.45594000000E+02  0.51100000000E-03 0. -1.
    9900012    2    1    2    0    0 -0.10817719166E+01 -0.44861272357E+00  0.14615090479E+00  0.90007811904E+02  0.90000074221E+02 0.  0.
         12    1    1    2    0    0  0.10817719166E+01  0.44861272357E+00 -0.14615090479E+00  0.11801880961E+01  0.00000000000E+00 0. -1.
         11    1    3    3    0    0  0.38822448592E+01  0.91365387165E+01  0.10367206162E+01  0.99811299341E+01  0.51100000000E-03 0. -1.
        -11    1    3    3    0    0  0.92613185432E+01  0.33073897039E+02 -0.56478508300E+01  0.34807368555E+02  0.51100000000E-03 0.  1.
         12    1    3    3    0    0 -0.14225335319E+02 -0.42659048479E+02  0.47572811186E+01  0.45219313415E+02  0.00000000000E+00 0. -1.
</event>
<event>
 7    1  0.1999542E-015  0.9000776E+02  0.7816164E-02  0.1186339E+00
        -11   -1    0    0    0    0  0.00000000000E+00  0.00000000000E+00  0.45593999997E+02  0.45594000000E+02  0.51100000000E-03 0.  1.
         11   -1    0    0    0    0 -0.00000000000E+00 -0.00000000000E+00 -0.45593999997E+02  0.45594000000E+02  0.51100000000E-03 0. -1.
    9900012    2    1    2    0    0 -0.11452715639E+01 -0.37812811465E-01  0.28262756582E+00  0.90007764810E+02  0.90000026505E+02 0.  0.
         12    1    1    2    0    0  0.11452715639E+01  0.37812811465E-01 -0.28262756582E+00  0.11802351904E+01  0.00000000000E+00 0. -1.
         11    1    3    3    0    0 -0.13721115508E+01 -0.10385762322E+02 -0.35796080128E+02  0.37297534797E+02  0.51100000000E-03 0. -1.
        -11    1    3    3    0    0  0.23266171510E+01  0.79674627134E+01 -0.61701119014E+01  0.10342334871E+02  0.51100000000E-03 0.  1.
        -12    1    3    3    0    0 -0.20997771640E+01  0.23804867972E+01  0.42248819595E+02  0.42367895141E+02  0.00000000000E+00 0.  1.
</event>
<event>
 7    1  0.1999542E-015  0.9000785E+02  0.7816164E-02  0.1186339E+00
        -11   -1    0    0    0    0  0.00000000000E+00  0.00000000000E+00  0.45593999997E+02  0.45594000000E+02  0.51100000000E-03 0. -1.
         11   -1    0    0    0    0 -0.00000000000E+00 -0.00000000000E+00 -0.45593999997E+02  0.45594000000E+02  0.51100000000E-03 0.  1.
    9900012    2    1    2    0    0  0.54264866795E+00 -0.90781565059E+00  0.52359044250E+00  0.90007854338E+02  0.90000117215E+02 0.  0.
         12    1    1    2    0    0 -0.54264866795E+00  0.90781565059E+00 -0.52359044250E+00  0.11801456621E+01  0.00000000000E+00 0. -1.
         11    1    3    3    0    0  0.20413810997E+02  0.30870708093E+02  0.15301926289E+02  0.40048386309E+02  0.51100000000E-03 0. -1.
        -11    1    3    3    0    0  0.30067649386E+01 -0.77301731979E+01  0.64953269264E+01  0.10534964889E+02  0.51100000000E-03 0.  1.
        -12    1    3    3    0    0 -0.22877927268E+02 -0.24048350545E+02 -0.21273662773E+02  0.39424503140E+02  0.00000000000E+00 0.  1.
</event>
<event>
 7    1  0.1999542E-015  0.9000712E+02  0.7816164E-02  0.1186340E+00
        -11   -1    0    0    0    0  0.00000000000E+00  0.00000000000E+00  0.45593999997E+02  0.45594000000E+02  0.51100000000E-03 0. -1.
         11   -1    0    0    0    0 -0.00000000000E+00 -0.00000000000E+00 -0.45593999997E+02  0.45594000000E+02  0.51100000000E-03 0.  1.
    9900012    2    1    2    0    0  0.33850435477E-01  0.46448342050E+00 -0.10851633884E+01  0.90007123089E+02  0.89999376311E+02 0.  0.
         12    1    1    2    0    0 -0.33850435477E-01 -0.46448342050E+00  0.10851633884E+01  0.11808769112E+01  0.00000000000E+00 0. -1.
         11    1    3    3    0    0  0.46904551788E+01 -0.25477089028E+01  0.67233982555E+01  0.85845952032E+01  0.51100000000E-03 0. -1.
        -11    1    3    3    0    0 -0.10535248281E+02 -0.23184765584E+02 -0.34951013704E+02  0.43244631698E+02  0.51100000000E-03 0.  1.
         12    1    3    3    0    0  0.58786435381E+01  0.26196957907E+02  0.27142452060E+02  0.38177896187E+02  0.00000000000E+00 0. -1.
</event>
<event>
 7    1  0.1999542E-015  0.9000782E+02  0.7816164E-02  0.1186339E+00
        -11   -1    0    0    0    0  0.00000000000E+00  0.00000000000E+00  0.45593999997E+02  0.45594000000E+02  0.51100000000E-03 0. -1.
         11   -1    0    0    0    0 -0.00000000000E+00 -0.00000000000E+00 -0.45593999997E+02  0.45594000000E+02  0.51100000000E-03 0.  1.
    9900012    2    1    2    0    0 -0.82821961491E+00  0.77308241831E+00 -0.33048196605E+00  0.90007820994E+02  0.90000083431E+02 0.  0.
         12    1    1    2    0    0  0.82821961491E+00 -0.77308241831E+00  0.33048196605E+00  0.11801790059E+01  0.00000000000E+00 0. -1.
         11    1    3    3    0    0 -0.34152644883E+02 -0.18767914760E+02  0.13828934349E+02  0.41350661451E+02  0.51100000000E-03 0. -1.
        -11    1    3    3    0    0  0.28888738957E+01 -0.35626646451E+01  0.42404645960E+01  0.62465760229E+01  0.51100000000E-03 0.  1.
        -12    1    3    3    0    0  0.30435551373E+02  0.23103661823E+02 -0.18399880911E+02  0.42410583520E+02  0.00000000000E+00 0.  1.
</event>
<event>
 7    1  0.1999542E-015  0.9000789E+02  0.7816164E-02  0.1186339E+00
        -11   -1    0    0    0    0  0.00000000000E+00  0.00000000000E+00  0.45593999997E+02  0.45594000000E+02  0.51100000000E-03 0.  1.
         11   -1    0    0    0    0 -0.00000000000E+00 -0.00000000000E+00 -0.45593999997E+02  0.45594000000E+02  0.51100000000E-03 0. -1.
    9900012    2    1    2    0    0 -0.10474755023E+01 -0.49686646528E+00  0.22039136271E+00  0.90007892562E+02  0.90000155944E+02 0.  0.
         12    1    1    2    0    0  0.10474755023E+01  0.49686646528E+00 -0.22039136271E+00  0.11801074379E+01  0.00000000000E+00 0. -1.
         11    1    3    3    0    0  0.19077625867E+02 -0.19671631253E+01 -0.32788361320E+01  0.19457037445E+02  0.51100000000E-03 0. -1.
        -11    1    3    3    0    0  0.65013865210E+01 -0.11169773770E+02  0.28889309533E+02  0.31648445117E+02  0.51100000000E-03 0.  1.
        -12    1    3    3    0    0 -0.26626487891E+02  0.12640070430E+02 -0.25390082038E+02  0.38902410000E+02  0.00000000000E+00 0.  1.
</event>
<event>
 7    1  0.1999542E-015  0.9000776E+02  0.7816164E-02  0.1186339E+00
        -11   -1    0    0    0    0  0.00000000000E+00  0.00000000000E+00  0.45593999997E+02  0.45594000000E+02  0.51100000000E-03 0.  1.
         11   -1    0    0    0    0 -0.00000000000E+00 -0.00000000000E+00 -0.45593999997E+02  0.45594000000E+02  0.51100000000E-03 0. -1.
    9900012    2    1    2    0    0 -0.99492643710E+00 -0.60393000844E+00 -0.19582872311E+00  0.90007763177E+02  0.90000024851E+02 0.  0.
         12    1    1    2    0    0  0.99492643710E+00  0.60393000844E+00  0.19582872311E+00  0.11802368233E+01  0.00000000000E+00 0. -1.
         11    1    3    3    0    0  0.78848088989E+01 -0.25826248998E+00 -0.44177396013E+01  0.90417550472E+01  0.51100000000E-03 0. -1.
        -11    1    3    3    0    0  0.35830336876E+02 -0.26268040803E+01 -0.65863472892E+00  0.35932533174E+02  0.51100000000E-03 0.  1.
         12    1    3    3    0    0 -0.44710072212E+02  0.22811365618E+01  0.48805456071E+01  0.45033474956E+02  0.00000000000E+00 0. -1.
</event>
<event>
 7    1  0.1999542E-015  0.9000769E+02  0.7816164E-02  0.1186339E+00
        -11   -1    0    0    0    0  0.00000000000E+00  0.00000000000E+00  0.45593999997E+02  0.45594000000E+02  0.51100000000E-03 0. -1.
         11   -1    0    0    0    0 -0.00000000000E+00 -0.00000000000E+00 -0.45593999997E+02  0.45594000000E+02  0.51100000000E-03 0.  1.
    9900012    2    1    2    0    0 -0.58337769510E+00 -0.99092011644E+00 -0.26624838006E+00  0.90007686308E+02  0.89999946967E+02 0.  0.
         12    1    1    2    0    0  0.58337769510E+00  0.99092011644E+00  0.26624838006E+00  0.11803136923E+01  0.00000000000E+00 0. -1.
         11    1    3    3    0    0 -0.62190919605E+01  0.59224452099E+01  0.51636032281E+01  0.10020741521E+02  0.51100000000E-03 0. -1.
        -11    1    3    3    0    0  0.17731723639E+02  0.32597980990E+02  0.48010499741E+01  0.37417809516E+02  0.51100000000E-03 0.  1.
         12    1    3    3    0    0 -0.12096009373E+02 -0.39511346317E+02 -0.10230901582E+02  0.42569135271E+02  0.00000000000E+00 0. -1.
</event>
<event>
 7    1  0.1999542E-015  0.9000759E+02  0.7816164E-02  0.1186339E+00
        -11   -1    0    0    0    0  0.00000000000E+00  0.00000000000E+00  0.45593999997E+02  0.45594000000E+02  0.51100000000E-03 0. -1.
         11   -1    0    0    0    0 -0.00000000000E+00 -0.00000000000E+00 -0.45593999997E+02  0.45594000000E+02  0.51100000000E-03 0.  1.
    9900012    2    1    2    0    0 -0.98058592579E+00 -0.64384629149E+00 -0.13146473085E+00  0.90007589148E+02  0.89999848524E+02 0.  0.
         12    1    1    2    0    0  0.98058592579E+00  0.64384629149E+00  0.13146473085E+00  0.11804108524E+01  0.00000000000E+00 0. -1.
         11    1    3    3    0    0  0.36004587951E+02  0.84399009336E+01  0.67546399320E+01  0.37592385428E+02  0.51100000000E-03 0. -1.
        -11    1    3    3    0    0  0.54687417252E+01 -0.40958252844E+00 -0.72402665704E+01  0.90827503641E+01  0.51100000000E-03 0.  1.
        -12    1    3    3    0    0 -0.42453915602E+02 -0.86741646966E+01  0.35416190752E+00  0.43332453355E+02  0.00000000000E+00 0.  1.
</event>
<event>
 7    1  0.2137234E-015  0.9000772E+02  0.7816164E-02  0.1186339E+00
        -11   -1    0    0    0    0  0.00000000000E+00  0.00000000000E+00  0.45593999997E+02  0.45594000000E+02  0.51100000000E-03 0.  1.
         11   -1    0    0    0    0 -0.00000000000E+00 -0.00000000000E+00 -0.45593999997E+02  0.45594000000E+02  0.51100000000E-03 0. -1.
    9900012    2    1    2    0    0  0.92873888298E+00 -0.11667294639E+00  0.71894710919E+00  0.90007723153E+02  0.89999984299E+02 0.  0.
         12    1    1    2    0    0 -0.92873888298E+00  0.11667294639E+00 -0.71894710919E+00  0.11802768468E+01  0.00000000000E+00 0. -1.
         11    1    3    3    0    0  0.23046454054E+02  0.20654259000E+02 -0.22505250376E+02  0.38265176781E+02  0.51100000000E-03 0. -1.
        -11    1    3    3    0    0  0.83337298828E+01  0.14721634071E+01  0.53389831833E+01  0.10006151136E+02  0.51100000000E-03 0.  1.
        -12    1    3    3    0    0 -0.30451445054E+02 -0.22243095354E+02  0.17885214302E+02  0.41736395237E+02  0.00000000000E+00 0.  1.
</event>
<event>
 7    1  0.1999542E-015  0.9000777E+02  0.7816164E-02  0.1186339E+00
        -11   -1    0    0    0    0  0.00000000000E+00  0.00000000000E+00  0.45593999997E+02  0.45594000000E+02  0.51100000000E-03 0.  1.
         11   -1    0    0    0    0 -0.00000000000E+00 -0.00000000000E+00 -0.45593999997E+02  0.45594000000E+02  0.51100000000E-03 0. -1.
    9900012    2    1    2    0    0 -0.61307879358E-01 -0.14716779713E+00  0.11694089394E+01  0.90007773630E+02  0.90000035442E+02 0.  0.
         12    1    1    2    0    0  0.61307879358E-01  0.14716779713E+00 -0.11694089394E+01  0.11802263699E+01  0.00000000000E+00 0. -1.
         11    1    3    3    0    0 -0.13193115104E+02  0.24021024257E+02 -0.66653915260E+01  0.28204526888E+02  0.51100000000E-03 0. -1.
        -11    1    3    3    0    0  0.25243716669E+02  0.83102480794E+01  0.19923545515E+01  0.26650983684E+02  0.51100000000E-03 0.  1.
         12    1    3    3    0    0 -0.12111909444E+02 -0.32478440133E+02  0.58424459140E+01  0.35152263059E+02  0.00000000000E+00 0. -1.
</event>
<event>
 7    1  0.1999542E-015  0.9000769E+02  0.7816164E-02  0.1186339E+00
        -11   -1    0    0    0    0  0.00000000000E+00  0.00000000000E+00  0.45593999997E+02  0.45594000000E+02  0.51100000000E-03 0. -1.
         11   -1    0    0    0    0 -0.00000000000E+00 -0.00000000000E+00 -0.45593999997E+02  0.45594000000E+02  0.51100000000E-03 0.  1.
    9900012    2    1    2    0    0 -0.94126975695E+00 -0.60178983997E+00 -0.38078434277E+00  0.90007687972E+02  0.89999948654E+02 0.  0.
         12    1    1    2    0    0  0.94126975695E+00  0.60178983997E+00  0.38078434277E+00  0.11803120276E+01  0.00000000000E+00 0. -1.
         11    1    3    3    0    0 -0.40090074526E+02 -0.72931936109E+01 -0.21348646946E+01  0.40803950741E+02  0.51100000000E-03 0. -1.
        -11    1    3    3    0    0  0.14566554249E+00  0.97263507973E+01 -0.19040423362E+01  0.99120379217E+01  0.51100000000E-03 0.  1.
        -12    1    3    3    0    0  0.39003139227E+02 -0.30349470263E+01  0.36581226881E+01  0.39291699309E+02  0.00000000000E+00 0.  1.
</event>
<event>
 7    1  0.1999542E-015  0.9000769E+02  0.7816164E-02  0.1186339E+00
        -11   -1    0    0    0    0  0.00000000000E+00  0.00000000000E+00  0.45593999997E+02  0.45594000000E+02  0.51100000000E-03 0.  1.
         11   -1    0    0    0    0 -0.00000000000E+00 -0.00000000000E+00 -0.45593999997E+02  0.45594000000E+02  0.51100000000E-03 0. -1.
    9900012    2    1    2    0    0  0.11774800165E+01  0.76932598803E-01 -0.27268056778E-01  0.90007694378E+02  0.89999955144E+02 0.  0.
         12    1    1    2    0    0 -0.11774800165E+01 -0.76932598803E-01  0.27268056778E-01  0.11803056219E+01  0.00000000000E+00 0. -1.
         11    1    3    3    0    0 -0.87728042085E+01  0.12751930090E+02 -0.62671499142E+01  0.16698831786E+02  0.51100000000E-03 0. -1.
        -11    1    3    3    0    0  0.40289765797E+02 -0.16784859887E+01  0.74872585677E+01  0.41013919397E+02  0.51100000000E-03 0.  1.
         12    1    3    3    0    0 -0.30339481572E+02 -0.10996511503E+02 -0.12473767103E+01  0.32294943195E+02  0.00000000000E+00 0. -1.
</event>
<event>
 7    1  0.1999542E-015  0.9000772E+02  0.7816164E-02  0.1186339E+00
        -11   -1    0    0    0    0  0.00000000000E+00  0.00000000000E+00  0.45593999997E+02  0.45594000000E+02  0.51100000000E-03 0. -1.
         11   -1    0    0    0    0 -0.00000000000E+00 -0.00000000000E+00 -0.45593999997E+02  0.45594000000E+02  0.51100000000E-03 0.  1.
    9900012    2    1    2    0    0 -0.10892785511E+01 -0.13425361777E+00 -0.43418305902E+00  0.90007717523E+02  0.89999978595E+02 0.  0.
         12    1    1    2    0    0  0.10892785511E+01  0.13425361777E+00  0.43418305902E+00  0.11802824765E+01  0.00000000000E+00 0. -1.
         11    1    3    3    0    0 -0.36785867394E+02 -0.21252849413E+02 -0.79667720983E+00  0.42491391398E+02  0.51100000000E-03 0. -1.
        -11    1    3    3    0    0  0.55543914252E+00  0.88622197654E+01  0.47008009161E+01  0.10047137967E+02  0.51100000000E-03 0.  1.
        -12    1    3    3    0    0  0.35141149701E+02  0.12256376030E+02 -0.43383067653E+01  0.37469188158E+02  0.00000000000E+00 0.  1.
</event>
<event>
 7    1  0.1999542E-015  0.9000775E+02  0.7816164E-02  0.1186339E+00
        -11   -1    0    0    0    0  0.00000000000E+00  0.00000000000E+00  0.45593999997E+02  0.45594000000E+02  0.51100000000E-03 0.  1.
         11   -1    0    0    0    0 -0.00000000000E+00 -0.00000000000E+00 -0.45593999997E+02  0.45594000000E+02  0.51100000000E-03 0. -1.
    9900012    2    1    2    0    0  0.42860473194E+00 -0.10262792584E+01  0.39501400952E+00  0.90007751213E+02  0.90000012729E+02 0.  0.
         12    1    1    2    0    0 -0.42860473194E+00  0.10262792584E+01 -0.39501400952E+00  0.11802487874E+01  0.00000000000E+00 0. -1.
         11    1    3    3    0    0 -0.17092800852E+02  0.35222593819E+02  0.19252354260E+01  0.39198233225E+02  0.51100000000E-03 0. -1.
        -11    1    3    3    0    0  0.38271187243E+01  0.46829308955E+01 -0.45109034022E+01  0.75448611165E+01  0.51100000000E-03 0.  1.
        -12    1    3    3    0    0  0.13694286860E+02 -0.40931803973E+02  0.29806819858E+01  0.43264656871E+02  0.00000000000E+00 0.  1.
</event>
<event>
 7    1  0.2973302E-015  0.9000764E+02  0.7816164E-02  0.1186339E+00
        -11   -1    0    0    0    0  0.00000000000E+00  0.00000000000E+00  0.45593999997E+02  0.45594000000E+02  0.51100000000E-03 0. -1.
         11   -1    0    0    0    0 -0.00000000000E+00 -0.00000000000E+00 -0.45593999997E+02  0.45594000000E+02  0.51100000000E-03 0.  1.
    9900012    2    1    2    0    0 -0.62746800447E+00  0.99138717473E+00 -0.12917857870E+00  0.90007639152E+02  0.89999899189E+02 0.  0.
         12    1    1    2    0    0  0.62746800447E+00 -0.99138717473E+00  0.12917857870E+00  0.11803608482E+01  0.00000000000E+00 0. -1.
         11    1    3    3    0    0  0.26210922249E+02 -0.24402322018E+02 -0.19615384158E+01  0.35865490353E+02  0.51100000000E-03 0. -1.
        -11    1    3    3    0    0  0.57552321306E+01 -0.43180474532E+01 -0.59753704540E+01  0.93527152747E+01  0.51100000000E-03 0.  1.
        -12    1    3    3    0    0 -0.32593622384E+02  0.29711756646E+02  0.78077302912E+01  0.44789433524E+02  0.00000000000E+00 0.  1.
</event>
<event>
 7    1  0.1999542E-015  0.9000771E+02  0.7816164E-02  0.1186339E+00
        -11   -1    0    0    0    0  0.00000000000E+00  0.00000000000E+00  0.45593999997E+02  0.45594000000E+02  0.51100000000E-03 0.  1.
         11   -1    0    0    0    0 -0.00000000000E+00 -0.00000000000E+00 -0.45593999997E+02  0.45594000000E+02  0.51100000000E-03 0. -1.
    9900012    2    1    2    0    0 -0.74136772082E+00 -0.55325854883E+00 -0.73305240582E+00  0.90007708956E+02  0.89999969914E+02 0.  0.
         12    1    1    2    0    0  0.74136772082E+00  0.55325854883E+00  0.73305240582E+00  0.11802910442E+01  0.00000000000E+00 0. -1.
         11    1    3    3    0    0 -0.11372521332E+02 -0.35715305107E+02 -0.22412604375E+02  0.43671982958E+02  0.51100000000E-03 0. -1.
        -11    1    3    3    0    0  0.73103681795E+01  0.38047868530E+01  0.31543524972E+00  0.82472653391E+01  0.51100000000E-03 0.  1.
        -12    1    3    3    0    0  0.33207854315E+01  0.31357259705E+02  0.21364116720E+02  0.38088460659E+02  0.00000000000E+00 0.  1.
</event>
<event>
 7    1  0.1999542E-015  0.9000784E+02  0.7816164E-02  0.1186339E+00
        -11   -1    0    0    0    0  0.00000000000E+00  0.00000000000E+00  0.45593999997E+02  0.45594000000E+02  0.51100000000E-03 0. -1.
         11   -1    0    0    0    0 -0.00000000000E+00 -0.00000000000E+00 -0.45593999997E+02  0.45594000000E+02  0.51100000000E-03 0.  1.
    9900012    2    1    2    0    0  0.10833420304E+01  0.76024177610E-02 -0.46807738427E+00  0.90007837219E+02  0.90000099870E+02 0.  0.
         12    1    1    2    0    0 -0.10833420304E+01 -0.76024177610E-02  0.46807738427E+00  0.11801627808E+01  0.00000000000E+00 0. -1.
         11    1    3    3    0    0  0.15321273809E+02  0.11506886183E+02  0.32895328369E+02  0.38069048971E+02  0.51100000000E-03 0. -1.
        -11    1    3    3    0    0  0.85857787975E+01  0.25377860423E+01  0.24507251390E+00  0.89563394506E+01  0.51100000000E-03 0.  1.
        -12    1    3    3    0    0 -0.22823710577E+02 -0.14037069807E+02 -0.33608478267E+02  0.42982448798E+02  0.00000000000E+00 0.  1.
</event>
<event>
 7    1  0.1999542E-015  0.9000762E+02  0.7816164E-02  0.1186339E+00
        -11   -1    0    0    0    0  0.00000000000E+00  0.00000000000E+00  0.45593999997E+02  0.45594000000E+02  0.51100000000E-03 0.  1.
         11   -1    0    0    0    0 -0.00000000000E+00 -0.00000000000E+00 -0.45593999997E+02  0.45594000000E+02  0.51100000000E-03 0. -1.
    9900012    2    1    2    0    0 -0.10818490853E+01  0.22515003415E+00 -0.41496428584E+00  0.90007624916E+02  0.89999884764E+02 0.  0.
         12    1    1    2    0    0  0.10818490853E+01 -0.22515003415E+00  0.41496428584E+00  0.11803750844E+01  0.00000000000E+00 0. -1.
         11    1    3    3    0    0 -0.24730575423E+02  0.14021903744E+02 -0.21327494359E+02  0.35539796866E+02  0.51100000000E-03 0. -1.
        -11    1    3    3    0    0  0.53984701577E+01  0.13093390697E+02 -0.25428038505E+01  0.14389100447E+02  0.51100000000E-03 0.  1.
        -12    1    3    3    0    0  0.18250256180E+02 -0.26890144406E+02  0.23455333924E+02  0.40078727603E+02  0.00000000000E+00 0.  1.
</event>
<event>
 7    1  0.1999542E-015  0.9000790E+02  0.7816164E-02  0.1186339E+00
        -11   -1    0    0    0    0  0.00000000000E+00  0.00000000000E+00  0.45593999997E+02  0.45594000000E+02  0.51100000000E-03 0.  1.
         11   -1    0    0    0    0 -0.00000000000E+00 -0.00000000000E+00 -0.45593999997E+02  0.45594000000E+02  0.51100000000E-03 0. -1.
    9900012    2    1    2    0    0 -0.46540740760E+00  0.78437673654E+00  0.74885210011E+00  0.90007902382E+02  0.90000165893E+02 0.  0.
         12    1    1    2    0    0  0.46540740760E+00 -0.78437673654E+00 -0.74885210011E+00  0.11800976179E+01  0.00000000000E+00 0. -1.
         11    1    3    3    0    0 -0.24333530208E+02 -0.28078680658E+02 -0.31177853029E+01  0.37286104454E+02  0.51100000000E-03 0. -1.
        -11    1    3    3    0    0 -0.78702510478E+01  0.20763991590E+01 -0.59056277851E+01  0.10056277881E+02  0.51100000000E-03 0.  1.
        -12    1    3    3    0    0  0.31738373848E+02  0.26786658236E+02  0.97722651881E+01  0.42665520047E+02  0.00000000000E+00 0.  1.
</event>
<event>
 7    1  0.2004408E-015  0.9000782E+02  0.7816164E-02  0.1186339E+00
        -11   -1    0    0    0    0  0.00000000000E+00  0.00000000000E+00  0.45593999997E+02  0.45594000000E+02  0.51100000000E-03 0. -1.
         11   -1    0    0    0    0 -0.00000000000E+00 -0.00000000000E+00 -0.45593999997E+02  0.45594000000E+02  0.51100000000E-03 0.  1.
    9900012    2    1    2    0    0 -0.54218751040E+00 -0.86767180874E+00 -0.58821391912E+00  0.90007823200E+02  0.90000085666E+02 0.  0.
         12    1    1    2    0    0  0.54218751040E+00  0.86767180874E+00  0.58821391912E+00  0.11801767998E+01  0.00000000000E+00 0. -1.
         11    1    3    3    0    0 -0.32809364480E+02  0.18596275374E+02 -0.85081354881E+01  0.38660887536E+02  0.51100000000E-03 0. -1.
        -11    1    3    3    0    0  0.25927277065E+01  0.91491324863E+01  0.15908514139E+01  0.96415595571E+01  0.51100000000E-03 0.  1.
        -12    1    3    3    0    0  0.29674449263E+02 -0.28613079669E+02  0.63290701551E+01  0.41705376107E+02  0.00000000000E+00 0.  1.
</event>
<event>
 7    1  0.2246968E-015  0.9000780E+02  0.7816164E-02  0.1186339E+00
        -11   -1    0    0    0    0  0.00000000000E+00  0.00000000000E+00  0.45593999997E+02  0.45594000000E+02  0.51100000000E-03 0. -1.
         11   -1    0    0    0    0 -0.00000000000E+00 -0.00000000000E+00 -0.45593999997E+02  0.45594000000E+02  0.51100000000E-03 0.  1.
    9900012    2    1    2    0    0 -0.10570355393E+01 -0.42508783565E+00 -0.30798825485E+00  0.90007796389E+02  0.90000058501E+02 0.  0.
         12    1    1    2    0    0  0.10570355393E+01  0.42508783565E+00  0.30798825485E+00  0.11802036115E+01  0.00000000000E+00 0. -1.
         11    1    3    3    0    0  0.80872567275E+01  0.35022340401E+02  0.50601061413E+01  0.36298384578E+02  0.51100000000E-03 0. -1.
        -11    1    3    3    0    0 -0.26282999846E+00  0.78724749602E+01 -0.52900128201E+01  0.94883706455E+01  0.51100000000E-03 0.  1.
        -12    1    3    3    0    0 -0.88814622683E+01 -0.43319903197E+02 -0.78081576061E-01  0.44221041165E+02  0.00000000000E+00 0.  1.
</event>
<event>
 7    1  0.1999542E-015  0.9000776E+02  0.7816164E-02  0.1186339E+00
        -11   -1    0    0    0    0  0.00000000000E+00  0.00000000000E+00  0.45593999997E+02  0.45594000000E+02  0.51100000000E-03 0.  1.
         11   -1    0    0    0    0 -0.00000000000E+00 -0.00000000000E+00 -0.45593999997E+02  0.45594000000E+02  0.51100000000E-03 0. -1.
    9900012    2    1    2    0    0  0.79569333417E+00 -0.26310882720E+00  0.83102998935E+00  0.90007760626E+02  0.90000022266E+02 0.  0.
         12    1    1    2    0    0 -0.79569333417E+00  0.26310882720E+00 -0.83102998935E+00  0.11802393741E+01  0.00000000000E+00 0. -1.
         11    1    3    3    0    0 -0.19513452494E+01 -0.12265501537E+02 -0.12041824361E+01  0.12477993903E+02  0.51100000000E-03 0. -1.
        -11    1    3    3    0    0  0.30414532610E+02 -0.15041070295E+02  0.14476393124E+02  0.36889613005E+02  0.51100000000E-03 0.  1.
         12    1    3    3    0    0 -0.27667494027E+02  0.27043463005E+02 -0.12441180699E+02  0.40640153718E+02  0.00000000000E+00 0. -1.
</event>
<event>
 7    1  0.1999542E-015  0.9000765E+02  0.7816164E-02  0.1186339E+00
        -11   -1    0    0    0    0  0.00000000000E+00  0.00000000000E+00  0.45593999997E+02  0.45594000000E+02  0.51100000000E-03 0.  1.
         11   -1    0    0    0    0 -0.00000000000E+00 -0.00000000000E+00 -0.45593999997E+02  0.45594000000E+02  0.51100000000E-03 0. -1.
    9900012    2    1    2    0    0 -0.99116244335E+00  0.64037572916E+00  0.27142416284E-01  0.90007652265E+02  0.89999912475E+02 0.  0.
         12    1    1    2    0    0  0.99116244335E+00 -0.64037572916E+00 -0.27142416284E-01  0.11803477345E+01  0.00000000000E+00 0. -1.
         11    1    3    3    0    0  0.11063329571E+02  0.16308439989E+02 -0.37774882885E+02  0.42606387470E+02  0.51100000000E-03 0. -1.
        -11    1    3    3    0    0 -0.73719488280E+01  0.45526186142E+00  0.16897059493E+01  0.75768066718E+01  0.51100000000E-03 0.  1.
        -12    1    3    3    0    0 -0.46825431861E+01 -0.16123326121E+02  0.36112319352E+02  0.39824458124E+02  0.00000000000E+00 0.  1.
</event>
<event>
 7    1  0.1999542E-015  0.9000771E+02  0.7816164E-02  0.1186339E+00
        -11   -1    0    0    0    0  0.00000000000E+00  0.00000000000E+00  0.45593999997E+02  0.45594000000E+02  0.51100000000E-03 0.  1.
         11   -1    0    0    0    0 -0.00000000000E+00 -0.00000000000E+00 -0.45593999997E+02  0.45594000000E+02  0.51100000000E-03 0. -1.
    9900012    2    1    2    0    0 -0.17085668263E-02  0.97919727552E+00  0.65897885802E+00  0.90007710477E+02  0.89999971455E+02 0.  0.
         12    1    1    2    0    0  0.17085668263E-02 -0.97919727552E+00 -0.65897885802E+00  0.11802895233E+01  0.00000000000E+00 0. -1.
         11    1    3    3    0    0 -0.48535466568E+01 -0.77795986475E+01  0.22456685959E+01  0.94404500936E+01  0.51100000000E-03 0. -1.
        -11    1    3    3    0    0  0.12357676214E+02 -0.23767751788E+02  0.25948135524E+02  0.37295092491E+02  0.51100000000E-03 0.  1.
         12    1    3    3    0    0 -0.75058381245E+01  0.32526547711E+02 -0.27534825262E+02  0.43272167892E+02  0.00000000000E+00 0. -1.
</event>
<event>
 7    1  0.1999542E-015  0.9000777E+02  0.7816164E-02  0.1186339E+00
        -11   -1    0    0    0    0  0.00000000000E+00  0.00000000000E+00  0.45593999997E+02  0.45594000000E+02  0.51100000000E-03 0.  1.
         11   -1    0    0    0    0 -0.00000000000E+00 -0.00000000000E+00 -0.45593999997E+02  0.45594000000E+02  0.51100000000E-03 0. -1.
    9900012    2    1    2    0    0  0.43162093371E-01 -0.11430282026E+01 -0.29080444401E+00  0.90007769657E+02  0.90000031416E+02 0.  0.
         12    1    1    2    0    0 -0.43162093371E-01  0.11430282026E+01  0.29080444401E+00  0.11802303432E+01  0.00000000000E+00 0. -1.
         11    1    3    3    0    0 -0.67469826736E+01 -0.69773019098E+01 -0.34017656270E+00  0.97118606608E+01  0.51100000000E-03 0. -1.
        -11    1    3    3    0    0  0.30643827559E+02 -0.26158013600E+02  0.20245900769E+01  0.40340857802E+02  0.51100000000E-03 0.  1.
         12    1    3    3    0    0 -0.23853682792E+02  0.31992287308E+02 -0.19752179582E+01  0.39955051194E+02  0.00000000000E+00 0. -1.
</event>
<event>
 7    1  0.1999542E-015  0.9000775E+02  0.7816164E-02  0.1186339E+00
        -11   -1    0    0    0    0  0.00000000000E+00  0.00000000000E+00  0.45593999997E+02  0.45594000000E+02  0.51100000000E-03 0. -1.
         11   -1    0    0    0    0 -0.00000000000E+00 -0.00000000000E+00 -0.45593999997E+02  0.45594000000E+02  0.51100000000E-03 0.  1.
    9900012    2    1    2    0    0  0.54317474394E+00 -0.10455429028E+01  0.69261824236E-01  0.90007747500E+02  0.90000008967E+02 0.  0.
         12    1    1    2    0    0 -0.54317474394E+00  0.10455429028E+01 -0.69261824236E-01  0.11802525002E+01  0.00000000000E+00 0. -1.
         11    1    3    3    0    0 -0.12780812397E+02  0.30726507714E+02 -0.16012785892E+02  0.36930702053E+02  0.51100000000E-03 0. -1.
        -11    1    3    3    0    0  0.36939579451E+01  0.52831253373E+01 -0.60614157076E+01  0.88485874168E+01  0.51100000000E-03 0.  1.
        -12    1    3    3    0    0  0.96300291959E+01 -0.37055175954E+02  0.22143463424E+02  0.44228458030E+02  0.00000000000E+00 0.  1.
</event>
<event>
 7    1  0.1999542E-015  0.9000778E+02  0.7816164E-02  0.1186339E+00
        -11   -1    0    0    0    0  0.00000000000E+00  0.00000000000E+00  0.45593999997E+02  0.45594000000E+02  0.51100000000E-03 0.  1.
         11   -1    0    0    0    0 -0.00000000000E+00 -0.00000000000E+00 -0.45593999997E+02  0.45594000000E+02  0.51100000000E-03 0. -1.
    9900012    2    1    2    0    0  0.27646909474E+00 -0.65336909059E+00  0.94317662619E+00  0.90007784563E+02  0.90000046520E+02 0.  0.
         12    1    1    2    0    0 -0.27646909474E+00  0.65336909059E+00 -0.94317662619E+00  0.11802154367E+01  0.00000000000E+00 0. -1.
         11    1    3    3    0    0 -0.11701627712E+02 -0.11891328129E+02 -0.35019072028E+02  0.38790039724E+02  0.51100000000E-03 0. -1.
        -11    1    3    3    0    0 -0.11078958692E+02  0.21671335778E+01  0.78779474789E+01  0.13765967107E+02  0.51100000000E-03 0.  1.
        -12    1    3    3    0    0  0.23057055499E+02  0.90708254605E+01  0.28084301176E+02  0.37451777733E+02  0.00000000000E+00 0.  1.
</event>
<event>
 7    1  0.1999542E-015  0.9000767E+02  0.7816164E-02  0.1186339E+00
        -11   -1    0    0    0    0  0.00000000000E+00  0.00000000000E+00  0.45593999997E+02  0.45594000000E+02  0.51100000000E-03 0.  1.
         11   -1    0    0    0    0 -0.00000000000E+00 -0.00000000000E+00 -0.45593999997E+02  0.45594000000E+02  0.51100000000E-03 0. -1.
    9900012    2    1    2    0    0 -0.10731229186E+01 -0.44144827444E+00  0.21611367666E+00  0.90007671868E+02  0.89999932337E+02 0.  0.
         12    1    1    2    0    0  0.10731229186E+01  0.44144827444E+00 -0.21611367666E+00  0.11803281318E+01  0.00000000000E+00 0. -1.
         11    1    3    3    0    0 -0.38181120790E+01  0.19941745011E+01 -0.24777843351E+01  0.49693185911E+01  0.51100000000E-03 0. -1.
        -11    1    3    3    0    0  0.43225204350E+01  0.41140050794E+02  0.28177422158E+00  0.41367467402E+02  0.51100000000E-03 0.  1.
         12    1    3    3    0    0 -0.15775312746E+01 -0.43575673570E+02  0.24121237901E+01  0.43670885875E+02  0.00000000000E+00 0. -1.
</event>
<event>
 7    1  0.1999542E-015  0.9000754E+02  0.7816164E-02  0.1186339E+00
        -11   -1    0    0    0    0  0.00000000000E+00  0.00000000000E+00  0.45593999997E+02  0.45594000000E+02  0.51100000000E-03 0. -1.
         11   -1    0    0    0    0 -0.00000000000E+00 -0.00000000000E+00 -0.45593999997E+02  0.45594000000E+02  0.51100000000E-03 0.  1.
    9900012    2    1    2    0    0 -0.38805891388E+00 -0.12481519278E+00 -0.11078399930E+01  0.90007543307E+02  0.89999802079E+02 0.  0.
         12    1    1    2    0    0  0.38805891388E+00  0.12481519278E+00  0.11078399930E+01  0.11804566926E+01  0.00000000000E+00 0. -1.
         11    1    3    3    0    0 -0.10137433769E+02 -0.33113354974E+02  0.76567315402E+01  0.35466708040E+02  0.51100000000E-03 0. -1.
        -11    1    3    3    0    0 -0.43758976576E+01 -0.78266708274E+01 -0.68927474407E+01  0.11309961277E+02  0.51100000000E-03 0.  1.
        -12    1    3    3    0    0  0.14125272513E+02  0.40815210608E+02 -0.18718240926E+01  0.43230873991E+02  0.00000000000E+00 0.  1.
</event>
<event>
 7    1  0.1999542E-015  0.9000763E+02  0.7816164E-02  0.1186339E+00
        -11   -1    0    0    0    0  0.00000000000E+00  0.00000000000E+00  0.45593999997E+02  0.45594000000E+02  0.51100000000E-03 0.  1.
         11   -1    0    0    0    0 -0.00000000000E+00 -0.00000000000E+00 -0.45593999997E+02  0.45594000000E+02  0.51100000000E-03 0. -1.
    9900012    2    1    2    0    0  0.10296172210E+01  0.24425105041E+00  0.52297849969E+00  0.90007628572E+02  0.89999888469E+02 0.  0.
         12    1    1    2    0    0 -0.10296172210E+01 -0.24425105041E+00 -0.52297849969E+00  0.11803714282E+01  0.00000000000E+00 0. -1.
         11    1    3    3    0    0 -0.69113274531E+01  0.56222192583E+01  0.15580569532E+02  0.17947978821E+02  0.51100000000E-03 0. -1.
        -11    1    3    3    0    0 -0.17699170533E+01 -0.11328256838E+02  0.26550823760E+02  0.28920723573E+02  0.51100000000E-03 0.  1.
         12    1    3    3    0    0  0.97108617274E+01  0.59502886302E+01 -0.41608414792E+02  0.43138926178E+02  0.00000000000E+00 0. -1.
</event>
<event>
 7    1  0.1999542E-015  0.9000781E+02  0.7816164E-02  0.1186339E+00
        -11   -1    0    0    0    0  0.00000000000E+00  0.00000000000E+00  0.45593999997E+02  0.45594000000E+02  0.51100000000E-03 0.  1.
         11   -1    0    0    0    0 -0.00000000000E+00 -0.00000000000E+00 -0.45593999997E+02  0.45594000000E+02  0.51100000000E-03 0. -1.
    9900012    2    1    2    0    0  0.11056478340E+00  0.21872788218E+00  0.11544622442E+01  0.90007809536E+02  0.90000071822E+02 0.  0.
         12    1    1    2    0    0 -0.11056478340E+00 -0.21872788218E+00 -0.11544622442E+01  0.11801904639E+01  0.00000000000E+00 0. -1.
         11    1    3    3    0    0  0.12224036683E+02  0.55155085857E+01 -0.19798877779E+02  0.23913248825E+02  0.51100000000E-03 0. -1.
        -11    1    3    3    0    0 -0.13097616992E+02 -0.32596668390E+02  0.89223240259E+01  0.36244975200E+02  0.51100000000E-03 0.  1.
         12    1    3    3    0    0  0.98414509244E+00  0.27299887686E+02  0.12031015997E+02  0.29849585511E+02  0.00000000000E+00 0. -1.
</event>
<event>
 7    1  0.1999542E-015  0.9000760E+02  0.7816164E-02  0.1186339E+00
        -11   -1    0    0    0    0  0.00000000000E+00  0.00000000000E+00  0.45593999997E+02  0.45594000000E+02  0.51100000000E-03 0. -1.
         11   -1    0    0    0    0 -0.00000000000E+00 -0.00000000000E+00 -0.45593999997E+02  0.45594000000E+02  0.51100000000E-03 0.  1.
    9900012    2    1    2    0    0  0.77335017330E+00  0.22986080937E+00 -0.86164325457E+00  0.90007603634E+02  0.89999863202E+02 0.  0.
         12    1    1    2    0    0 -0.77335017330E+00 -0.22986080937E+00  0.86164325457E+00  0.11803963658E+01  0.00000000000E+00 0. -1.
         11    1    3    3    0    0 -0.11633387416E+02 -0.31749945683E+02 -0.24379753172E+01  0.33901894897E+02  0.51100000000E-03 0. -1.
        -11    1    3    3    0    0 -0.56680776242E+01 -0.53213064319E+01 -0.10377564491E+02  0.12966774893E+02  0.51100000000E-03 0.  1.
        -12    1    3    3    0    0  0.18074815214E+02  0.37301112925E+02  0.11953896554E+02  0.43138933845E+02  0.00000000000E+00 0.  1.
</event>
<event>
 7    1  0.1999542E-015  0.9000778E+02  0.7816164E-02  0.1186339E+00
        -11   -1    0    0    0    0  0.00000000000E+00  0.00000000000E+00  0.45593999997E+02  0.45594000000E+02  0.51100000000E-03 0. -1.
         11   -1    0    0    0    0 -0.00000000000E+00 -0.00000000000E+00 -0.45593999997E+02  0.45594000000E+02  0.51100000000E-03 0.  1.
    9900012    2    1    2    0    0  0.78015045876E+00 -0.50752004077E+00  0.72575157470E+00  0.90007776852E+02  0.90000038707E+02 0.  0.
         12    1    1    2    0    0 -0.78015045876E+00  0.50752004077E+00 -0.72575157470E+00  0.11802231477E+01  0.00000000000E+00 0. -1.
         11    1    3    3    0    0  0.63481726200E+01 -0.17693765601E+02  0.31145679368E+02  0.36378867221E+02  0.51100000000E-03 0. -1.
        -11    1    3    3    0    0 -0.21371036417E+01 -0.81055257031E+01  0.51582523929E+01  0.98424756494E+01  0.51100000000E-03 0.  1.
        -12    1    3    3    0    0 -0.34309185196E+01  0.25291771263E+02 -0.35578180186E+02  0.43786433982E+02  0.00000000000E+00 0.  1.
</event>
<event>
 7    1  0.1999542E-015  0.9000774E+02  0.7816164E-02  0.1186339E+00
        -11   -1    0    0    0    0  0.00000000000E+00  0.00000000000E+00  0.45593999997E+02  0.45594000000E+02  0.51100000000E-03 0.  1.
         11   -1    0    0    0    0 -0.00000000000E+00 -0.00000000000E+00 -0.45593999997E+02  0.45594000000E+02  0.51100000000E-03 0. -1.
    9900012    2    1    2    0    0 -0.59147948204E+00  0.10185002766E+01  0.76329500794E-01  0.90007738595E+02  0.89999999945E+02 0.  0.
         12    1    1    2    0    0  0.59147948204E+00 -0.10185002766E+01 -0.76329500794E-01  0.11802614048E+01  0.00000000000E+00 0. -1.
         11    1    3    3    0    0  0.21832531296E+02  0.16966804871E+02 -0.24979247452E+02  0.37262510568E+02  0.51100000000E-03 0. -1.
        -11    1    3    3    0    0  0.25430447700E+01 -0.70618588751E+00 -0.81065045387E+01  0.85253264634E+01  0.51100000000E-03 0.  1.
        -12    1    3    3    0    0 -0.24967055548E+02 -0.15242118707E+02  0.33162081492E+02  0.44219901563E+02  0.00000000000E+00 0.  1.
</event>
<event>
 7    1  0.1999542E-015  0.9000780E+02  0.7816164E-02  0.1186339E+00
        -11   -1    0    0    0    0  0.00000000000E+00  0.00000000000E+00  0.45593999997E+02  0.45594000000E+02  0.51100000000E-03 0. -1.
         11   -1    0    0    0    0 -0.00000000000E+00 -0.00000000000E+00 -0.45593999997E+02  0.45594000000E+02  0.51100000000E-03 0.  1.
    9900012    2    1    2    0    0  0.49313712079E+00  0.10672969277E+01 -0.10283362155E+00  0.90007795905E+02  0.90000058011E+02 0.  0.
         12    1    1    2    0    0 -0.49313712079E+00 -0.10672969277E+01  0.10283362155E+00  0.11802040948E+01  0.00000000000E+00 0. -1.
         11    1    3    3    0    0  0.61531624276E+01  0.13671493416E+02  0.42622383059E+01  0.15586462579E+02  0.51100000000E-03 0. -1.
        -11    1    3    3    0    0 -0.38401539651E+02 -0.11339219170E+02 -0.97629903288E+01  0.41213737023E+02  0.51100000000E-03 0.  1.
         12    1    3    3    0    0  0.32741514344E+02 -0.12649773187E+01  0.53979184013E+01  0.33207596303E+02  0.00000000000E+00 0. -1.
</event>
<event>
 7    1  0.1999542E-015  0.9000777E+02  0.7816164E-02  0.1186339E+00
        -11   -1    0    0    0    0  0.00000000000E+00  0.00000000000E+00  0.45593999997E+02  0.45594000000E+02  0.51100000000E-03 0.  1.
         11   -1    0    0    0    0 -0.00000000000E+00 -0.00000000000E+00 -0.45593999997E+02  0.45594000000E+02  0.51100000000E-03 0. -1.
    9900012    2    1    2    0    0  0.33315780550E+00 -0.43832387871E+00  0.10439420093E+01  0.90007772537E+02  0.90000034334E+02 0.  0.
         12    1    1    2    0    0 -0.33315780550E+00  0.43832387871E+00 -0.10439420093E+01  0.11802274631E+01  0.00000000000E+00 0. -1.
         11    1    3    3    0    0 -0.42953063458E+01 -0.30449092216E+01  0.69645209854E+01  0.87307320191E+01  0.51100000000E-03 0. -1.
        -11    1    3    3    0    0 -0.23442275223E+02 -0.29970559620E+02 -0.21843013148E+01  0.38112279964E+02  0.51100000000E-03 0.  1.
         12    1    3    3    0    0  0.28070739374E+02  0.32577144963E+02 -0.37362776614E+01  0.43164760554E+02  0.00000000000E+00 0. -1.
</event>
<event>
 7    1  0.1999542E-015  0.9000765E+02  0.7816164E-02  0.1186339E+00
        -11   -1    0    0    0    0  0.00000000000E+00  0.00000000000E+00  0.45593999997E+02  0.45594000000E+02  0.51100000000E-03 0. -1.
         11   -1    0    0    0    0 -0.00000000000E+00 -0.00000000000E+00 -0.45593999997E+02  0.45594000000E+02  0.51100000000E-03 0.  1.
    9900012    2    1    2    0    0 -0.17099071777E+00 -0.86338080989E+00 -0.78648599418E+00  0.90007650701E+02  0.89999910890E+02 0.  0.
         12    1    1    2    0    0  0.17099071777E+00  0.86338080989E+00  0.78648599418E+00  0.11803492989E+01  0.00000000000E+00 0. -1.
         11    1    3    3    0    0 -0.45155261612E+01 -0.90499419127E+01  0.42862763061E+00  0.10123000891E+02  0.51100000000E-03 0. -1.
        -11    1    3    3    0    0 -0.31160182698E+02  0.21371080122E+02 -0.13413617360E+02  0.40094952080E+02  0.51100000000E-03 0.  1.
         12    1    3    3    0    0  0.35504718141E+02 -0.13184519019E+02  0.12198503735E+02  0.39789697730E+02  0.00000000000E+00 0. -1.
</event>
<event>
 7    1  0.1999542E-015  0.9000783E+02  0.7816164E-02  0.1186339E+00
        -11   -1    0    0    0    0  0.00000000000E+00  0.00000000000E+00  0.45593999997E+02  0.45594000000E+02  0.51100000000E-03 0.  1.
         11   -1    0    0    0    0 -0.00000000000E+00 -0.00000000000E+00 -0.45593999997E+02  0.45594000000E+02  0.51100000000E-03 0. -1.
    9900012    2    1    2    0    0 -0.17626305479E+00  0.78678000813E+00  0.86180802160E+00  0.90007828609E+02  0.90000091147E+02 0.  0.
         12    1    1    2    0    0  0.17626305479E+00 -0.78678000813E+00 -0.86180802160E+00  0.11801713908E+01  0.00000000000E+00 0. -1.
         11    1    3    3    0    0  0.59711631188E+01 -0.62545089177E+01  0.48975987702E+00  0.86610354918E+01  0.51100000000E-03 0. -1.
        -11    1    3    3    0    0 -0.15010007241E+02 -0.27148715449E+02  0.23682191767E+02  0.39028185649E+02  0.51100000000E-03 0.  1.
         12    1    3    3    0    0  0.88625810679E+01  0.34190004375E+02 -0.23310143622E+02  0.42318607468E+02  0.00000000000E+00 0. -1.
</event>
<event>
 7    1  0.1999542E-015  0.9000775E+02  0.7816164E-02  0.1186339E+00
        -11   -1    0    0    0    0  0.00000000000E+00  0.00000000000E+00  0.45593999997E+02  0.45594000000E+02  0.51100000000E-03 0.  1.
         11   -1    0    0    0    0 -0.00000000000E+00 -0.00000000000E+00 -0.45593999997E+02  0.45594000000E+02  0.51100000000E-03 0. -1.
    9900012    2    1    2    0    0 -0.72339711155E+00  0.23303644613E+00  0.90297975479E+00  0.90007753499E+02  0.90000015045E+02 0.  0.
         12    1    1    2    0    0  0.72339711155E+00 -0.23303644613E+00 -0.90297975479E+00  0.11802465013E+01  0.00000000000E+00 0. -1.
         11    1    3    3    0    0 -0.33869654859E+01 -0.12358217279E+02  0.47403527531E+01  0.13662650329E+02  0.51100000000E-03 0. -1.
        -11    1    3    3    0    0  0.41424096599E+01  0.29211488061E+02  0.27825110885E+02  0.40554992153E+02  0.51100000000E-03 0.  1.
         12    1    3    3    0    0 -0.14788412855E+01 -0.16620234335E+02 -0.31662483884E+02  0.35790111017E+02  0.00000000000E+00 0. -1.
</event>
<event>
 7    1  0.1999542E-015  0.9000861E+02  0.7816164E-02  0.1186337E+00
        -11   -1    0    0    0    0  0.00000000000E+00  0.00000000000E+00  0.45593999997E+02  0.45594000000E+02  0.51100000000E-03 0.  1.
         11   -1    0    0    0    0 -0.00000000000E+00 -0.00000000000E+00 -0.45593999997E+02  0.45594000000E+02  0.51100000000E-03 0. -1.
    9900012    2    1    2    0    0  0.12851911430E+00 -0.83849912738E+00  0.81936504006E+00  0.90008611591E+02  0.90000884460E+02 0.  0.
         12    1    1    2    0    0 -0.12851911430E+00  0.83849912738E+00 -0.81936504006E+00  0.11793884086E+01  0.00000000000E+00 0. -1.
         11    1    3    3    0    0 -0.46745747065E+01  0.80068443858E+01  0.50194026462E+00  0.92851036610E+01  0.51100000000E-03 0. -1.
        -11    1    3    3    0    0 -0.26792222478E+02 -0.22215939374E+02  0.21013659735E+02  0.40656426839E+02  0.51100000000E-03 0.  1.
         12    1    3    3    0    0  0.31595316299E+02  0.13370595861E+02 -0.20696234959E+02  0.40067081092E+02  0.00000000000E+00 0. -1.
</event>
<event>
 7    1  0.1999542E-015  0.9000784E+02  0.7816164E-02  0.1186339E+00
        -11   -1    0    0    0    0  0.00000000000E+00  0.00000000000E+00  0.45593999997E+02  0.45594000000E+02  0.51100000000E-03 0.  1.
         11   -1    0    0    0    0 -0.00000000000E+00 -0.00000000000E+00 -0.45593999997E+02  0.45594000000E+02  0.51100000000E-03 0. -1.
    9900012    2    1    2    0    0 -0.19765393929E+00  0.52631669793E+00  0.10376446263E+01  0.90007837843E+02  0.90000100502E+02 0.  0.
         12    1    1    2    0    0  0.19765393929E+00 -0.52631669793E+00 -0.10376446263E+01  0.11801621570E+01  0.00000000000E+00 0. -1.
         11    1    3    3    0    0  0.96881738528E+01  0.37691745073E+02  0.94204513324E+01  0.40040894881E+02  0.51100000000E-03 0. -1.
        -11    1    3    3    0    0  0.68992053611E+00 -0.25295931130E+01  0.93024353194E+01  0.96648918668E+01  0.51100000000E-03 0.  1.
        -12    1    3    3    0    0 -0.10575748328E+02 -0.34635835262E+02 -0.17685242025E+02  0.40302051096E+02  0.00000000000E+00 0.  1.
</event>
<event>
 7    1  0.1999542E-015  0.9000773E+02  0.7816164E-02  0.1186339E+00
        -11   -1    0    0    0    0  0.00000000000E+00  0.00000000000E+00  0.45593999997E+02  0.45594000000E+02  0.51100000000E-03 0. -1.
         11   -1    0    0    0    0 -0.00000000000E+00 -0.00000000000E+00 -0.45593999997E+02  0.45594000000E+02  0.51100000000E-03 0.  1.
    9900012    2    1    2    0    0  0.64402380651E+00 -0.31058178507E+00 -0.93905086138E+00  0.90007727053E+02  0.89999988250E+02 0.  0.
         12    1    1    2    0    0 -0.64402380651E+00  0.31058178507E+00  0.93905086138E+00  0.11802729468E+01  0.00000000000E+00 0. -1.
         11    1    3    3    0    0 -0.37977193378E+02  0.58997090386E+01 -0.12891270795E+02  0.40537126768E+02  0.51100000000E-03 0. -1.
        -11    1    3    3    0    0 -0.37555505356E+00 -0.40952628004E+01  0.94855911059E+01  0.10338697108E+02  0.51100000000E-03 0.  1.
        -12    1    3    3    0    0  0.38996772238E+02 -0.21150280233E+01  0.24666288276E+01  0.39131903178E+02  0.00000000000E+00 0.  1.
</event>
<event>
 7    1  0.1999542E-015  0.9000776E+02  0.7816164E-02  0.1186339E+00
        -11   -1    0    0    0    0  0.00000000000E+00  0.00000000000E+00  0.45593999997E+02  0.45594000000E+02  0.51100000000E-03 0.  1.
         11   -1    0    0    0    0 -0.00000000000E+00 -0.00000000000E+00 -0.45593999997E+02  0.45594000000E+02  0.51100000000E-03 0. -1.
    9900012    2    1    2    0    0 -0.45240237659E+00  0.87143607854E+00  0.65490582266E+00  0.90007758336E+02  0.90000019946E+02 0.  0.
         12    1    1    2    0    0  0.45240237659E+00 -0.87143607854E+00 -0.65490582266E+00  0.11802416642E+01  0.00000000000E+00 0. -1.
         11    1    3    3    0    0 -0.27472760873E+01  0.94259971579E+01 -0.39170187396E+02  0.40381933203E+02  0.51100000000E-03 0. -1.
        -11    1    3    3    0    0 -0.87823809190E+01 -0.53287790441E+01  0.25197082890E+01  0.10577099358E+02  0.51100000000E-03 0.  1.
        -12    1    3    3    0    0  0.11077254630E+02 -0.32257820353E+01  0.37305384930E+02  0.39048725775E+02  0.00000000000E+00 0.  1.
</event>
<event>
 7    1  0.1999542E-015  0.9000772E+02  0.7816164E-02  0.1186339E+00
        -11   -1    0    0    0    0  0.00000000000E+00  0.00000000000E+00  0.45593999997E+02  0.45594000000E+02  0.51100000000E-03 0. -1.
         11   -1    0    0    0    0 -0.00000000000E+00 -0.00000000000E+00 -0.45593999997E+02  0.45594000000E+02  0.51100000000E-03 0.  1.
    9900012    2    1    2    0    0 -0.10410981480E+01 -0.30563853664E+00 -0.46449764859E+00  0.90007721078E+02  0.89999982196E+02 0.  0.
         12    1    1    2    0    0  0.10410981480E+01  0.30563853664E+00  0.46449764859E+00  0.11802789223E+01  0.00000000000E+00 0. -1.
         11    1    3    3    0    0  0.18276028029E+02  0.20556196732E+02  0.21494062079E+02  0.34907952239E+02  0.51100000000E-03 0. -1.
        -11    1    3    3    0    0  0.27577185189E+01  0.18829947096E+01  0.97258696090E+01  0.10283152261E+02  0.51100000000E-03 0.  1.
        -12    1    3    3    0    0 -0.22074844696E+02 -0.22744829978E+02 -0.31684429337E+02  0.44816616578E+02  0.00000000000E+00 0.  1.
</event>
<event>
 7    1  0.1999542E-015  0.9000770E+02  0.7816164E-02  0.1186339E+00
        -11   -1    0    0    0    0  0.00000000000E+00  0.00000000000E+00  0.45593999997E+02  0.45594000000E+02  0.51100000000E-03 0. -1.
         11   -1    0    0    0    0 -0.00000000000E+00 -0.00000000000E+00 -0.45593999997E+02  0.45594000000E+02  0.51100000000E-03 0.  1.
    9900012    2    1    2    0    0  0.95449647831E+00 -0.63449888109E+00 -0.28189520338E+00  0.90007696114E+02  0.89999956903E+02 0.  0.
         12    1    1    2    0    0 -0.95449647831E+00  0.63449888109E+00  0.28189520338E+00  0.11803038858E+01  0.00000000000E+00 0. -1.
         11    1    3    3    0    0  0.87485596238E+01  0.52069090818E+01 -0.48763727890E+01  0.11288410407E+02  0.51100000000E-03 0. -1.
        -11    1    3    3    0    0  0.32097149969E+02 -0.17042880748E+02  0.77738473601E+01  0.37163416465E+02  0.51100000000E-03 0.  1.
         12    1    3    3    0    0 -0.39891213115E+02  0.11201472785E+02 -0.31793697746E+01  0.41555869242E+02  0.00000000000E+00 0. -1.
</event>
<event>
 7    1  0.1999542E-015  0.9000759E+02  0.7816164E-02  0.1186339E+00
        -11   -1    0    0    0    0  0.00000000000E+00  0.00000000000E+00  0.45593999997E+02  0.45594000000E+02  0.51100000000E-03 0.  1.
         11   -1    0    0    0    0 -0.00000000000E+00 -0.00000000000E+00 -0.45593999997E+02  0.45594000000E+02  0.51100000000E-03 0. -1.
    9900012    2    1    2    0    0 -0.98601897382E+00  0.64734688853E+00 -0.45496583623E-01  0.90007592719E+02  0.89999852142E+02 0.  0.
         12    1    1    2    0    0  0.98601897382E+00 -0.64734688853E+00  0.45496583623E-01  0.11804072814E+01  0.00000000000E+00 0. -1.
         11    1    3    3    0    0  0.34957084872E+02 -0.12519640713E+02  0.16156782557E+02  0.40494207106E+02  0.51100000000E-03 0. -1.
        -11    1    3    3    0    0  0.29258356715E+01  0.23672144706E+01 -0.72826851652E+01  0.81976656557E+01  0.51100000000E-03 0.  1.
        -12    1    3    3    0    0 -0.38868939517E+02  0.10799773131E+02 -0.89195939757E+01  0.41315719957E+02  0.00000000000E+00 0.  1.
</event>
<event>
 7    1  0.2394197E-015  0.9000785E+02  0.7816164E-02  0.1186339E+00
        -11   -1    0    0    0    0  0.00000000000E+00  0.00000000000E+00  0.45593999997E+02  0.45594000000E+02  0.51100000000E-03 0. -1.
         11   -1    0    0    0    0 -0.00000000000E+00 -0.00000000000E+00 -0.45593999997E+02  0.45594000000E+02  0.51100000000E-03 0.  1.
    9900012    2    1    2    0    0  0.62850302864E+00  0.97334282169E+00 -0.22434542571E+00  0.90007854596E+02  0.90000117476E+02 0.  0.
         12    1    1    2    0    0 -0.62850302864E+00 -0.97334282169E+00  0.22434542571E+00  0.11801454044E+01  0.00000000000E+00 0. -1.
         11    1    3    3    0    0 -0.68870448131E+01 -0.14698329078E+02  0.32603587712E+02  0.36420683628E+02  0.51100000000E-03 0. -1.
        -11    1    3    3    0    0 -0.71805512260E+01  0.20971261344E+01  0.62094519726E+01  0.97219107172E+01  0.51100000000E-03 0.  1.
        -12    1    3    3    0    0  0.14696099068E+02  0.13574545766E+02 -0.39037385111E+02  0.43865260250E+02  0.00000000000E+00 0.  1.
</event>
<event>
 7    1  0.1999542E-015  0.9000769E+02  0.7816164E-02  0.1186339E+00
        -11   -1    0    0    0    0  0.00000000000E+00  0.00000000000E+00  0.45593999997E+02  0.45594000000E+02  0.51100000000E-03 0.  1.
         11   -1    0    0    0    0 -0.00000000000E+00 -0.00000000000E+00 -0.45593999997E+02  0.45594000000E+02  0.51100000000E-03 0. -1.
    9900012    2    1    2    0    0 -0.80421879667E+00  0.24932023525E+00 -0.82716524356E+00  0.90007690383E+02  0.89999951096E+02 0.  0.
         12    1    1    2    0    0  0.80421879667E+00 -0.24932023525E+00  0.82716524356E+00  0.11803096173E+01  0.00000000000E+00 0. -1.
         11    1    3    3    0    0  0.40883098279E+01 -0.52345248702E+01  0.62121833095E+01  0.90942701520E+01  0.51100000000E-03 0. -1.
        -11    1    3    3    0    0  0.28897274719E+02  0.52777482876E+01  0.21726543084E+02  0.36536964677E+02  0.51100000000E-03 0.  1.
         12    1    3    3    0    0 -0.33789803343E+02  0.20609681780E+00 -0.28765891637E+02  0.44376455554E+02  0.00000000000E+00 0. -1.
</event>
<event>
 7    1  0.2810220E-015  0.9000790E+02  0.7816164E-02  0.1186339E+00
        -11   -1    0    0    0    0  0.00000000000E+00  0.00000000000E+00  0.45593999997E+02  0.45594000000E+02  0.51100000000E-03 0.  1.
         11   -1    0    0    0    0 -0.00000000000E+00 -0.00000000000E+00 -0.45593999997E+02  0.45594000000E+02  0.51100000000E-03 0. -1.
    9900012    2    1    2    0    0  0.11006513804E+01  0.42353592106E+00 -0.42563787575E-01  0.90007903473E+02  0.90000166998E+02 0.  0.
         12    1    1    2    0    0 -0.11006513804E+01 -0.42353592106E+00  0.42563787575E-01  0.11800965272E+01  0.00000000000E+00 0. -1.
         11    1    3    3    0    0 -0.68661389342E+01 -0.35122818475E+02  0.12957959199E+02  0.38061331405E+02  0.51100000000E-03 0. -1.
        -11    1    3    3    0    0 -0.91144588070E+01 -0.16918910194E+01 -0.14705721643E+01  0.93860767799E+01  0.51100000000E-03 0.  1.
        -12    1    3    3    0    0  0.17081249122E+02  0.37238245415E+02 -0.11529950822E+02  0.42560495288E+02  0.00000000000E+00 0.  1.
</event>
<event>
 7    1  0.1999542E-015  0.9000774E+02  0.7816164E-02  0.1186339E+00
        -11   -1    0    0    0    0  0.00000000000E+00  0.00000000000E+00  0.45593999997E+02  0.45594000000E+02  0.51100000000E-03 0. -1.
         11   -1    0    0    0    0 -0.00000000000E+00 -0.00000000000E+00 -0.45593999997E+02  0.45594000000E+02  0.51100000000E-03 0.  1.
    9900012    2    1    2    0    0 -0.82091101653E+00 -0.66895097043E+00 -0.52117228516E+00  0.90007741194E+02  0.90000002578E+02 0.  0.
         12    1    1    2    0    0  0.82091101653E+00  0.66895097043E+00  0.52117228516E+00  0.11802588058E+01  0.00000000000E+00 0. -1.
         11    1    3    3    0    0 -0.23310953511E+02 -0.24693831589E+02  0.24374293711E+02  0.41800622799E+02  0.51100000000E-03 0. -1.
        -11    1    3    3    0    0 -0.36824686384E+01 -0.20775401727E+01 -0.35627153405E+01  0.55289862815E+01  0.51100000000E-03 0.  1.
        -12    1    3    3    0    0  0.26172511133E+02  0.26102420792E+02 -0.21332750656E+02  0.42678132114E+02  0.00000000000E+00 0.  1.
</event>
<event>
 7    1  0.1999542E-015  0.9000774E+02  0.7816164E-02  0.1186339E+00
        -11   -1    0    0    0    0  0.00000000000E+00  0.00000000000E+00  0.45593999997E+02  0.45594000000E+02  0.51100000000E-03 0.  1.
         11   -1    0    0    0    0 -0.00000000000E+00 -0.00000000000E+00 -0.45593999997E+02  0.45594000000E+02  0.51100000000E-03 0. -1.
    9900012    2    1    2    0    0 -0.92750794578E+00  0.56683529829E+00 -0.45981706006E+00  0.90007743683E+02  0.90000005100E+02 0.  0.
         12    1    1    2    0    0  0.92750794578E+00 -0.56683529829E+00  0.45981706006E+00  0.11802563169E+01  0.00000000000E+00 0. -1.
         11    1    3    3    0    0 -0.28097355410E+02 -0.10860346094E+02 -0.20580389180E+02  0.36482337060E+02  0.51100000000E-03 0. -1.
        -11    1    3    3    0    0 -0.83719633120E+01 -0.46264731218E+01 -0.16323218233E+00  0.95666435206E+01  0.51100000000E-03 0.  1.
        -12    1    3    3    0    0  0.35541810776E+02  0.16053654514E+02  0.20283804303E+02  0.43958763102E+02  0.00000000000E+00 0.  1.
</event>
<event>
 7    1  0.1999542E-015  0.9000772E+02  0.7816164E-02  0.1186339E+00
        -11   -1    0    0    0    0  0.00000000000E+00  0.00000000000E+00  0.45593999997E+02  0.45594000000E+02  0.51100000000E-03 0.  1.
         11   -1    0    0    0    0 -0.00000000000E+00 -0.00000000000E+00 -0.45593999997E+02  0.45594000000E+02  0.51100000000E-03 0. -1.
    9900012    2    1    2    0    0 -0.95595685792E+00 -0.11878749575E+00  0.68198483924E+00  0.90007717278E+02  0.89999978346E+02 0.  0.
         12    1    1    2    0    0  0.95595685792E+00  0.11878749575E+00 -0.68198483924E+00  0.11802827222E+01  0.00000000000E+00 0. -1.
         11    1    3    3    0    0  0.51088809912E+01 -0.68228498738E+01 -0.33746007796E+01  0.91673265495E+01  0.51100000000E-03 0. -1.
        -11    1    3    3    0    0  0.67433282823E+01  0.42310109717E+02  0.36397380760E+01  0.42998436648E+02  0.51100000000E-03 0.  1.
         12    1    3    3    0    0 -0.12808166131E+02 -0.35606047339E+02  0.41684754284E+00  0.37841954081E+02  0.00000000000E+00 0. -1.
</event>
<event>
 7    1  0.1999542E-015  0.9000772E+02  0.7816164E-02  0.1186339E+00
        -11   -1    0    0    0    0  0.00000000000E+00  0.00000000000E+00  0.45593999997E+02  0.45594000000E+02  0.51100000000E-03 0.  1.
         11   -1    0    0    0    0 -0.00000000000E+00 -0.00000000000E+00 -0.45593999997E+02  0.45594000000E+02  0.51100000000E-03 0. -1.
    9900012    2    1    2    0    0  0.32652953039E+00 -0.66370235712E+00  0.91975245049E+00  0.90007717439E+02  0.89999978509E+02 0.  0.
         12    1    1    2    0    0 -0.32652953039E+00  0.66370235712E+00 -0.91975245049E+00  0.11802825608E+01  0.00000000000E+00 0. -1.
         11    1    3    3    0    0 -0.21036884737E+02  0.27528991078E+02 -0.64716292075E+01  0.35245962238E+02  0.51100000000E-03 0. -1.
        -11    1    3    3    0    0 -0.86254196793E+01  0.45465420509E+01  0.26954493667E+01  0.10116044524E+02  0.51100000000E-03 0.  1.
        -12    1    3    3    0    0  0.29988833947E+02 -0.32739235487E+02  0.46959322914E+01  0.44645710677E+02  0.00000000000E+00 0.  1.
</event>
<event>
 7    1  0.1999542E-015  0.9000767E+02  0.7816164E-02  0.1186339E+00
        -11   -1    0    0    0    0  0.00000000000E+00  0.00000000000E+00  0.45593999997E+02  0.45594000000E+02  0.51100000000E-03 0.  1.
         11   -1    0    0    0    0 -0.00000000000E+00 -0.00000000000E+00 -0.45593999997E+02  0.45594000000E+02  0.51100000000E-03 0. -1.
    9900012    2    1    2    0    0 -0.18622541360E+00 -0.95770611375E+00  0.66429940457E+00  0.90007671824E+02  0.89999932292E+02 0.  0.
         12    1    1    2    0    0  0.18622541360E+00  0.95770611375E+00 -0.66429940457E+00  0.11803281764E+01  0.00000000000E+00 0. -1.
         11    1    3    3    0    0 -0.56012460100E+01 -0.30030037757E+02 -0.31607493551E+02  0.43956919516E+02  0.51100000000E-03 0. -1.
        -11    1    3    3    0    0 -0.19532300148E+01  0.87045347200E+01  0.25578769385E+01  0.92804507906E+01  0.51100000000E-03 0.  1.
        -12    1    3    3    0    0  0.73682506112E+01  0.20367796923E+02  0.29713916017E+02  0.36770301517E+02  0.00000000000E+00 0.  1.
</event>
<event>
 7    1  0.1999542E-015  0.9000857E+02  0.7816164E-02  0.1186337E+00
        -11   -1    0    0    0    0  0.00000000000E+00  0.00000000000E+00  0.45593999997E+02  0.45594000000E+02  0.51100000000E-03 0.  1.
         11   -1    0    0    0    0 -0.00000000000E+00 -0.00000000000E+00 -0.45593999997E+02  0.45594000000E+02  0.51100000000E-03 0. -1.
    9900012    2    1    2    0    0 -0.25569720105E+00 -0.10489819528E+01  0.47466917148E+00  0.90008570045E+02  0.90000842366E+02 0.  0.
         12    1    1    2    0    0  0.25569720105E+00  0.10489819528E+01 -0.47466917148E+00  0.11794299548E+01  0.00000000000E+00 0. -1.
         11    1    3    3    0    0 -0.27167785196E+02  0.21482191194E+02  0.70361597013E+01  0.35342334877E+02  0.51100000000E-03 0. -1.
        -11    1    3    3    0    0 -0.60734575283E+01  0.75060333011E+01 -0.94653238437E+00  0.97017187178E+01  0.51100000000E-03 0.  1.
        -12    1    3    3    0    0  0.32985545523E+02 -0.30037206448E+02 -0.56149581454E+01  0.44964516450E+02  0.00000000000E+00 0.  1.
</event>
<event>
 7    1  0.1999542E-015  0.9000784E+02  0.7816164E-02  0.1186339E+00
        -11   -1    0    0    0    0  0.00000000000E+00  0.00000000000E+00  0.45593999997E+02  0.45594000000E+02  0.51100000000E-03 0.  1.
         11   -1    0    0    0    0 -0.00000000000E+00 -0.00000000000E+00 -0.45593999997E+02  0.45594000000E+02  0.51100000000E-03 0. -1.
    9900012    2    1    2    0    0 -0.32511955326E+00  0.11204462052E+01 -0.17799245785E+00  0.90007837410E+02  0.90000100064E+02 0.  0.
         12    1    1    2    0    0  0.32511955326E+00 -0.11204462052E+01  0.17799245785E+00  0.11801625896E+01  0.00000000000E+00 0. -1.
         11    1    3    3    0    0 -0.99730276960E+01  0.57451672870E+01 -0.36235559099E+02  0.38019520934E+02  0.51100000000E-03 0. -1.
        -11    1    3    3    0    0 -0.11374627936E+01  0.11316763086E+02  0.29769005691E+00  0.11377678498E+02  0.51100000000E-03 0.  1.
        -12    1    3    3    0    0  0.10785370936E+02 -0.15941484168E+02  0.35759876584E+02  0.40610637979E+02  0.00000000000E+00 0.  1.
</event>
<event>
 7    1  0.1999542E-015  0.9000772E+02  0.7816164E-02  0.1186339E+00
        -11   -1    0    0    0    0  0.00000000000E+00  0.00000000000E+00  0.45593999997E+02  0.45594000000E+02  0.51100000000E-03 0. -1.
         11   -1    0    0    0    0 -0.00000000000E+00 -0.00000000000E+00 -0.45593999997E+02  0.45594000000E+02  0.51100000000E-03 0.  1.
    9900012    2    1    2    0    0  0.10413454989E+00  0.52768657705E+00 -0.10505982777E+01  0.90007722969E+02  0.89999984112E+02 0.  0.
         12    1    1    2    0    0 -0.10413454989E+00 -0.52768657705E+00  0.10505982777E+01  0.11802770307E+01  0.00000000000E+00 0. -1.
         11    1    3    3    0    0 -0.23139117819E+02 -0.11097695816E+01  0.11520962285E+02  0.25872435799E+02  0.51100000000E-03 0. -1.
        -11    1    3    3    0    0  0.11379499664E+02 -0.25475833287E+02  0.68577634086E+01  0.28732212123E+02  0.51100000000E-03 0.  1.
         12    1    3    3    0    0  0.11863752705E+02  0.27113289445E+02 -0.19429323971E+02  0.35403075047E+02  0.00000000000E+00 0. -1.
</event>
<event>
 7    1  0.1999542E-015  0.9000768E+02  0.7816164E-02  0.1186339E+00
        -11   -1    0    0    0    0  0.00000000000E+00  0.00000000000E+00  0.45593999997E+02  0.45594000000E+02  0.51100000000E-03 0.  1.
         11   -1    0    0    0    0 -0.00000000000E+00 -0.00000000000E+00 -0.45593999997E+02  0.45594000000E+02  0.51100000000E-03 0. -1.
    9900012    2    1    2    0    0  0.10391926723E+01 -0.55966546350E+00  0.44250730362E-02  0.90007675289E+02  0.89999935803E+02 0.  0.
         12    1    1    2    0    0 -0.10391926723E+01  0.55966546350E+00 -0.44250730362E-02  0.11803247106E+01  0.00000000000E+00 0. -1.
         11    1    3    3    0    0  0.82853982394E+01 -0.13381352019E+02 -0.74267919455E+01  0.17403035503E+02  0.51100000000E-03 0. -1.
        -11    1    3    3    0    0 -0.24879645727E+02 -0.20349967649E+02  0.12914005677E+02  0.34639421152E+02  0.51100000000E-03 0.  1.
         12    1    3    3    0    0  0.17633440160E+02  0.33171654204E+02 -0.54827886588E+01  0.37965218635E+02  0.00000000000E+00 0. -1.
</event>
<event>
 7    1  0.1999542E-015  0.9000768E+02  0.7816164E-02  0.1186339E+00
        -11   -1    0    0    0    0  0.00000000000E+00  0.00000000000E+00  0.45593999997E+02  0.45594000000E+02  0.51100000000E-03 0.  1.
         11   -1    0    0    0    0 -0.00000000000E+00 -0.00000000000E+00 -0.45593999997E+02  0.45594000000E+02  0.51100000000E-03 0. -1.
    9900012    2    1    2    0    0 -0.26160789381E+00 -0.11454320220E+01  0.11269969135E+00  0.90007680371E+02  0.89999940951E+02 0.  0.
         12    1    1    2    0    0  0.26160789381E+00  0.11454320220E+01 -0.11269969135E+00  0.11803196294E+01  0.00000000000E+00 0. -1.
         11    1    3    3    0    0 -0.38474511207E+02  0.41633762359E+00  0.16547872592E+02  0.41884286281E+02  0.51100000000E-03 0. -1.
        -11    1    3    3    0    0  0.58835593741E+01  0.73704448752E+01  0.22968800137E+01  0.97064610763E+01  0.51100000000E-03 0.  1.
        -12    1    3    3    0    0  0.32329343939E+02 -0.89322145209E+01 -0.18732052915E+02  0.38416933014E+02  0.00000000000E+00 0.  1.
</event>
<event>
 7    1  0.1999542E-015  0.9000787E+02  0.7816164E-02  0.1186339E+00
        -11   -1    0    0    0    0  0.00000000000E+00  0.00000000000E+00  0.45593999997E+02  0.45594000000E+02  0.51100000000E-03 0.  1.
         11   -1    0    0    0    0 -0.00000000000E+00 -0.00000000000E+00 -0.45593999997E+02  0.45594000000E+02  0.51100000000E-03 0. -1.
    9900012    2    1    2    0    0 -0.53696471213E+00  0.14826744660E+00  0.10403837400E+01  0.90007867523E+02  0.90000130574E+02 0.  0.
         12    1    1    2    0    0  0.53696471213E+00 -0.14826744660E+00 -0.10403837400E+01  0.11801324774E+01  0.00000000000E+00 0. -1.
         11    1    3    3    0    0 -0.76285726699E+01 -0.99594100780E+01 -0.35739036780E+02  0.37876955003E+02  0.51100000000E-03 0. -1.
        -11    1    3    3    0    0  0.90215603703E+01 -0.13561883334E+01 -0.38270456711E+01  0.98931328274E+01  0.51100000000E-03 0.  1.
        -12    1    3    3    0    0 -0.19299524125E+01  0.11463865858E+02  0.40606466192E+02  0.42237779692E+02  0.00000000000E+00 0.  1.
</event>
<event>
 7    1  0.1999542E-015  0.9000773E+02  0.7816164E-02  0.1186339E+00
        -11   -1    0    0    0    0  0.00000000000E+00  0.00000000000E+00  0.45593999997E+02  0.45594000000E+02  0.51100000000E-03 0.  1.
         11   -1    0    0    0    0 -0.00000000000E+00 -0.00000000000E+00 -0.45593999997E+02  0.45594000000E+02  0.51100000000E-03 0. -1.
    9900012    2    1    2    0    0 -0.66848111643E+00 -0.14593800391E+00  0.96169792762E+00  0.90007734010E+02  0.89999995299E+02 0.  0.
         12    1    1    2    0    0  0.66848111643E+00  0.14593800391E+00 -0.96169792762E+00  0.11802659904E+01  0.00000000000E+00 0. -1.
         11    1    3    3    0    0  0.62551279279E+01 -0.10120334897E+02 -0.11231243116E+01  0.11950280846E+02  0.51100000000E-03 0. -1.
        -11    1    3    3    0    0  0.81673267700E+01  0.19811820165E+02  0.34708376771E+02  0.40790744822E+02  0.51100000000E-03 0.  1.
         12    1    3    3    0    0 -0.15090935814E+02 -0.98374232721E+01 -0.32623554531E+02  0.37266708342E+02  0.00000000000E+00 0. -1.
</event>
<event>
 7    1  0.2129946E-015  0.9000771E+02  0.7816164E-02  0.1186339E+00
        -11   -1    0    0    0    0  0.00000000000E+00  0.00000000000E+00  0.45593999997E+02  0.45594000000E+02  0.51100000000E-03 0.  1.
         11   -1    0    0    0    0 -0.00000000000E+00 -0.00000000000E+00 -0.45593999997E+02  0.45594000000E+02  0.51100000000E-03 0. -1.
    9900012    2    1    2    0    0 -0.49115589882E+00 -0.67201176067E+00  0.83681379104E+00  0.90007707136E+02  0.89999968070E+02 0.  0.
         12    1    1    2    0    0  0.49115589882E+00  0.67201176067E+00 -0.83681379104E+00  0.11802928638E+01  0.00000000000E+00 0. -1.
         11    1    3    3    0    0 -0.26680746705E+02 -0.26542308029E+02 -0.17273696504E+02  0.41409382408E+02  0.51100000000E-03 0. -1.
        -11    1    3    3    0    0  0.79580490486E+01 -0.47799451687E+01  0.21604208587E+01  0.95313083584E+01  0.51100000000E-03 0.  1.
        -12    1    3    3    0    0  0.18231541758E+02  0.30650241437E+02  0.15950089437E+02  0.39067016370E+02  0.00000000000E+00 0.  1.
</event>
<event>
 7    1  0.1999542E-015  0.9000778E+02  0.7816164E-02  0.1186339E+00
        -11   -1    0    0    0    0  0.00000000000E+00  0.00000000000E+00  0.45593999997E+02  0.45594000000E+02  0.51100000000E-03 0.  1.
         11   -1    0    0    0    0 -0.00000000000E+00 -0.00000000000E+00 -0.45593999997E+02  0.45594000000E+02  0.51100000000E-03 0. -1.
    9900012    2    1    2    0    0 -0.10315591324E+01 -0.55455217018E+00  0.14582918757E+00  0.90007784551E+02  0.90000046508E+02 0.  0.
         12    1    1    2    0    0  0.10315591324E+01  0.55455217018E+00 -0.14582918757E+00  0.11802154486E+01  0.00000000000E+00 0. -1.
         11    1    3    3    0    0 -0.55331203283E+01  0.95591791897E+01 -0.23077170452E+01  0.11283567059E+02  0.51100000000E-03 0. -1.
        -11    1    3    3    0    0  0.26959473901E+02  0.22873892016E+02  0.12624099598E+02  0.37541924030E+02  0.51100000000E-03 0.  1.
         12    1    3    3    0    0 -0.22457912705E+02 -0.32987623376E+02 -0.10170553366E+02  0.41182293462E+02  0.00000000000E+00 0. -1.
</event>
<event>
 7    1  0.1999542E-015  0.9000777E+02  0.7816164E-02  0.1186339E+00
        -11   -1    0    0    0    0  0.00000000000E+00  0.00000000000E+00  0.45593999997E+02  0.45594000000E+02  0.51100000000E-03 0.  1.
         11   -1    0    0    0    0 -0.00000000000E+00 -0.00000000000E+00 -0.45593999997E+02  0.45594000000E+02  0.51100000000E-03 0. -1.
    9900012    2    1    2    0    0 -0.46314576072E+00 -0.48059525791E+00 -0.97338316991E+00  0.90007766721E+02  0.90000028442E+02 0.  0.
         12    1    1    2    0    0  0.46314576072E+00  0.48059525791E+00  0.97338316991E+00  0.11802332791E+01  0.00000000000E+00 0. -1.
         11    1    3    3    0    0  0.66444473422E+01  0.55671362631E+01  0.42550715359E+01  0.96564652276E+01  0.51100000000E-03 0. -1.
        -11    1    3    3    0    0  0.71455433893E+01  0.32802982396E+02 -0.16575394193E+02  0.37441128953E+02  0.51100000000E-03 0.  1.
         12    1    3    3    0    0 -0.14253136492E+02 -0.38850713917E+02  0.11346939487E+02  0.42910172540E+02  0.00000000000E+00 0. -1.
</event>
<event>
 7    1  0.1999542E-015  0.9000788E+02  0.7816164E-02  0.1186339E+00
        -11   -1    0    0    0    0  0.00000000000E+00  0.00000000000E+00  0.45593999997E+02  0.45594000000E+02  0.51100000000E-03 0.  1.
         11   -1    0    0    0    0 -0.00000000000E+00 -0.00000000000E+00 -0.45593999997E+02  0.45594000000E+02  0.51100000000E-03 0. -1.
    9900012    2    1    2    0    0  0.86220422317E+00  0.80494603060E+00  0.36725244492E-01  0.90007880100E+02  0.90000143317E+02 0.  0.
         12    1    1    2    0    0 -0.86220422317E+00 -0.80494603060E+00 -0.36725244492E-01  0.11801198999E+01  0.00000000000E+00 0. -1.
         11    1    3    3    0    0 -0.28457649462E+01 -0.48547730633E+01  0.77757536653E+01  0.95984136684E+01  0.51100000000E-03 0. -1.
        -11    1    3    3    0    0  0.64737707841E+01  0.34268884171E+02  0.20219050111E+02  0.40312232859E+02  0.51100000000E-03 0.  1.
         12    1    3    3    0    0 -0.27658016147E+01 -0.28609165077E+02 -0.27958078531E+02  0.40097233572E+02  0.00000000000E+00 0. -1.
</event>
<event>
 7    1  0.1999542E-015  0.9000731E+02  0.7816164E-02  0.1186340E+00
        -11   -1    0    0    0    0  0.00000000000E+00  0.00000000000E+00  0.45593999997E+02  0.45594000000E+02  0.51100000000E-03 0.  1.
         11   -1    0    0    0    0 -0.00000000000E+00 -0.00000000000E+00 -0.45593999997E+02  0.45594000000E+02  0.51100000000E-03 0. -1.
    9900012    2    1    2    0    0 -0.89504048435E+00 -0.71068273511E+00 -0.29642888995E+00  0.90007306346E+02  0.89999561988E+02 0.  0.
         12    1    1    2    0    0  0.89504048435E+00  0.71068273511E+00  0.29642888995E+00  0.11806936543E+01  0.00000000000E+00 0. -1.
         11    1    3    3    0    0 -0.52591554815E+01  0.68156977763E+01  0.46154893780E+01  0.97680701787E+01  0.51100000000E-03 0. -1.
        -11    1    3    3    0    0  0.20830406936E+02  0.31398055530E+02 -0.47264797928E+01  0.37974772622E+02  0.51100000000E-03 0.  1.
         12    1    3    3    0    0 -0.16466291939E+02 -0.38924436041E+02 -0.18543847516E+00  0.42264463545E+02  0.00000000000E+00 0. -1.
</event>
<event>
 7    1  0.1999542E-015  0.9000770E+02  0.7816164E-02  0.1186339E+00
        -11   -1    0    0    0    0  0.00000000000E+00  0.00000000000E+00  0.45593999997E+02  0.45594000000E+02  0.51100000000E-03 0.  1.
         11   -1    0    0    0    0 -0.00000000000E+00 -0.00000000000E+00 -0.45593999997E+02  0.45594000000E+02  0.51100000000E-03 0. -1.
    9900012    2    1    2    0    0 -0.58363818775E+00  0.10240733770E+01  0.61172043703E-01  0.90007702650E+02  0.89999963525E+02 0.  0.
         12    1    1    2    0    0  0.58363818775E+00 -0.10240733770E+01 -0.61172043703E-01  0.11802973500E+01  0.00000000000E+00 0. -1.
         11    1    3    3    0    0  0.75643414672E+01 -0.56080649295E+01 -0.27494546253E+01  0.98096460223E+01  0.51100000000E-03 0. -1.
        -11    1    3    3    0    0  0.30050393689E+02  0.58886318785E+01 -0.19163428603E+02  0.36123941401E+02  0.51100000000E-03 0.  1.
         12    1    3    3    0    0 -0.38198373344E+02  0.74350642788E+00  0.21974055272E+02  0.44074115227E+02  0.00000000000E+00 0. -1.
</event>
<event>
 7    1  0.1999542E-015  0.9000782E+02  0.7816164E-02  0.1186339E+00
        -11   -1    0    0    0    0  0.00000000000E+00  0.00000000000E+00  0.45593999997E+02  0.45594000000E+02  0.51100000000E-03 0. -1.
         11   -1    0    0    0    0 -0.00000000000E+00 -0.00000000000E+00 -0.45593999997E+02  0.45594000000E+02  0.51100000000E-03 0.  1.
    9900012    2    1    2    0    0 -0.15879542472E+00 -0.91804300356E+00 -0.72443347941E+00  0.90007820857E+02  0.90000083292E+02 0.  0.
         12    1    1    2    0    0  0.15879542472E+00  0.91804300356E+00  0.72443347941E+00  0.11801791429E+01  0.00000000000E+00 0. -1.
         11    1    3    3    0    0  0.29926863667E+01  0.92463850614E+01 -0.57352039841E+01  0.11284696425E+02  0.51100000000E-03 0. -1.
        -11    1    3    3    0    0 -0.17424547439E+02  0.26896527776E+02 -0.13661921162E+02  0.34837998650E+02  0.51100000000E-03 0.  1.
         12    1    3    3    0    0  0.14273065648E+02 -0.37060955841E+02  0.18672691666E+02  0.43885125782E+02  0.00000000000E+00 0. -1.
</event>
<event>
 7    1  0.1999542E-015  0.9000725E+02  0.7816164E-02  0.1186340E+00
        -11   -1    0    0    0    0  0.00000000000E+00  0.00000000000E+00  0.45593999997E+02  0.45594000000E+02  0.51100000000E-03 0.  1.
         11   -1    0    0    0    0 -0.00000000000E+00 -0.00000000000E+00 -0.45593999997E+02  0.45594000000E+02  0.51100000000E-03 0. -1.
    9900012    2    1    2    0    0  0.69880381647E-01  0.30838007283E+00  0.11376253014E+01  0.90007249026E+02  0.89999503911E+02 0.  0.
         12    1    1    2    0    0 -0.69880381647E-01 -0.30838007283E+00 -0.11376253014E+01  0.11807509743E+01  0.00000000000E+00 0. -1.
         11    1    3    3    0    0  0.76710318800E+01  0.54187941008E+01 -0.13577867219E+01  0.94895545024E+01  0.51100000000E-03 0. -1.
        -11    1    3    3    0    0 -0.13972388752E+02  0.33501817028E+02  0.15228791363E+02  0.39363885457E+02  0.51100000000E-03 0.  1.
         12    1    3    3    0    0  0.63712372533E+01 -0.38612231056E+02 -0.12733379340E+02  0.41153809066E+02  0.00000000000E+00 0. -1.
</event>
<event>
 7    1  0.1999542E-015  0.9000801E+02  0.7816164E-02  0.1186339E+00
        -11   -1    0    0    0    0  0.00000000000E+00  0.00000000000E+00  0.45593999997E+02  0.45594000000E+02  0.51100000000E-03 0.  1.
         11   -1    0    0    0    0 -0.00000000000E+00 -0.00000000000E+00 -0.45593999997E+02  0.45594000000E+02  0.51100000000E-03 0. -1.
    9900012    2    1    2    0    0  0.11689533463E+01  0.15304192456E+00 -0.50079008395E-01  0.90008007770E+02  0.90000272672E+02 0.  0.
         12    1    1    2    0    0 -0.11689533463E+01 -0.15304192456E+00  0.50079008395E-01  0.11799922303E+01  0.00000000000E+00 0. -1.
         11    1    3    3    0    0  0.28500005829E+01  0.34454894929E+02 -0.40486140117E+01  0.34808814452E+02  0.51100000000E-03 0. -1.
        -11    1    3    3    0    0 -0.21835492899E+01  0.98982095257E+01  0.42612721607E+01  0.10995493623E+02  0.51100000000E-03 0.  1.
        -12    1    3    3    0    0  0.50250205328E+00 -0.44200062530E+02 -0.26273715745E+00  0.44203699695E+02  0.00000000000E+00 0.  1.
</event>
<event>
 7    1  0.1999542E-015  0.9000746E+02  0.7816164E-02  0.1186340E+00
        -11   -1    0    0    0    0  0.00000000000E+00  0.00000000000E+00  0.45593999997E+02  0.45594000000E+02  0.51100000000E-03 0. -1.
         11   -1    0    0    0    0 -0.00000000000E+00 -0.00000000000E+00 -0.45593999997E+02  0.45594000000E+02  0.51100000000E-03 0.  1.
    9900012    2    1    2    0    0  0.64229970580E+00  0.57868053214E+00 -0.80389924435E+00  0.90007460265E+02  0.89999717940E+02 0.  0.
         12    1    1    2    0    0 -0.64229970580E+00 -0.57868053214E+00  0.80389924435E+00  0.11805397348E+01  0.00000000000E+00 0. -1.
         11    1    3    3    0    0 -0.56483843863E+01 -0.73108892200E+00 -0.29213246514E+01  0.64010057934E+01  0.51100000000E-03 0. -1.
        -11    1    3    3    0    0 -0.19200249715E+02  0.34924971674E+02  0.90080542379E+01  0.40860106179E+02  0.51100000000E-03 0.  1.
         12    1    3    3    0    0  0.25490933807E+02 -0.33615202220E+02 -0.68906288309E+01  0.42746348292E+02  0.00000000000E+00 0. -1.
</event>
<event>
 7    1  0.1999542E-015  0.9000776E+02  0.7816164E-02  0.1186339E+00
        -11   -1    0    0    0    0  0.00000000000E+00  0.00000000000E+00  0.45593999997E+02  0.45594000000E+02  0.51100000000E-03 0.  1.
         11   -1    0    0    0    0 -0.00000000000E+00 -0.00000000000E+00 -0.45593999997E+02  0.45594000000E+02  0.51100000000E-03 0. -1.
    9900012    2    1    2    0    0  0.36337240419E+00 -0.11218694664E+01  0.48271041989E-01  0.90007762440E+02  0.90000024105E+02 0.  0.
         12    1    1    2    0    0 -0.36337240419E+00  0.11218694664E+01 -0.48271041989E-01  0.11802375596E+01  0.00000000000E+00 0. -1.
         11    1    3    3    0    0 -0.14038251712E+01  0.10726537501E+01 -0.17920502621E+02  0.18007379755E+02  0.51100000000E-03 0. -1.
        -11    1    3    3    0    0 -0.25434278359E+02 -0.44877490127E+01  0.32149593935E+02  0.41238802083E+02  0.51100000000E-03 0.  1.
         12    1    3    3    0    0  0.27201475934E+02  0.22932257963E+01 -0.14180820272E+02  0.30761580602E+02  0.00000000000E+00 0. -1.
</event>
<event>
 7    1  0.1999542E-015  0.9000776E+02  0.7816164E-02  0.1186339E+00
        -11   -1    0    0    0    0  0.00000000000E+00  0.00000000000E+00  0.45593999997E+02  0.45594000000E+02  0.51100000000E-03 0. -1.
         11   -1    0    0    0    0 -0.00000000000E+00 -0.00000000000E+00 -0.45593999997E+02  0.45594000000E+02  0.51100000000E-03 0.  1.
    9900012    2    1    2    0    0 -0.13791541973E+00 -0.57959186887E+00 -0.10188311492E+01  0.90007760911E+02  0.90000022555E+02 0.  0.
         12    1    1    2    0    0  0.13791541973E+00  0.57959186887E+00  0.10188311492E+01  0.11802390893E+01  0.00000000000E+00 0. -1.
         11    1    3    3    0    0  0.13476104603E+00  0.13114276800E+02  0.11039116374E+02  0.17142476691E+02  0.51100000000E-03 0. -1.
        -11    1    3    3    0    0 -0.26197844691E+02  0.89955704101E+01 -0.23746350191E+02  0.36484743402E+02  0.51100000000E-03 0.  1.
        -12    1    3    3    0    0  0.25925168225E+02 -0.22689439079E+02  0.11688402669E+02  0.36380540817E+02  0.00000000000E+00 0.  1.
</event>
<event>
 7    1  0.1999542E-015  0.9000775E+02  0.7816164E-02  0.1186339E+00
        -11   -1    0    0    0    0  0.00000000000E+00  0.00000000000E+00  0.45593999997E+02  0.45594000000E+02  0.51100000000E-03 0. -1.
         11   -1    0    0    0    0 -0.00000000000E+00 -0.00000000000E+00 -0.45593999997E+02  0.45594000000E+02  0.51100000000E-03 0.  1.
    9900012    2    1    2    0    0 -0.39268458803E+00 -0.79592587653E+00 -0.77799922467E+00  0.90007753424E+02  0.90000014969E+02 0.  0.
         12    1    1    2    0    0  0.39268458803E+00  0.79592587653E+00  0.77799922467E+00  0.11802465760E+01  0.00000000000E+00 0. -1.
         11    1    3    3    0    0 -0.39665444449E+01  0.95024975828E+01 -0.27296344890E+01  0.10652785544E+02  0.51100000000E-03 0. -1.
        -11    1    3    3    0    0 -0.22002083758E+02 -0.36136307507E+02 -0.40750189058E+01  0.42503296217E+02  0.51100000000E-03 0.  1.
         12    1    3    3    0    0  0.25575943615E+02  0.25837884048E+02  0.60266541701E+01  0.36851671663E+02  0.00000000000E+00 0. -1.
</event>
<event>
 7    1  0.1999542E-015  0.9000776E+02  0.7816164E-02  0.1186339E+00
        -11   -1    0    0    0    0  0.00000000000E+00  0.00000000000E+00  0.45593999997E+02  0.45594000000E+02  0.51100000000E-03 0.  1.
         11   -1    0    0    0    0 -0.00000000000E+00 -0.00000000000E+00 -0.45593999997E+02  0.45594000000E+02  0.51100000000E-03 0. -1.
    9900012    2    1    2    0    0 -0.85054161786E+00 -0.75560700878E+00  0.31400806833E+00  0.90007761015E+02  0.90000022660E+02 0.  0.
         12    1    1    2    0    0  0.85054161786E+00  0.75560700878E+00 -0.31400806833E+00  0.11802389853E+01  0.00000000000E+00 0. -1.
         11    1    3    3    0    0 -0.35221545168E+01  0.90616254042E+01 -0.20500643407E+00  0.97242303195E+01  0.51100000000E-03 0. -1.
        -11    1    3    3    0    0  0.40871727295E+02 -0.55957501630E+01  0.51485204689E+01  0.41573041448E+02  0.51100000000E-03 0.  1.
         12    1    3    3    0    0 -0.38200114396E+02 -0.42214822500E+01 -0.46295059665E+01  0.38710489247E+02  0.00000000000E+00 0. -1.
</event>
<event>
 7    1  0.1999542E-015  0.9000784E+02  0.7816164E-02  0.1186339E+00
        -11   -1    0    0    0    0  0.00000000000E+00  0.00000000000E+00  0.45593999997E+02  0.45594000000E+02  0.51100000000E-03 0. -1.
         11   -1    0    0    0    0 -0.00000000000E+00 -0.00000000000E+00 -0.45593999997E+02  0.45594000000E+02  0.51100000000E-03 0.  1.
    9900012    2    1    2    0    0 -0.65663915757E+00  0.97446699553E+00 -0.10966286459E+00  0.90007836091E+02  0.90000098727E+02 0.  0.
         12    1    1    2    0    0  0.65663915757E+00 -0.97446699553E+00  0.10966286459E+00  0.11801639092E+01  0.00000000000E+00 0. -1.
         11    1    3    3    0    0  0.79048667565E+01  0.15823294466E+01  0.24034706947E+02  0.25350696701E+02  0.51100000000E-03 0. -1.
        -11    1    3    3    0    0  0.25035762975E+02  0.49243339659E+01 -0.14123254562E+02  0.29163415651E+02  0.51100000000E-03 0.  1.
         12    1    3    3    0    0 -0.33597268889E+02 -0.55321964170E+01 -0.10021115250E+02  0.35493723739E+02  0.00000000000E+00 0. -1.
</event>
<event>
 7    1  0.1999542E-015  0.9000797E+02  0.7816164E-02  0.1186339E+00
        -11   -1    0    0    0    0  0.00000000000E+00  0.00000000000E+00  0.45593999997E+02  0.45594000000E+02  0.51100000000E-03 0.  1.
         11   -1    0    0    0    0 -0.00000000000E+00 -0.00000000000E+00 -0.45593999997E+02  0.45594000000E+02  0.51100000000E-03 0. -1.
    9900012    2    1    2    0    0 -0.53130498316E+00  0.35090475527E+00  0.99350286202E+00  0.90007971581E+02  0.90000236006E+02 0.  0.
         12    1    1    2    0    0  0.53130498316E+00 -0.35090475527E+00 -0.99350286202E+00  0.11800284188E+01  0.00000000000E+00 0. -1.
         11    1    3    3    0    0 -0.65970094216E+01 -0.27669274456E+01  0.57103998109E+01  0.91534194190E+01  0.51100000000E-03 0. -1.
        -11    1    3    3    0    0  0.22214337448E+02 -0.33203053592E+02 -0.87672881037E+01  0.40899693117E+02  0.51100000000E-03 0.  1.
         12    1    3    3    0    0 -0.16148633009E+02  0.36320885793E+02  0.40503911548E+01  0.39954859046E+02  0.00000000000E+00 0. -1.
</event>
<event>
 7    1  0.1999542E-015  0.9000772E+02  0.7816164E-02  0.1186339E+00
        -11   -1    0    0    0    0  0.00000000000E+00  0.00000000000E+00  0.45593999997E+02  0.45594000000E+02  0.51100000000E-03 0.  1.
         11   -1    0    0    0    0 -0.00000000000E+00 -0.00000000000E+00 -0.45593999997E+02  0.45594000000E+02  0.51100000000E-03 0. -1.
    9900012    2    1    2    0    0 -0.99636253363E+00 -0.63054742819E+00  0.52316153784E-01  0.90007718111E+02  0.89999979190E+02 0.  0.
         12    1    1    2    0    0  0.99636253363E+00  0.63054742819E+00 -0.52316153784E-01  0.11802818890E+01  0.00000000000E+00 0. -1.
         11    1    3    3    0    0  0.55138671045E+01 -0.37739789261E+02 -0.22317866340E+02  0.44190288324E+02  0.51100000000E-03 0. -1.
        -11    1    3    3    0    0 -0.66690369406E+01  0.63801763718E+01  0.44754159622E+01  0.10257292652E+02  0.51100000000E-03 0.  1.
        -12    1    3    3    0    0  0.15880730252E+00  0.30729065461E+02  0.17894766532E+02  0.35560137135E+02  0.00000000000E+00 0.  1.
</event>
<event>
 7    1  0.1999542E-015  0.9000787E+02  0.7816164E-02  0.1186339E+00
        -11   -1    0    0    0    0  0.00000000000E+00  0.00000000000E+00  0.45593999997E+02  0.45594000000E+02  0.51100000000E-03 0.  1.
         11   -1    0    0    0    0 -0.00000000000E+00 -0.00000000000E+00 -0.45593999997E+02  0.45594000000E+02  0.51100000000E-03 0. -1.
    9900012    2    1    2    0    0 -0.91615644500E+00  0.67454362876E+00  0.31362758262E+00  0.90007866957E+02  0.90000130001E+02 0.  0.
         12    1    1    2    0    0  0.91615644500E+00 -0.67454362876E+00 -0.31362758262E+00  0.11801330431E+01  0.00000000000E+00 0. -1.
         11    1    3    3    0    0 -0.88180945082E+01  0.56530136333E+01  0.31664607194E+01  0.10942660903E+02  0.51100000000E-03 0. -1.
        -11    1    3    3    0    0  0.32675933068E+00  0.32531970406E+02 -0.18836937875E+02  0.37593431593E+02  0.51100000000E-03 0.  1.
         12    1    3    3    0    0  0.75751787325E+01 -0.37510440411E+02  0.15984104738E+02  0.41471774461E+02  0.00000000000E+00 0. -1.
</event>
<event>
 7    1  0.1999542E-015  0.9000762E+02  0.7816164E-02  0.1186339E+00
        -11   -1    0    0    0    0  0.00000000000E+00  0.00000000000E+00  0.45593999997E+02  0.45594000000E+02  0.51100000000E-03 0.  1.
         11   -1    0    0    0    0 -0.00000000000E+00 -0.00000000000E+00 -0.45593999997E+02  0.45594000000E+02  0.51100000000E-03 0. -1.
    9900012    2    1    2    0    0 -0.81299540869E+00  0.13483752441E+00  0.84507380928E+00  0.90007621910E+02  0.89999881719E+02 0.  0.
         12    1    1    2    0    0  0.81299540869E+00 -0.13483752441E+00 -0.84507380928E+00  0.11803780901E+01  0.00000000000E+00 0. -1.
         11    1    3    3    0    0  0.10540784459E+02  0.11988877782E+02 -0.24517552220E+02  0.29256652143E+02  0.51100000000E-03 0. -1.
        -11    1    3    3    0    0  0.14669980842E+02  0.10562922368E+02  0.18224785110E+02  0.25669562899E+02  0.51100000000E-03 0.  1.
        -12    1    3    3    0    0 -0.26023760710E+02 -0.22416962626E+02  0.71378409187E+01  0.35081406868E+02  0.00000000000E+00 0.  1.
</event>
<event>
 7    1  0.2255375E-015  0.9000765E+02  0.7816164E-02  0.1186339E+00
        -11   -1    0    0    0    0  0.00000000000E+00  0.00000000000E+00  0.45593999997E+02  0.45594000000E+02  0.51100000000E-03 0. -1.
         11   -1    0    0    0    0 -0.00000000000E+00 -0.00000000000E+00 -0.45593999997E+02  0.45594000000E+02  0.51100000000E-03 0.  1.
    9900012    2    1    2    0    0 -0.50092586673E+00 -0.82540495459E+00  0.67896752558E+00  0.90007653880E+02  0.89999914111E+02 0.  0.
         12    1    1    2    0    0  0.50092586673E+00  0.82540495459E+00 -0.67896752558E+00  0.11803461203E+01  0.00000000000E+00 0. -1.
         11    1    3    3    0    0 -0.20444063534E+02 -0.12764934783E+02 -0.29899212557E+02  0.38403986845E+02  0.51100000000E-03 0. -1.
        -11    1    3    3    0    0  0.27647346515E+00 -0.98981297238E+01  0.10733617957E+01  0.99599957536E+01  0.51100000000E-03 0.  1.
        -12    1    3    3    0    0  0.19666664203E+02  0.21837659552E+02  0.29504818287E+02  0.41643671281E+02  0.00000000000E+00 0.  1.
</event>
<event>
 7    1  0.1999542E-015  0.9000775E+02  0.7816164E-02  0.1186339E+00
        -11   -1    0    0    0    0  0.00000000000E+00  0.00000000000E+00  0.45593999997E+02  0.45594000000E+02  0.51100000000E-03 0.  1.
         11   -1    0    0    0    0 -0.00000000000E+00 -0.00000000000E+00 -0.45593999997E+02  0.45594000000E+02  0.51100000000E-03 0. -1.
    9900012    2    1    2    0    0  0.10558947322E+01 -0.50965932247E+00  0.13535292518E+00  0.90007751414E+02  0.90000012933E+02 0.  0.
         12    1    1    2    0    0 -0.10558947322E+01  0.50965932247E+00 -0.13535292518E+00  0.11802485860E+01  0.00000000000E+00 0. -1.
         11    1    3    3    0    0  0.17305884541E+02  0.33672286228E+02  0.64457705274E+01  0.38403964086E+02  0.51100000000E-03 0. -1.
        -11    1    3    3    0    0  0.90503059281E+01 -0.47071591433E+01  0.46962842908E+01  0.11230337083E+02  0.51100000000E-03 0.  1.
        -12    1    3    3    0    0 -0.25300295737E+02 -0.29474786407E+02 -0.11006701893E+02  0.40373450245E+02  0.00000000000E+00 0.  1.
</event>
<event>
 7    1  0.1999542E-015  0.9000763E+02  0.7816164E-02  0.1186339E+00
        -11   -1    0    0    0    0  0.00000000000E+00  0.00000000000E+00  0.45593999997E+02  0.45594000000E+02  0.51100000000E-03 0.  1.
         11   -1    0    0    0    0 -0.00000000000E+00 -0.00000000000E+00 -0.45593999997E+02  0.45594000000E+02  0.51100000000E-03 0. -1.
    9900012    2    1    2    0    0  0.21492223249E+00  0.44841881439E+00  0.10705114546E+01  0.90007633204E+02  0.89999893162E+02 0.  0.
         12    1    1    2    0    0 -0.21492223249E+00 -0.44841881439E+00 -0.10705114546E+01  0.11803667962E+01  0.00000000000E+00 0. -1.
         11    1    3    3    0    0 -0.96470059746E+00  0.85671189584E+01 -0.45497570427E+01  0.97481518196E+01  0.51100000000E-03 0. -1.
        -11    1    3    3    0    0  0.35537004050E+02 -0.12741143723E+02 -0.14190858534E+02  0.40331078171E+02  0.51100000000E-03 0.  1.
         12    1    3    3    0    0 -0.34357381220E+02  0.46224435794E+01  0.19811127032E+02  0.39928403214E+02  0.00000000000E+00 0. -1.
</event>
<event>
 7    1  0.1999542E-015  0.9000831E+02  0.7816164E-02  0.1186338E+00
        -11   -1    0    0    0    0  0.00000000000E+00  0.00000000000E+00  0.45593999997E+02  0.45594000000E+02  0.51100000000E-03 0. -1.
         11   -1    0    0    0    0 -0.00000000000E+00 -0.00000000000E+00 -0.45593999997E+02  0.45594000000E+02  0.51100000000E-03 0.  1.
    9900012    2    1    2    0    0  0.73278210368E+00 -0.67682549644E+00 -0.62976375645E+00  0.90008311586E+02  0.90000580498E+02 0.  0.
         12    1    1    2    0    0 -0.73278210368E+00  0.67682549644E+00  0.62976375645E+00  0.11796884135E+01  0.00000000000E+00 0. -1.
         11    1    3    3    0    0 -0.27571895925E+02  0.13880337595E+02  0.18586038492E+02  0.36032125163E+02  0.51100000000E-03 0. -1.
        -11    1    3    3    0    0  0.18581137678E+01  0.12469259808E+02 -0.54600670853E+01  0.13738535576E+02  0.51100000000E-03 0.  1.
        -12    1    3    3    0    0  0.26446564261E+02 -0.27026422899E+02 -0.13755735163E+02  0.40237650848E+02  0.00000000000E+00 0.  1.
</event>
<event>
 7    1  0.1999542E-015  0.9000778E+02  0.7816164E-02  0.1186339E+00
        -11   -1    0    0    0    0  0.00000000000E+00  0.00000000000E+00  0.45593999997E+02  0.45594000000E+02  0.51100000000E-03 0.  1.
         11   -1    0    0    0    0 -0.00000000000E+00 -0.00000000000E+00 -0.45593999997E+02  0.45594000000E+02  0.51100000000E-03 0. -1.
    9900012    2    1    2    0    0 -0.56921076478E+00  0.81649147356E+00  0.63423263633E+00  0.90007783809E+02  0.90000045755E+02 0.  0.
         12    1    1    2    0    0  0.56921076478E+00 -0.81649147356E+00 -0.63423263633E+00  0.11802161913E+01  0.00000000000E+00 0. -1.
         11    1    3    3    0    0  0.16558575166E+02 -0.26063562300E+02  0.13726369620E+02  0.33792142792E+02  0.51100000000E-03 0. -1.
        -11    1    3    3    0    0  0.11874597237E+02 -0.36868742940E+01 -0.44204089003E+01  0.13196178110E+02  0.51100000000E-03 0.  1.
        -12    1    3    3    0    0 -0.29002383167E+02  0.30566928067E+02 -0.86717280835E+01  0.43019462907E+02  0.00000000000E+00 0.  1.
</event>
<event>
 7    1  0.1999542E-015  0.9000780E+02  0.7816164E-02  0.1186339E+00
        -11   -1    0    0    0    0  0.00000000000E+00  0.00000000000E+00  0.45593999997E+02  0.45594000000E+02  0.51100000000E-03 0.  1.
         11   -1    0    0    0    0 -0.00000000000E+00 -0.00000000000E+00 -0.45593999997E+02  0.45594000000E+02  0.51100000000E-03 0. -1.
    9900012    2    1    2    0    0  0.23139852224E+00  0.22411772906E+00  0.11353886107E+01  0.90007796064E+02  0.90000058172E+02 0.  0.
         12    1    1    2    0    0 -0.23139852224E+00 -0.22411772906E+00 -0.11353886107E+01  0.11802039357E+01  0.00000000000E+00 0. -1.
         11    1    3    3    0    0 -0.35284028722E+01 -0.78094365196E+01 -0.40787484243E+01  0.94906856734E+01  0.51100000000E-03 0. -1.
        -11    1    3    3    0    0 -0.20315226865E+02 -0.15617484044E+02  0.29397866923E+02  0.38998061879E+02  0.51100000000E-03 0.  1.
         12    1    3    3    0    0  0.24075028260E+02  0.23651038292E+02 -0.24183729888E+02  0.41519048512E+02  0.00000000000E+00 0. -1.
</event>
<event>
 7    1  0.1999542E-015  0.9000770E+02  0.7816164E-02  0.1186339E+00
        -11   -1    0    0    0    0  0.00000000000E+00  0.00000000000E+00  0.45593999997E+02  0.45594000000E+02  0.51100000000E-03 0. -1.
         11   -1    0    0    0    0 -0.00000000000E+00 -0.00000000000E+00 -0.45593999997E+02  0.45594000000E+02  0.51100000000E-03 0.  1.
    9900012    2    1    2    0    0  0.22967821246E-01 -0.10797372346E+01 -0.47618223114E+00  0.90007699388E+02  0.89999960220E+02 0.  0.
         12    1    1    2    0    0 -0.22967821246E-01  0.10797372346E+01  0.47618223114E+00  0.11803006116E+01  0.00000000000E+00 0. -1.
         11    1    3    3    0    0 -0.22380622345E+02  0.34899511546E+02 -0.42359653030E+01  0.41675071266E+02  0.51100000000E-03 0. -1.
        -11    1    3    3    0    0 -0.41776242517E+01 -0.38432536321E+01 -0.24231160945E+01  0.61720851207E+01  0.51100000000E-03 0.  1.
        -12    1    3    3    0    0  0.26581214418E+02 -0.32135995148E+02  0.61828991664E+01  0.42160543002E+02  0.00000000000E+00 0.  1.
</event>
<event>
 7    1  0.1999542E-015  0.9000770E+02  0.7816164E-02  0.1186339E+00
        -11   -1    0    0    0    0  0.00000000000E+00  0.00000000000E+00  0.45593999997E+02  0.45594000000E+02  0.51100000000E-03 0. -1.
         11   -1    0    0    0    0 -0.00000000000E+00 -0.00000000000E+00 -0.45593999997E+02  0.45594000000E+02  0.51100000000E-03 0.  1.
    9900012    2    1    2    0    0 -0.29076592709E+00 -0.88559891913E+00 -0.72406500684E+00  0.90007703256E+02  0.89999964139E+02 0.  0.
         12    1    1    2    0    0  0.29076592709E+00  0.88559891913E+00  0.72406500684E+00  0.11802967441E+01  0.00000000000E+00 0. -1.
         11    1    3    3    0    0 -0.38224103573E+01 -0.36005421615E+02 -0.11892597348E+02  0.38110826264E+02  0.51100000000E-03 0. -1.
        -11    1    3    3    0    0 -0.68071637106E+01 -0.30194667319E+01 -0.52443329334E+01  0.91081109625E+01  0.51100000000E-03 0.  1.
        -12    1    3    3    0    0  0.10338808141E+02  0.38139289427E+02  0.16412865274E+02  0.42788766029E+02  0.00000000000E+00 0.  1.
</event>
<event>
 7    1  0.1999542E-015  0.9000766E+02  0.7816164E-02  0.1186339E+00
        -11   -1    0    0    0    0  0.00000000000E+00  0.00000000000E+00  0.45593999997E+02  0.45594000000E+02  0.51100000000E-03 0.  1.
         11   -1    0    0    0    0 -0.00000000000E+00 -0.00000000000E+00 -0.45593999997E+02  0.45594000000E+02  0.51100000000E-03 0. -1.
    9900012    2    1    2    0    0  0.67294830167E-01 -0.84269105499E+00  0.82373807699E+00  0.90007660546E+02  0.89999920865E+02 0.  0.
         12    1    1    2    0    0 -0.67294830167E-01  0.84269105499E+00 -0.82373807699E+00  0.11803394545E+01  0.00000000000E+00 0. -1.
         11    1    3    3    0    0 -0.12633561096E+02  0.35479004860E+02  0.75623272481E+01  0.38412959343E+02  0.51100000000E-03 0. -1.
        -11    1    3    3    0    0 -0.59884646063E+01  0.24487495783E+01 -0.55727610254E+01  0.85389547689E+01  0.51100000000E-03 0.  1.
        -12    1    3    3    0    0  0.18689320532E+02 -0.38770445493E+02 -0.11658281457E+01  0.43055746434E+02  0.00000000000E+00 0.  1.
</event>
<event>
 7    1  0.1999542E-015  0.9000773E+02  0.7816164E-02  0.1186339E+00
        -11   -1    0    0    0    0  0.00000000000E+00  0.00000000000E+00  0.45593999997E+02  0.45594000000E+02  0.51100000000E-03 0. -1.
         11   -1    0    0    0    0 -0.00000000000E+00 -0.00000000000E+00 -0.45593999997E+02  0.45594000000E+02  0.51100000000E-03 0.  1.
    9900012    2    1    2    0    0  0.49009246404E+00 -0.54257951328E+00 -0.92652235848E+00  0.90007734423E+02  0.89999995717E+02 0.  0.
         12    1    1    2    0    0 -0.49009246404E+00  0.54257951328E+00  0.92652235848E+00  0.11802655770E+01  0.00000000000E+00 0. -1.
         11    1    3    3    0    0  0.10148193435E+02 -0.26014224024E+02  0.11148029041E+02  0.30066663155E+02  0.51100000000E-03 0. -1.
        -11    1    3    3    0    0 -0.28063913774E+01 -0.15617891374E+02  0.19484923118E+01  0.15987213206E+02  0.51100000000E-03 0.  1.
        -12    1    3    3    0    0 -0.68517095931E+01  0.41089535885E+02 -0.14023043711E+02  0.43953858062E+02  0.00000000000E+00 0.  1.
</event>
<event>
 7    1  0.1999542E-015  0.9000775E+02  0.7816164E-02  0.1186339E+00
        -11   -1    0    0    0    0  0.00000000000E+00  0.00000000000E+00  0.45593999997E+02  0.45594000000E+02  0.51100000000E-03 0. -1.
         11   -1    0    0    0    0 -0.00000000000E+00 -0.00000000000E+00 -0.45593999997E+02  0.45594000000E+02  0.51100000000E-03 0.  1.
    9900012    2    1    2    0    0  0.76485700681E+00  0.63834254671E+00 -0.63284544229E+00  0.90007753923E+02  0.90000015475E+02 0.  0.
         12    1    1    2    0    0 -0.76485700681E+00 -0.63834254671E+00  0.63284544229E+00  0.11802460767E+01  0.00000000000E+00 0. -1.
         11    1    3    3    0    0 -0.20412875262E+02 -0.17735573943E+02  0.23827354247E+02  0.36041349451E+02  0.51100000000E-03 0. -1.
        -11    1    3    3    0    0 -0.96040766858E+01 -0.36164046712E+01 -0.47170999600E+01  0.11294587377E+02  0.51100000000E-03 0.  1.
        -12    1    3    3    0    0  0.30781808955E+02  0.21990321161E+02 -0.19743099729E+02  0.42671817095E+02  0.00000000000E+00 0.  1.
</event>
<event>
 7    1  0.1999542E-015  0.9000777E+02  0.7816164E-02  0.1186339E+00
        -11   -1    0    0    0    0  0.00000000000E+00  0.00000000000E+00  0.45593999997E+02  0.45594000000E+02  0.51100000000E-03 0.  1.
         11   -1    0    0    0    0 -0.00000000000E+00 -0.00000000000E+00 -0.45593999997E+02  0.45594000000E+02  0.51100000000E-03 0. -1.
    9900012    2    1    2    0    0  0.86529684628E+00 -0.64408442421E+00  0.47891739258E+00  0.90007768986E+02  0.90000030737E+02 0.  0.
         12    1    1    2    0    0 -0.86529684628E+00  0.64408442421E+00 -0.47891739258E+00  0.11802310141E+01  0.00000000000E+00 0. -1.
         11    1    3    3    0    0  0.33126008930E+02 -0.44691743549E-01 -0.36407464877E+01  0.33325508252E+02  0.51100000000E-03 0. -1.
        -11    1    3    3    0    0  0.80927793100E+01 -0.11259294323E+02  0.55118992726E+01  0.14921320969E+02  0.51100000000E-03 0.  1.
        -12    1    3    3    0    0 -0.40353491394E+02  0.10659901642E+02 -0.13922353923E+01  0.41760939765E+02  0.00000000000E+00 0.  1.
</event>
<event>
 7    1  0.1999542E-015  0.9000773E+02  0.7816164E-02  0.1186339E+00
        -11   -1    0    0    0    0  0.00000000000E+00  0.00000000000E+00  0.45593999997E+02  0.45594000000E+02  0.51100000000E-03 0. -1.
         11   -1    0    0    0    0 -0.00000000000E+00 -0.00000000000E+00 -0.45593999997E+02  0.45594000000E+02  0.51100000000E-03 0.  1.
    9900012    2    1    2    0    0  0.20510628696E+00 -0.10477771862E+01 -0.50312352209E+00  0.90007729311E+02  0.89999990538E+02 0.  0.
         12    1    1    2    0    0 -0.20510628696E+00  0.10477771862E+01  0.50312352209E+00  0.11802706890E+01  0.00000000000E+00 0. -1.
         11    1    3    3    0    0 -0.24233176147E+01 -0.71314547543E-01 -0.11687516298E+02  0.11936313983E+02  0.51100000000E-03 0. -1.
        -11    1    3    3    0    0 -0.32726244000E+02 -0.14100608017E+02 -0.68208483393E+01  0.36281650529E+02  0.51100000000E-03 0.  1.
         12    1    3    3    0    0  0.35354667902E+02  0.13124145378E+02  0.18005241115E+02  0.41789764799E+02  0.00000000000E+00 0. -1.
</event>
<event>
 7    1  0.1999542E-015  0.9000763E+02  0.7816164E-02  0.1186339E+00
        -11   -1    0    0    0    0  0.00000000000E+00  0.00000000000E+00  0.45593999997E+02  0.45594000000E+02  0.51100000000E-03 0. -1.
         11   -1    0    0    0    0 -0.00000000000E+00 -0.00000000000E+00 -0.45593999997E+02  0.45594000000E+02  0.51100000000E-03 0.  1.
    9900012    2    1    2    0    0 -0.11317114695E+01  0.33374900657E+00  0.33523834128E-01  0.90007625866E+02  0.89999885727E+02 0.  0.
         12    1    1    2    0    0  0.11317114695E+01 -0.33374900657E+00 -0.33523834128E-01  0.11803741344E+01  0.00000000000E+00 0. -1.
         11    1    3    3    0    0  0.66146452161E+00 -0.36326794040E+02 -0.12584612371E+02  0.38450565267E+02  0.51100000000E-03 0. -1.
        -11    1    3    3    0    0  0.73939177926E+01 -0.38451916224E+01  0.34668555495E+01  0.90263285227E+01  0.51100000000E-03 0.  1.
        -12    1    3    3    0    0 -0.91870937837E+01  0.40505734669E+02  0.91512806560E+01  0.42530732076E+02  0.00000000000E+00 0.  1.
</event>
<event>
 7    1  0.1999542E-015  0.9000768E+02  0.7816164E-02  0.1186339E+00
        -11   -1    0    0    0    0  0.00000000000E+00  0.00000000000E+00  0.45593999997E+02  0.45594000000E+02  0.51100000000E-03 0.  1.
         11   -1    0    0    0    0 -0.00000000000E+00 -0.00000000000E+00 -0.45593999997E+02  0.45594000000E+02  0.51100000000E-03 0. -1.
    9900012    2    1    2    0    0 -0.60836302267E+00  0.88045506618E+00  0.49783281921E+00  0.90007684700E+02  0.89999945338E+02 0.  0.
         12    1    1    2    0    0  0.60836302267E+00 -0.88045506618E+00 -0.49783281921E+00  0.11803152997E+01  0.00000000000E+00 0. -1.
         11    1    3    3    0    0 -0.24921558051E+02  0.31505715701E+02  0.19220182648E+02  0.44532118733E+02  0.51100000000E-03 0. -1.
        -11    1    3    3    0    0  0.25228296695E+01 -0.76133206751E+01  0.10994667979E+01  0.80954399970E+01  0.51100000000E-03 0.  1.
        -12    1    3    3    0    0  0.21790365359E+02 -0.23011939960E+02 -0.19821816627E+02  0.37380125971E+02  0.00000000000E+00 0.  1.
</event>
<event>
 7    1  0.1999542E-015  0.9000765E+02  0.7816164E-02  0.1186339E+00
        -11   -1    0    0    0    0  0.00000000000E+00  0.00000000000E+00  0.45593999997E+02  0.45594000000E+02  0.51100000000E-03 0. -1.
         11   -1    0    0    0    0 -0.00000000000E+00 -0.00000000000E+00 -0.45593999997E+02  0.45594000000E+02  0.51100000000E-03 0.  1.
    9900012    2    1    2    0    0  0.41432693094E+00 -0.12411779707E+00 -0.10982487165E+01  0.90007651629E+02  0.89999911831E+02 0.  0.
         12    1    1    2    0    0 -0.41432693094E+00  0.12411779707E+00  0.10982487165E+01  0.11803483708E+01  0.00000000000E+00 0. -1.
         11    1    3    3    0    0  0.33490098079E+01  0.39894067530E+01  0.68856788747E+01  0.86338755354E+01  0.51100000000E-03 0. -1.
        -11    1    3    3    0    0 -0.21303762207E+02  0.51359523741E+01  0.30607812246E+02  0.37643943228E+02  0.51100000000E-03 0.  1.
         12    1    3    3    0    0  0.18369079330E+02 -0.92494769241E+01 -0.38591739838E+02  0.43729832866E+02  0.00000000000E+00 0. -1.
</event>
<event>
 7    1  0.1999542E-015  0.9000780E+02  0.7816164E-02  0.1186339E+00
        -11   -1    0    0    0    0  0.00000000000E+00  0.00000000000E+00  0.45593999997E+02  0.45594000000E+02  0.51100000000E-03 0.  1.
         11   -1    0    0    0    0 -0.00000000000E+00 -0.00000000000E+00 -0.45593999997E+02  0.45594000000E+02  0.51100000000E-03 0. -1.
    9900012    2    1    2    0    0  0.61148397638E+00 -0.93942356072E+00  0.36939159162E+00  0.90007796870E+02  0.90000058989E+02 0.  0.
         12    1    1    2    0    0 -0.61148397638E+00  0.93942356072E+00 -0.36939159162E+00  0.11802031299E+01  0.00000000000E+00 0. -1.
         11    1    3    3    0    0 -0.19646729768E+02  0.76788319607E+01 -0.33677132539E+02  0.39737988213E+02  0.51100000000E-03 0. -1.
        -11    1    3    3    0    0 -0.42299535937E+00 -0.10452715584E+02  0.81590824518E-01  0.10461589051E+02  0.51100000000E-03 0.  1.
        -12    1    3    3    0    0  0.20681209104E+02  0.18344600624E+01  0.33964933307E+02  0.39808219606E+02  0.00000000000E+00 0.  1.
</event>
<event>
 7    1  0.1999542E-015  0.9000768E+02  0.7816164E-02  0.1186339E+00
        -11   -1    0    0    0    0  0.00000000000E+00  0.00000000000E+00  0.45593999997E+02  0.45594000000E+02  0.51100000000E-03 0. -1.
         11   -1    0    0    0    0 -0.00000000000E+00 -0.00000000000E+00 -0.45593999997E+02  0.45594000000E+02  0.51100000000E-03 0.  1.
    9900012    2    1    2    0    0 -0.32660260656E+00 -0.71170083933E+00 -0.88316180311E+00  0.90007677113E+02  0.89999937651E+02 0.  0.
         12    1    1    2    0    0  0.32660260656E+00  0.71170083933E+00  0.88316180311E+00  0.11803228871E+01  0.00000000000E+00 0. -1.
         11    1    3    3    0    0 -0.27486369866E+02 -0.11985658573E+02 -0.39689921582E+01  0.30247469957E+02  0.51100000000E-03 0. -1.
        -11    1    3    3    0    0 -0.75202039978E+01  0.11054003976E+02  0.17653004460E+02  0.22144368106E+02  0.51100000000E-03 0.  1.
        -12    1    3    3    0    0  0.34679971257E+02  0.21995375757E+00 -0.14567174105E+02  0.37615839050E+02  0.00000000000E+00 0.  1.
</event>
<event>
 7    1  0.1999542E-015  0.9000772E+02  0.7816164E-02  0.1186339E+00
        -11   -1    0    0    0    0  0.00000000000E+00  0.00000000000E+00  0.45593999997E+02  0.45594000000E+02  0.51100000000E-03 0.  1.
         11   -1    0    0    0    0 -0.00000000000E+00 -0.00000000000E+00 -0.45593999997E+02  0.45594000000E+02  0.51100000000E-03 0. -1.
    9900012    2    1    2    0    0 -0.84122154535E+00 -0.71437933463E+00 -0.41840704819E+00  0.90007722075E+02  0.89999983206E+02 0.  0.
         12    1    1    2    0    0  0.84122154535E+00  0.71437933463E+00  0.41840704819E+00  0.11802779249E+01  0.00000000000E+00 0. -1.
         11    1    3    3    0    0 -0.21506408075E+02 -0.27175004245E+02 -0.48077652369E+01  0.34987441330E+02  0.51100000000E-03 0. -1.
        -11    1    3    3    0    0 -0.10668206614E+02 -0.36344923221E+01  0.24388243131E+01  0.11531176483E+02  0.51100000000E-03 0.  1.
        -12    1    3    3    0    0  0.31333393143E+02  0.30095117233E+02  0.19505338756E+01  0.43489104262E+02  0.00000000000E+00 0.  1.
</event>
<event>
 7    1  0.1999542E-015  0.9000770E+02  0.7816164E-02  0.1186339E+00
        -11   -1    0    0    0    0  0.00000000000E+00  0.00000000000E+00  0.45593999997E+02  0.45594000000E+02  0.51100000000E-03 0.  1.
         11   -1    0    0    0    0 -0.00000000000E+00 -0.00000000000E+00 -0.45593999997E+02  0.45594000000E+02  0.51100000000E-03 0. -1.
    9900012    2    1    2    0    0 -0.11481426487E+00 -0.95176526317E+00  0.68852256918E+00  0.90007702258E+02  0.89999963128E+02 0.  0.
         12    1    1    2    0    0  0.11481426487E+00  0.95176526317E+00 -0.68852256918E+00  0.11802977420E+01  0.00000000000E+00 0. -1.
         11    1    3    3    0    0  0.17906426553E+02 -0.10522742349E+01 -0.40040080834E+02  0.43874314426E+02  0.51100000000E-03 0. -1.
        -11    1    3    3    0    0 -0.83442427689E+01  0.50490755074E+01  0.12296839059E+02  0.15694961038E+02  0.51100000000E-03 0.  1.
        -12    1    3    3    0    0 -0.96769980490E+01 -0.49485665356E+01  0.28431764343E+02  0.30438426794E+02  0.00000000000E+00 0.  1.
</event>
<event>
 7    1  0.1999542E-015  0.9000777E+02  0.7816164E-02  0.1186339E+00
        -11   -1    0    0    0    0  0.00000000000E+00  0.00000000000E+00  0.45593999997E+02  0.45594000000E+02  0.51100000000E-03 0.  1.
         11   -1    0    0    0    0 -0.00000000000E+00 -0.00000000000E+00 -0.45593999997E+02  0.45594000000E+02  0.51100000000E-03 0. -1.
    9900012    2    1    2    0    0  0.37002818281E+00  0.99576570425E+00  0.51426867639E+00  0.90007770164E+02  0.90000031930E+02 0.  0.
         12    1    1    2    0    0 -0.37002818281E+00 -0.99576570425E+00 -0.51426867639E+00  0.11802298358E+01  0.00000000000E+00 0. -1.
         11    1    3    3    0    0  0.24928909209E+02 -0.27175593376E+02 -0.95987709714E+01  0.38106427202E+02  0.51100000000E-03 0. -1.
        -11    1    3    3    0    0  0.87422006637E+01  0.35928286692E+01  0.29141936740E+01  0.98907540320E+01  0.51100000000E-03 0.  1.
        -12    1    3    3    0    0 -0.33301081690E+02  0.24578530411E+02  0.71988459737E+01  0.42010588930E+02  0.00000000000E+00 0.  1.
</event>
<event>
 7    1  0.1999542E-015  0.9000803E+02  0.7816164E-02  0.1186338E+00
        -11   -1    0    0    0    0  0.00000000000E+00  0.00000000000E+00  0.45593999997E+02  0.45594000000E+02  0.51100000000E-03 0.  1.
         11   -1    0    0    0    0 -0.00000000000E+00 -0.00000000000E+00 -0.45593999997E+02  0.45594000000E+02  0.51100000000E-03 0. -1.
    9900012    2    1    2    0    0 -0.61363717778E+00 -0.97453224001E+00  0.25701345079E+00  0.90008034074E+02  0.90000299323E+02 0.  0.
         12    1    1    2    0    0  0.61363717778E+00  0.97453224001E+00 -0.25701345079E+00  0.11799659261E+01  0.00000000000E+00 0. -1.
         11    1    3    3    0    0  0.10919471175E+02 -0.51810521310E-01  0.29740292876E+01  0.11317348874E+02  0.51100000000E-03 0. -1.
        -11    1    3    3    0    0 -0.13312544087E+02 -0.35600457164E+02  0.13542947266E+02  0.40348826517E+02  0.51100000000E-03 0.  1.
         12    1    3    3    0    0  0.17794357342E+01  0.34677735445E+02 -0.16259963103E+02  0.38341858683E+02  0.00000000000E+00 0. -1.
</event>
<event>
 7    1  0.1999542E-015  0.9000772E+02  0.7816164E-02  0.1186339E+00
        -11   -1    0    0    0    0  0.00000000000E+00  0.00000000000E+00  0.45593999997E+02  0.45594000000E+02  0.51100000000E-03 0.  1.
         11   -1    0    0    0    0 -0.00000000000E+00 -0.00000000000E+00 -0.45593999997E+02  0.45594000000E+02  0.51100000000E-03 0. -1.
    9900012    2    1    2    0    0  0.95239937957E+00  0.40278230470E+00  0.56901144561E+00  0.90007715209E+02  0.89999976250E+02 0.  0.
         12    1    1    2    0    0 -0.95239937957E+00 -0.40278230470E+00 -0.56901144561E+00  0.11802847912E+01  0.00000000000E+00 0. -1.
         11    1    3    3    0    0 -0.63935850206E+01  0.16149705166E+02 -0.24193668310E+02  0.29782956416E+02  0.51100000000E-03 0. -1.
        -11    1    3    3    0    0 -0.14722615386E+02  0.42079653245E+01 -0.68838028113E+01  0.16788362558E+02  0.51100000000E-03 0.  1.
        -12    1    3    3    0    0  0.22068599786E+02 -0.19954888186E+02  0.31646482566E+02  0.43436396235E+02  0.00000000000E+00 0.  1.
</event>
<event>
 7    1  0.1999542E-015  0.9000774E+02  0.7816164E-02  0.1186339E+00
        -11   -1    0    0    0    0  0.00000000000E+00  0.00000000000E+00  0.45593999997E+02  0.45594000000E+02  0.51100000000E-03 0. -1.
         11   -1    0    0    0    0 -0.00000000000E+00 -0.00000000000E+00 -0.45593999997E+02  0.45594000000E+02  0.51100000000E-03 0.  1.
    9900012    2    1    2    0    0 -0.35448955847E-01 -0.11797242393E+01 -0.89249660461E-03  0.90007742949E+02  0.90000004356E+02 0.  0.
         12    1    1    2    0    0  0.35448955847E-01  0.11797242393E+01  0.89249660461E-03  0.11802570508E+01  0.00000000000E+00 0. -1.
         11    1    3    3    0    0  0.78595552014E+01 -0.19707114353E+01  0.20198083323E+02  0.21762786626E+02  0.51100000000E-03 0. -1.
        -11    1    3    3    0    0  0.21436905835E+02  0.16554495882E+02  0.35889848444E+01  0.27321659506E+02  0.51100000000E-03 0.  1.
         12    1    3    3    0    0 -0.29331909992E+02 -0.15763508686E+02 -0.23787960664E+02  0.40923296818E+02  0.00000000000E+00 0. -1.
</event>
<event>
 7    1  0.1999542E-015  0.9000776E+02  0.7816164E-02  0.1186339E+00
        -11   -1    0    0    0    0  0.00000000000E+00  0.00000000000E+00  0.45593999997E+02  0.45594000000E+02  0.51100000000E-03 0. -1.
         11   -1    0    0    0    0 -0.00000000000E+00 -0.00000000000E+00 -0.45593999997E+02  0.45594000000E+02  0.51100000000E-03 0.  1.
    9900012    2    1    2    0    0  0.84217174894E+00  0.53680786725E+00 -0.62893284728E+00  0.90007757454E+02  0.90000019052E+02 0.  0.
         12    1    1    2    0    0 -0.84217174894E+00 -0.53680786725E+00  0.62893284728E+00  0.11802425460E+01  0.00000000000E+00 0. -1.
         11    1    3    3    0    0 -0.64687230331E+01 -0.35489157426E+02  0.22339774865E+02  0.42431005335E+02  0.51100000000E-03 0. -1.
        -11    1    3    3    0    0 -0.56106938527E+01  0.74007822778E+01 -0.12017548834E+01  0.93645971026E+01  0.51100000000E-03 0.  1.
        -12    1    3    3    0    0  0.12921588635E+02  0.28625183016E+02 -0.21766952829E+02  0.38212155016E+02  0.00000000000E+00 0.  1.
</event>
<event>
 7    1  0.1999542E-015  0.9000789E+02  0.7816164E-02  0.1186339E+00
        -11   -1    0    0    0    0  0.00000000000E+00  0.00000000000E+00  0.45593999997E+02  0.45594000000E+02  0.51100000000E-03 0.  1.
         11   -1    0    0    0    0 -0.00000000000E+00 -0.00000000000E+00 -0.45593999997E+02  0.45594000000E+02  0.51100000000E-03 0. -1.
    9900012    2    1    2    0    0  0.82546789156E-01  0.11662404775E+01 -0.16039323253E+00  0.90007891186E+02  0.90000154550E+02 0.  0.
         12    1    1    2    0    0 -0.82546789156E-01 -0.11662404775E+01  0.16039323253E+00  0.11801088140E+01  0.00000000000E+00 0. -1.
         11    1    3    3    0    0 -0.84486131802E+01  0.16082163111E+02 -0.21810012792E+02  0.28384708792E+02  0.51100000000E-03 0. -1.
        -11    1    3    3    0    0  0.16057944433E+02 -0.16832664859E+02 -0.12632528968E+02  0.26472192468E+02  0.51100000000E-03 0.  1.
        -12    1    3    3    0    0 -0.75267844637E+01  0.19167422261E+01  0.34282148527E+02  0.35150989926E+02  0.00000000000E+00 0.  1.
</event>
<event>
 7    1  0.2118532E-015  0.9000770E+02  0.7816164E-02  0.1186339E+00
        -11   -1    0    0    0    0  0.00000000000E+00  0.00000000000E+00  0.45593999997E+02  0.45594000000E+02  0.51100000000E-03 0. -1.
         11   -1    0    0    0    0 -0.00000000000E+00 -0.00000000000E+00 -0.45593999997E+02  0.45594000000E+02  0.51100000000E-03 0.  1.
    9900012    2    1    2    0    0 -0.48802665427E-01  0.42641933345E+00 -0.10994924457E+01  0.90007703941E+02  0.89999964833E+02 0.  0.
         12    1    1    2    0    0  0.48802665427E-01 -0.42641933345E+00  0.10994924457E+01  0.11802960587E+01  0.00000000000E+00 0. -1.
         11    1    3    3    0    0 -0.35227100704E+02  0.41130336427E+01  0.36332480021E+01  0.35652014825E+02  0.51100000000E-03 0. -1.
        -11    1    3    3    0    0 -0.77183701350E+01  0.64305838754E+01 -0.18255824087E+00  0.10047834309E+02  0.51100000000E-03 0.  1.
        -12    1    3    3    0    0  0.42896668174E+02 -0.10117198185E+02 -0.45501822070E+01  0.44307854808E+02  0.00000000000E+00 0.  1.
</event>
<event>
 7    1  0.1999542E-015  0.9000800E+02  0.7816164E-02  0.1186339E+00
        -11   -1    0    0    0    0  0.00000000000E+00  0.00000000000E+00  0.45593999997E+02  0.45594000000E+02  0.51100000000E-03 0.  1.
         11   -1    0    0    0    0 -0.00000000000E+00 -0.00000000000E+00 -0.45593999997E+02  0.45594000000E+02  0.51100000000E-03 0. -1.
    9900012    2    1    2    0    0  0.15491436845E-01  0.42157069296E+00  0.11020208527E+01  0.90007995003E+02  0.90000259736E+02 0.  0.
         12    1    1    2    0    0 -0.15491436845E-01 -0.42157069296E+00 -0.11020208527E+01  0.11800049972E+01  0.00000000000E+00 0. -1.
         11    1    3    3    0    0 -0.23839998565E+01  0.12795655661E+02 -0.20744800428E+02  0.24489977627E+02  0.51100000000E-03 0. -1.
        -11    1    3    3    0    0  0.87646430096E+01  0.22613615490E+02  0.17022287921E+02  0.29630269302E+02  0.51100000000E-03 0.  1.
        -12    1    3    3    0    0 -0.63651517163E+01 -0.34987700457E+02  0.48245333590E+01  0.35887748074E+02  0.00000000000E+00 0.  1.
</event>
<event>
 7    1  0.1999542E-015  0.9000761E+02  0.7816164E-02  0.1186339E+00
        -11   -1    0    0    0    0  0.00000000000E+00  0.00000000000E+00  0.45593999997E+02  0.45594000000E+02  0.51100000000E-03 0.  1.
         11   -1    0    0    0    0 -0.00000000000E+00 -0.00000000000E+00 -0.45593999997E+02  0.45594000000E+02  0.51100000000E-03 0. -1.
    9900012    2    1    2    0    0  0.49218808423E+00 -0.64108390087E-01  0.10709679315E+01  0.90007605445E+02  0.89999865036E+02 0.  0.
         12    1    1    2    0    0 -0.49218808423E+00  0.64108390087E-01 -0.10709679315E+01  0.11803945553E+01  0.00000000000E+00 0. -1.
         11    1    3    3    0    0  0.49324708559E+01 -0.67449465166E+01 -0.53898171843E+01  0.99435256221E+01  0.51100000000E-03 0. -1.
        -11    1    3    3    0    0 -0.36239882571E+02  0.89710124285E+01  0.23300377567E+02  0.44008132746E+02  0.51100000000E-03 0.  1.
         12    1    3    3    0    0  0.31799599799E+02 -0.22901743020E+01 -0.16839592451E+02  0.36055947077E+02  0.00000000000E+00 0. -1.
</event>
<event>
 7    1  0.1999542E-015  0.9000772E+02  0.7816164E-02  0.1186339E+00
        -11   -1    0    0    0    0  0.00000000000E+00  0.00000000000E+00  0.45593999997E+02  0.45594000000E+02  0.51100000000E-03 0.  1.
         11   -1    0    0    0    0 -0.00000000000E+00 -0.00000000000E+00 -0.45593999997E+02  0.45594000000E+02  0.51100000000E-03 0. -1.
    9900012    2    1    2    0    0 -0.27641503704E+00  0.42859762030E+00  0.10644094416E+01  0.90007716707E+02  0.89999977767E+02 0.  0.
         12    1    1    2    0    0  0.27641503704E+00 -0.42859762030E+00 -0.10644094416E+01  0.11802832932E+01  0.00000000000E+00 0. -1.
         11    1    3    3    0    0 -0.70374238710E+01  0.25389060926E+01 -0.86420282121E+00  0.75311503546E+01  0.51100000000E-03 0. -1.
        -11    1    3    3    0    0 -0.24352801159E+02  0.15215273392E+02  0.26608610444E+02  0.39148200708E+02  0.51100000000E-03 0.  1.
         12    1    3    3    0    0  0.31113809993E+02 -0.17325581864E+02 -0.24679998181E+02  0.43328365644E+02  0.00000000000E+00 0. -1.
</event>
<event>
 7    1  0.1999542E-015  0.9000780E+02  0.7816164E-02  0.1186339E+00
        -11   -1    0    0    0    0  0.00000000000E+00  0.00000000000E+00  0.45593999997E+02  0.45594000000E+02  0.51100000000E-03 0. -1.
         11   -1    0    0    0    0 -0.00000000000E+00 -0.00000000000E+00 -0.45593999997E+02  0.45594000000E+02  0.51100000000E-03 0.  1.
    9900012    2    1    2    0    0 -0.29649134897E+00  0.11419530562E+01  0.30087587315E-01  0.90007801218E+02  0.90000063394E+02 0.  0.
         12    1    1    2    0    0  0.29649134897E+00 -0.11419530562E+01 -0.30087587315E-01  0.11801987822E+01  0.00000000000E+00 0. -1.
         11    1    3    3    0    0 -0.35506452289E+01 -0.19945454552E+02 -0.55231951960E+00  0.20266556094E+02  0.51100000000E-03 0. -1.
        -11    1    3    3    0    0 -0.13949254470E+02 -0.10771710484E+02 -0.21135968995E+02  0.27519822540E+02  0.51100000000E-03 0.  1.
        -12    1    3    3    0    0  0.17203408350E+02  0.31859118092E+02  0.21718376102E+02  0.42221422583E+02  0.00000000000E+00 0.  1.
</event>
<event>
 7    1  0.1999542E-015  0.9000779E+02  0.7816164E-02  0.1186339E+00
        -11   -1    0    0    0    0  0.00000000000E+00  0.00000000000E+00  0.45593999997E+02  0.45594000000E+02  0.51100000000E-03 0. -1.
         11   -1    0    0    0    0 -0.00000000000E+00 -0.00000000000E+00 -0.45593999997E+02  0.45594000000E+02  0.51100000000E-03 0.  1.
    9900012    2    1    2    0    0 -0.38790840297E+00 -0.57180679626E+00 -0.95679201614E+00  0.90007793703E+02  0.90000055780E+02 0.  0.
         12    1    1    2    0    0  0.38790840297E+00  0.57180679626E+00  0.95679201614E+00  0.11802062970E+01  0.00000000000E+00 0. -1.
         11    1    3    3    0    0  0.19557918625E+02  0.31379079405E+02 -0.46164526118E+01  0.37262185124E+02  0.51100000000E-03 0. -1.
        -11    1    3    3    0    0 -0.27798718977E+01  0.80219038790E+01  0.36538743993E+01  0.92428041198E+01  0.51100000000E-03 0.  1.
        -12    1    3    3    0    0 -0.17165955130E+02 -0.39972790080E+02  0.57861963288E-02  0.43502804459E+02  0.00000000000E+00 0.  1.
</event>
<event>
 7    1  0.1999542E-015  0.9000772E+02  0.7816164E-02  0.1186339E+00
        -11   -1    0    0    0    0  0.00000000000E+00  0.00000000000E+00  0.45593999997E+02  0.45594000000E+02  0.51100000000E-03 0.  1.
         11   -1    0    0    0    0 -0.00000000000E+00 -0.00000000000E+00 -0.45593999997E+02  0.45594000000E+02  0.51100000000E-03 0. -1.
    9900012    2    1    2    0    0  0.38173334286E+00  0.10249245441E+01  0.44370783296E+00  0.90007717277E+02  0.89999978345E+02 0.  0.
         12    1    1    2    0    0 -0.38173334286E+00 -0.10249245441E+01 -0.44370783296E+00  0.11802827234E+01  0.00000000000E+00 0. -1.
         11    1    3    3    0    0  0.56877938788E+01  0.17048464321E+01 -0.74739663445E+01  0.95455578016E+01  0.51100000000E-03 0. -1.
        -11    1    3    3    0    0 -0.14246169592E+02 -0.37023516981E+02  0.14925478535E+02  0.42384715021E+02  0.51100000000E-03 0.  1.
         12    1    3    3    0    0  0.89401090561E+01  0.36343595093E+02 -0.70078043573E+01  0.38077444454E+02  0.00000000000E+00 0. -1.
</event>
<event>
 7    1  0.1999542E-015  0.9000769E+02  0.7816164E-02  0.1186339E+00
        -11   -1    0    0    0    0  0.00000000000E+00  0.00000000000E+00  0.45593999997E+02  0.45594000000E+02  0.51100000000E-03 0.  1.
         11   -1    0    0    0    0 -0.00000000000E+00 -0.00000000000E+00 -0.45593999997E+02  0.45594000000E+02  0.51100000000E-03 0. -1.
    9900012    2    1    2    0    0 -0.11202593160E+01 -0.36110928635E+00  0.88092737941E-01  0.90007685982E+02  0.89999946636E+02 0.  0.
         12    1    1    2    0    0  0.11202593160E+01  0.36110928635E+00 -0.88092737941E-01  0.11803140185E+01  0.00000000000E+00 0. -1.
         11    1    3    3    0    0 -0.82123669843E+01  0.24050148720E+01  0.42932946086E+01  0.95738940289E+01  0.51100000000E-03 0. -1.
        -11    1    3    3    0    0  0.12729403295E+02 -0.33321977252E+02  0.20137403406E+02  0.40962261808E+02  0.51100000000E-03 0.  1.
         12    1    3    3    0    0 -0.56372956272E+01  0.30555853094E+02 -0.24342605276E+02  0.39471530144E+02  0.00000000000E+00 0. -1.
</event>
<event>
 7    1  0.1999542E-015  0.9000798E+02  0.7816164E-02  0.1186339E+00
        -11   -1    0    0    0    0  0.00000000000E+00  0.00000000000E+00  0.45593999997E+02  0.45594000000E+02  0.51100000000E-03 0.  1.
         11   -1    0    0    0    0 -0.00000000000E+00 -0.00000000000E+00 -0.45593999997E+02  0.45594000000E+02  0.51100000000E-03 0. -1.
    9900012    2    1    2    0    0 -0.56301891938E+00 -0.98102498103E+00 -0.33623086214E+00  0.90007978174E+02  0.90000242686E+02 0.  0.
         12    1    1    2    0    0  0.56301891938E+00  0.98102498103E+00  0.33623086214E+00  0.11800218259E+01  0.00000000000E+00 0. -1.
         11    1    3    3    0    0  0.18493164054E+02 -0.30199537123E+02 -0.18572521122E+02  0.39986844090E+02  0.51100000000E-03 0. -1.
        -11    1    3    3    0    0 -0.53972551561E+01 -0.63155743275E+01  0.51070346838E+01  0.97518534561E+01  0.51100000000E-03 0.  1.
        -12    1    3    3    0    0 -0.13658927818E+02  0.35534086469E+02  0.13129255576E+02  0.40269280628E+02  0.00000000000E+00 0.  1.
</event>
<event>
 7    1  0.1999542E-015  0.9000785E+02  0.7816164E-02  0.1186339E+00
        -11   -1    0    0    0    0  0.00000000000E+00  0.00000000000E+00  0.45593999997E+02  0.45594000000E+02  0.51100000000E-03 0.  1.
         11   -1    0    0    0    0 -0.00000000000E+00 -0.00000000000E+00 -0.45593999997E+02  0.45594000000E+02  0.51100000000E-03 0. -1.
    9900012    2    1    2    0    0  0.81969038384E+00 -0.20407829027E+00  0.82415098814E+00  0.90007845296E+02  0.90000108054E+02 0.  0.
         12    1    1    2    0    0 -0.81969038384E+00  0.20407829027E+00 -0.82415098814E+00  0.11801547039E+01  0.00000000000E+00 0. -1.
         11    1    3    3    0    0 -0.19619666619E+01 -0.10809044355E+02 -0.22263037841E+01  0.11208977735E+02  0.51100000000E-03 0. -1.
        -11    1    3    3    0    0 -0.35100730890E+02 -0.21627564231E+01 -0.10312992732E+02  0.36648282957E+02  0.51100000000E-03 0.  1.
         12    1    3    3    0    0  0.37882387936E+02  0.12767722488E+02  0.13363447504E+02  0.42150584604E+02  0.00000000000E+00 0. -1.
</event>
<event>
 7    1  0.1999542E-015  0.9000786E+02  0.7816164E-02  0.1186339E+00
        -11   -1    0    0    0    0  0.00000000000E+00  0.00000000000E+00  0.45593999997E+02  0.45594000000E+02  0.51100000000E-03 0.  1.
         11   -1    0    0    0    0 -0.00000000000E+00 -0.00000000000E+00 -0.45593999997E+02  0.45594000000E+02  0.51100000000E-03 0. -1.
    9900012    2    1    2    0    0  0.76909131327E+00 -0.45946982972E+00  0.76819021573E+00  0.90007860101E+02  0.90000123055E+02 0.  0.
         12    1    1    2    0    0 -0.76909131327E+00  0.45946982972E+00 -0.76819021573E+00  0.11801398985E+01  0.00000000000E+00 0. -1.
         11    1    3    3    0    0 -0.93308968812E+01  0.11754857628E+00  0.45848253016E+01  0.10397118715E+02  0.51100000000E-03 0. -1.
        -11    1    3    3    0    0 -0.15727183630E+02  0.91495344027E+01  0.30535756265E+02  0.35545614295E+02  0.51100000000E-03 0.  1.
         12    1    3    3    0    0  0.25827171824E+02 -0.97265528087E+01 -0.34352391351E+02  0.44065127091E+02  0.00000000000E+00 0. -1.
</event>
<event>
 7    1  0.1999542E-015  0.9000792E+02  0.7816164E-02  0.1186339E+00
        -11   -1    0    0    0    0  0.00000000000E+00  0.00000000000E+00  0.45593999997E+02  0.45594000000E+02  0.51100000000E-03 0.  1.
         11   -1    0    0    0    0 -0.00000000000E+00 -0.00000000000E+00 -0.45593999997E+02  0.45594000000E+02  0.51100000000E-03 0. -1.
    9900012    2    1    2    0    0 -0.30679573396E+00  0.55206084242E+00  0.99684417123E+00  0.90007918182E+02  0.90000181902E+02 0.  0.
         12    1    1    2    0    0  0.30679573396E+00 -0.55206084242E+00 -0.99684417123E+00  0.11800818183E+01  0.00000000000E+00 0. -1.
         11    1    3    3    0    0  0.49420285990E+01 -0.11639485724E+02 -0.33881339806E+02  0.36164159909E+02  0.51100000000E-03 0. -1.
        -11    1    3    3    0    0 -0.32041457237E+01 -0.26971232849E+01 -0.76592793810E+01  0.87295810169E+01  0.51100000000E-03 0.  1.
        -12    1    3    3    0    0 -0.20446786092E+01  0.14888669851E+02  0.42537463358E+02  0.45114177256E+02  0.00000000000E+00 0.  1.
</event>
<event>
 7    1  0.1999542E-015  0.9000778E+02  0.7816164E-02  0.1186339E+00
        -11   -1    0    0    0    0  0.00000000000E+00  0.00000000000E+00  0.45593999997E+02  0.45594000000E+02  0.51100000000E-03 0.  1.
         11   -1    0    0    0    0 -0.00000000000E+00 -0.00000000000E+00 -0.45593999997E+02  0.45594000000E+02  0.51100000000E-03 0. -1.
    9900012    2    1    2    0    0 -0.11163864894E+01  0.30937878102E-01  0.38162603287E+00  0.90007782065E+02  0.90000043988E+02 0.  0.
         12    1    1    2    0    0  0.11163864894E+01 -0.30937878102E-01 -0.38162603287E+00  0.11802179354E+01  0.00000000000E+00 0. -1.
         11    1    3    3    0    0  0.44639947622E+01  0.19395734194E+01 -0.11902372419E+01  0.50105747415E+01  0.51100000000E-03 0. -1.
        -11    1    3    3    0    0 -0.16687164825E+02 -0.16047200360E+02  0.37929617248E+02  0.44436808775E+02  0.51100000000E-03 0.  1.
         12    1    3    3    0    0  0.11106783573E+02  0.14138564818E+02 -0.36357753973E+02  0.40560398548E+02  0.00000000000E+00 0. -1.
</event>
<event>
 7    1  0.1999542E-015  0.9000772E+02  0.7816164E-02  0.1186339E+00
        -11   -1    0    0    0    0  0.00000000000E+00  0.00000000000E+00  0.45593999997E+02  0.45594000000E+02  0.51100000000E-03 0.  1.
         11   -1    0    0    0    0 -0.00000000000E+00 -0.00000000000E+00 -0.45593999997E+02  0.45594000000E+02  0.51100000000E-03 0. -1.
    9900012    2    1    2    0    0 -0.17694806974E+00 -0.10963933955E+01 -0.39959252062E+00  0.90007718983E+02  0.89999980073E+02 0.  0.
         12    1    1    2    0    0  0.17694806974E+00  0.10963933955E+01  0.39959252062E+00  0.11802810172E+01  0.00000000000E+00 0. -1.
         11    1    3    3    0    0 -0.45948195728E+01 -0.10754888757E+01  0.93908377703E+01  0.10509846693E+02  0.51100000000E-03 0. -1.
        -11    1    3    3    0    0  0.18000273422E+02 -0.37017184821E+01  0.31171949078E+02  0.36185673582E+02  0.51100000000E-03 0.  1.
         12    1    3    3    0    0 -0.13582401919E+02  0.36808139624E+01 -0.40962379369E+02  0.43312198708E+02  0.00000000000E+00 0. -1.
</event>
<event>
 7    1  0.1999542E-015  0.9000789E+02  0.7816164E-02  0.1186339E+00
        -11   -1    0    0    0    0  0.00000000000E+00  0.00000000000E+00  0.45593999997E+02  0.45594000000E+02  0.51100000000E-03 0. -1.
         11   -1    0    0    0    0 -0.00000000000E+00 -0.00000000000E+00 -0.45593999997E+02  0.45594000000E+02  0.51100000000E-03 0.  1.
    9900012    2    1    2    0    0 -0.12079360455E-01 -0.71231066289E+00 -0.94081139232E+00  0.90007890485E+02  0.90000153839E+02 0.  0.
         12    1    1    2    0    0  0.12079360455E-01  0.71231066289E+00  0.94081139232E+00  0.11801095150E+01  0.00000000000E+00 0. -1.
         11    1    3    3    0    0  0.32222246540E+02  0.12833382064E+02  0.46655672461E+01  0.34996233873E+02  0.51100000000E-03 0. -1.
        -11    1    3    3    0    0  0.53841634421E+00  0.97422243258E+01  0.79474590694E+01  0.12584233504E+02  0.51100000000E-03 0.  1.
        -12    1    3    3    0    0 -0.32772742245E+02 -0.23287917053E+02 -0.13553837708E+02  0.42427423107E+02  0.00000000000E+00 0.  1.
</event>
<event>
 7    1  0.1999542E-015  0.9000788E+02  0.7816164E-02  0.1186339E+00
        -11   -1    0    0    0    0  0.00000000000E+00  0.00000000000E+00  0.45593999997E+02  0.45594000000E+02  0.51100000000E-03 0. -1.
         11   -1    0    0    0    0 -0.00000000000E+00 -0.00000000000E+00 -0.45593999997E+02  0.45594000000E+02  0.51100000000E-03 0.  1.
    9900012    2    1    2    0    0 -0.73320668338E-01 -0.91905625510E+00 -0.73665086075E+00  0.90007875087E+02  0.90000138238E+02 0.  0.
         12    1    1    2    0    0  0.73320668338E-01  0.91905625510E+00  0.73665086075E+00  0.11801249133E+01  0.00000000000E+00 0. -1.
         11    1    3    3    0    0 -0.37157898088E+01 -0.75294486077E+01  0.16466579336E+01  0.85563527773E+01  0.51100000000E-03 0. -1.
        -11    1    3    3    0    0 -0.26572356633E+02 -0.17100393940E+02 -0.21824982879E+02  0.38403691071E+02  0.51100000000E-03 0.  1.
         12    1    3    3    0    0  0.30214825774E+02  0.23710786293E+02  0.19441674084E+02  0.43047831239E+02  0.00000000000E+00 0. -1.
</event>
<event>
 7    1  0.1999542E-015  0.9000781E+02  0.7816164E-02  0.1186339E+00
        -11   -1    0    0    0    0  0.00000000000E+00  0.00000000000E+00  0.45593999997E+02  0.45594000000E+02  0.51100000000E-03 0.  1.
         11   -1    0    0    0    0 -0.00000000000E+00 -0.00000000000E+00 -0.45593999997E+02  0.45594000000E+02  0.51100000000E-03 0. -1.
    9900012    2    1    2    0    0  0.51339406132E-01  0.11712005826E+01 -0.13605658711E+00  0.90007805976E+02  0.90000068215E+02 0.  0.
         12    1    1    2    0    0 -0.51339406132E-01 -0.11712005826E+01  0.13605658711E+00  0.11801940240E+01  0.00000000000E+00 0. -1.
         11    1    3    3    0    0  0.67057729852E+01  0.22415877163E+01 -0.76253334170E+01  0.10398933445E+02  0.51100000000E-03 0. -1.
        -11    1    3    3    0    0  0.18803413275E+02  0.32224427205E+02  0.46939013672E+01  0.37603387743E+02  0.51100000000E-03 0.  1.
         12    1    3    3    0    0 -0.25457846854E+02 -0.33294814339E+02  0.27953754627E+01  0.42005484788E+02  0.00000000000E+00 0. -1.
</event>
<event>
 7    1  0.1999542E-015  0.9000796E+02  0.7816164E-02  0.1186339E+00
        -11   -1    0    0    0    0  0.00000000000E+00  0.00000000000E+00  0.45593999997E+02  0.45594000000E+02  0.51100000000E-03 0.  1.
         11   -1    0    0    0    0 -0.00000000000E+00 -0.00000000000E+00 -0.45593999997E+02  0.45594000000E+02  0.51100000000E-03 0. -1.
    9900012    2    1    2    0    0  0.25643120962E+00  0.33410136355E+00  0.11023248636E+01  0.90007957293E+02  0.90000221529E+02 0.  0.
         12    1    1    2    0    0 -0.25643120962E+00 -0.33410136355E+00 -0.11023248636E+01  0.11800427074E+01  0.00000000000E+00 0. -1.
         11    1    3    3    0    0  0.19639710078E+02 -0.30391520433E+02 -0.17350517473E+02  0.40129829093E+02  0.51100000000E-03 0. -1.
        -11    1    3    3    0    0  0.51625328684E+01  0.49323565521E+00  0.80405801177E+01  0.95679650876E+01  0.51100000000E-03 0.  1.
        -12    1    3    3    0    0 -0.24545811737E+02  0.30232386142E+02  0.10412262218E+02  0.40310163112E+02  0.00000000000E+00 0.  1.
</event>
<event>
 7    1  0.1999542E-015  0.9000774E+02  0.7816164E-02  0.1186339E+00
        -11   -1    0    0    0    0  0.00000000000E+00  0.00000000000E+00  0.45593999997E+02  0.45594000000E+02  0.51100000000E-03 0.  1.
         11   -1    0    0    0    0 -0.00000000000E+00 -0.00000000000E+00 -0.45593999997E+02  0.45594000000E+02  0.51100000000E-03 0. -1.
    9900012    2    1    2    0    0  0.65869885891E+00  0.95734560961E+00  0.20643692929E+00  0.90007741126E+02  0.90000002509E+02 0.  0.
         12    1    1    2    0    0 -0.65869885891E+00 -0.95734560961E+00 -0.20643692929E+00  0.11802588736E+01  0.00000000000E+00 0. -1.
         11    1    3    3    0    0 -0.18369844070E+01  0.25735457506E+02 -0.26665763380E+02  0.37104598390E+02  0.51100000000E-03 0. -1.
        -11    1    3    3    0    0  0.49160110532E+01  0.50288751767E+00 -0.82164474515E+01  0.95880169752E+01  0.51100000000E-03 0.  1.
        -12    1    3    3    0    0 -0.24203277873E+01 -0.25280999414E+02  0.35088647761E+02  0.43315125761E+02  0.00000000000E+00 0.  1.
</event>
<event>
 7    1  0.1999542E-015  0.9000772E+02  0.7816164E-02  0.1186339E+00
        -11   -1    0    0    0    0  0.00000000000E+00  0.00000000000E+00  0.45593999997E+02  0.45594000000E+02  0.51100000000E-03 0.  1.
         11   -1    0    0    0    0 -0.00000000000E+00 -0.00000000000E+00 -0.45593999997E+02  0.45594000000E+02  0.51100000000E-03 0. -1.
    9900012    2    1    2    0    0 -0.27797939910E+00  0.99152362854E+00  0.57677352218E+00  0.90007720648E+02  0.89999981761E+02 0.  0.
         12    1    1    2    0    0  0.27797939910E+00 -0.99152362854E+00 -0.57677352218E+00  0.11802793518E+01  0.00000000000E+00 0. -1.
         11    1    3    3    0    0  0.10781179562E+02  0.34895298476E+02  0.23006404624E+02  0.43164920276E+02  0.51100000000E-03 0. -1.
        -11    1    3    3    0    0 -0.37618086457E+01  0.10841933692E+01 -0.67730301722E+01  0.78230823543E+01  0.51100000000E-03 0.  1.
        -12    1    3    3    0    0 -0.72973503154E+01 -0.34987968216E+02 -0.15656600930E+02  0.39019718018E+02  0.00000000000E+00 0.  1.
</event>
<event>
 7    1  0.2675077E-015  0.9000798E+02  0.7816164E-02  0.1186339E+00
        -11   -1    0    0    0    0  0.00000000000E+00  0.00000000000E+00  0.45593999997E+02  0.45594000000E+02  0.51100000000E-03 0. -1.
         11   -1    0    0    0    0 -0.00000000000E+00 -0.00000000000E+00 -0.45593999997E+02  0.45594000000E+02  0.51100000000E-03 0.  1.
    9900012    2    1    2    0    0 -0.17300031530E+00  0.41695705088E+00 -0.10902613420E+01  0.90007977930E+02  0.90000242439E+02 0.  0.
         12    1    1    2    0    0  0.17300031530E+00 -0.41695705088E+00  0.10902613420E+01  0.11800220698E+01  0.00000000000E+00 0. -1.
         11    1    3    3    0    0 -0.19080324024E+02 -0.10778698826E+02  0.31292117333E+02  0.38202561703E+02  0.51100000000E-03 0. -1.
        -11    1    3    3    0    0 -0.83433964032E+01  0.29210295938E+01 -0.21507380669E+00  0.88425637930E+01  0.51100000000E-03 0.  1.
        -12    1    3    3    0    0  0.27250720112E+02  0.82746262830E+01 -0.32167304868E+02  0.42962852434E+02  0.00000000000E+00 0.  1.
</event>
<event>
 7    1  0.1999542E-015  0.9000767E+02  0.7816164E-02  0.1186339E+00
        -11   -1    0    0    0    0  0.00000000000E+00  0.00000000000E+00  0.45593999997E+02  0.45594000000E+02  0.51100000000E-03 0.  1.
         11   -1    0    0    0    0 -0.00000000000E+00 -0.00000000000E+00 -0.45593999997E+02  0.45594000000E+02  0.51100000000E-03 0. -1.
    9900012    2    1    2    0    0  0.91779581476E+00  0.43827445126E+00  0.59896283696E+00  0.90007665246E+02  0.89999925627E+02 0.  0.
         12    1    1    2    0    0 -0.91779581476E+00 -0.43827445126E+00 -0.59896283696E+00  0.11803347543E+01  0.00000000000E+00 0. -1.
         11    1    3    3    0    0 -0.33559442924E+02 -0.18449262490E+02 -0.18358719096E+01  0.38340343266E+02  0.51100000000E-03 0. -1.
        -11    1    3    3    0    0  0.11315848975E+01  0.15006227653E+02  0.88943247294E+01  0.17480742702E+02  0.51100000000E-03 0.  1.
        -12    1    3    3    0    0  0.33345653841E+02  0.38813092882E+01 -0.64594899828E+01  0.34186579278E+02  0.00000000000E+00 0.  1.
</event>
<event>
 7    1  0.1999542E-015  0.9000769E+02  0.7816164E-02  0.1186339E+00
        -11   -1    0    0    0    0  0.00000000000E+00  0.00000000000E+00  0.45593999997E+02  0.45594000000E+02  0.51100000000E-03 0.  1.
         11   -1    0    0    0    0 -0.00000000000E+00 -0.00000000000E+00 -0.45593999997E+02  0.45594000000E+02  0.51100000000E-03 0. -1.
    9900012    2    1    2    0    0 -0.92684949160E+00  0.13617175843E+00 -0.71801190796E+00  0.90007689097E+02  0.89999949793E+02 0.  0.
         12    1    1    2    0    0  0.92684949160E+00 -0.13617175843E+00  0.71801190796E+00  0.11803109030E+01  0.00000000000E+00 0. -1.
         11    1    3    3    0    0  0.92373914840E+01 -0.24779740968E+02 -0.25410163278E+02  0.36674805547E+02  0.51100000000E-03 0. -1.
        -11    1    3    3    0    0 -0.18094385055E+02 -0.29017901525E+01  0.88044243563E+01  0.20330888940E+02  0.51100000000E-03 0.  1.
        -12    1    3    3    0    0  0.79301440791E+01  0.27817702879E+02  0.15887727013E+02  0.33001994610E+02  0.00000000000E+00 0.  1.
</event>
<event>
 7    1  0.1999542E-015  0.9000782E+02  0.7816164E-02  0.1186339E+00
        -11   -1    0    0    0    0  0.00000000000E+00  0.00000000000E+00  0.45593999997E+02  0.45594000000E+02  0.51100000000E-03 0.  1.
         11   -1    0    0    0    0 -0.00000000000E+00 -0.00000000000E+00 -0.45593999997E+02  0.45594000000E+02  0.51100000000E-03 0. -1.
    9900012    2    1    2    0    0  0.58072045448E+00  0.41151063821E+00  0.94141114784E+00  0.90007816878E+02  0.90000079261E+02 0.  0.
         12    1    1    2    0    0 -0.58072045448E+00 -0.41151063821E+00 -0.94141114784E+00  0.11801831218E+01  0.00000000000E+00 0. -1.
         11    1    3    3    0    0 -0.49234437284E+01  0.81880552557E+01 -0.13680426781E+01  0.96517401564E+01  0.51100000000E-03 0. -1.
        -11    1    3    3    0    0  0.10893999196E+01  0.17902999634E+02  0.34534674874E+02  0.38914623948E+02  0.51100000000E-03 0.  1.
         12    1    3    3    0    0  0.44147642632E+01 -0.25679544251E+02 -0.32225221048E+02  0.41441452774E+02  0.00000000000E+00 0. -1.
</event>
<event>
 7    1  0.1999542E-015  0.9000771E+02  0.7816164E-02  0.1186339E+00
        -11   -1    0    0    0    0  0.00000000000E+00  0.00000000000E+00  0.45593999997E+02  0.45594000000E+02  0.51100000000E-03 0.  1.
         11   -1    0    0    0    0 -0.00000000000E+00 -0.00000000000E+00 -0.45593999997E+02  0.45594000000E+02  0.51100000000E-03 0. -1.
    9900012    2    1    2    0    0 -0.20636175667E+00  0.11617596343E+01 -0.28708831101E-01  0.90007705622E+02  0.89999966536E+02 0.  0.
         12    1    1    2    0    0  0.20636175667E+00 -0.11617596343E+01  0.28708831101E-01  0.11802943783E+01  0.00000000000E+00 0. -1.
         11    1    3    3    0    0  0.35203786286E+01 -0.52492642929E+01 -0.80638956945E+01  0.10245694478E+02  0.51100000000E-03 0. -1.
        -11    1    3    3    0    0 -0.24591417221E+02  0.35505484273E+02  0.81871204864E+01  0.43959141899E+02  0.51100000000E-03 0.  1.
         12    1    3    3    0    0  0.20864676836E+02 -0.29094460346E+02 -0.15193362292E+00  0.35802869244E+02  0.00000000000E+00 0. -1.
</event>
<event>
 7    1  0.1999542E-015  0.9000767E+02  0.7816164E-02  0.1186339E+00
        -11   -1    0    0    0    0  0.00000000000E+00  0.00000000000E+00  0.45593999997E+02  0.45594000000E+02  0.51100000000E-03 0.  1.
         11   -1    0    0    0    0 -0.00000000000E+00 -0.00000000000E+00 -0.45593999997E+02  0.45594000000E+02  0.51100000000E-03 0. -1.
    9900012    2    1    2    0    0  0.10684539819E+00  0.11570991410E+01  0.20710808776E+00  0.90007666098E+02  0.89999926490E+02 0.  0.
         12    1    1    2    0    0 -0.10684539819E+00 -0.11570991410E+01 -0.20710808776E+00  0.11803339024E+01  0.00000000000E+00 0. -1.
         11    1    3    3    0    0  0.12354274032E+02 -0.23068965122E+02 -0.31655606671E+02  0.41071677257E+02  0.51100000000E-03 0. -1.
        -11    1    3    3    0    0  0.31301482247E+01  0.11241614763E+01  0.17258350213E+02  0.17575898819E+02  0.51100000000E-03 0.  1.
        -12    1    3    3    0    0 -0.15377576859E+02  0.23101902787E+02  0.14604364546E+02  0.31360090022E+02  0.00000000000E+00 0.  1.
</event>
<event>
 7    1  0.1999542E-015  0.9000774E+02  0.7816164E-02  0.1186339E+00
        -11   -1    0    0    0    0  0.00000000000E+00  0.00000000000E+00  0.45593999997E+02  0.45594000000E+02  0.51100000000E-03 0.  1.
         11   -1    0    0    0    0 -0.00000000000E+00 -0.00000000000E+00 -0.45593999997E+02  0.45594000000E+02  0.51100000000E-03 0. -1.
    9900012    2    1    2    0    0  0.10599254657E+01  0.50743481662E+00 -0.10989391730E+00  0.90007742079E+02  0.90000003475E+02 0.  0.
         12    1    1    2    0    0 -0.10599254657E+01 -0.50743481662E+00  0.10989391730E+00  0.11802579206E+01  0.00000000000E+00 0. -1.
         11    1    3    3    0    0 -0.32076730791E+02 -0.11178161414E+02 -0.16399511466E+02  0.37720179313E+02  0.51100000000E-03 0. -1.
        -11    1    3    3    0    0  0.14256194311E+01 -0.20474052240E+01 -0.90809330969E+01  0.94174096802E+01  0.51100000000E-03 0.  1.
        -12    1    3    3    0    0  0.31711036826E+02  0.13733001455E+02  0.25370550646E+02  0.42870153086E+02  0.00000000000E+00 0.  1.
</event>
<event>
 7    1  0.1999542E-015  0.9000777E+02  0.7816164E-02  0.1186339E+00
        -11   -1    0    0    0    0  0.00000000000E+00  0.00000000000E+00  0.45593999997E+02  0.45594000000E+02  0.51100000000E-03 0.  1.
         11   -1    0    0    0    0 -0.00000000000E+00 -0.00000000000E+00 -0.45593999997E+02  0.45594000000E+02  0.51100000000E-03 0. -1.
    9900012    2    1    2    0    0 -0.46455399667E+00 -0.10829848473E+01 -0.65378377389E-01  0.90007770816E+02  0.90000032590E+02 0.  0.
         12    1    1    2    0    0  0.46455399667E+00  0.10829848473E+01  0.65378377389E-01  0.11802291843E+01  0.00000000000E+00 0. -1.
         11    1    3    3    0    0  0.20279544093E+01 -0.38880357025E+02 -0.96671120372E+01  0.40115431157E+02  0.51100000000E-03 0. -1.
        -11    1    3    3    0    0 -0.28215245624E+01  0.43845541659E+00 -0.80722359457E+01  0.85623733528E+01  0.51100000000E-03 0.  1.
        -12    1    3    3    0    0  0.32901615640E+00  0.37358916762E+02  0.17673969606E+02  0.41329966306E+02  0.00000000000E+00 0.  1.
</event>
<event>
 7    1  0.1999542E-015  0.9000775E+02  0.7816164E-02  0.1186339E+00
        -11   -1    0    0    0    0  0.00000000000E+00  0.00000000000E+00  0.45593999997E+02  0.45594000000E+02  0.51100000000E-03 0.  1.
         11   -1    0    0    0    0 -0.00000000000E+00 -0.00000000000E+00 -0.45593999997E+02  0.45594000000E+02  0.51100000000E-03 0. -1.
    9900012    2    1    2    0    0 -0.10427340939E+00  0.11756334862E+01 -0.30558465027E-02  0.90007747325E+02  0.90000008790E+02 0.  0.
         12    1    1    2    0    0  0.10427340939E+00 -0.11756334862E+01  0.30558465027E-02  0.11802526746E+01  0.00000000000E+00 0. -1.
         11    1    3    3    0    0  0.11150653277E+02  0.14765735560E+02 -0.37649632368E+02  0.41950671423E+02  0.51100000000E-03 0. -1.
        -11    1    3    3    0    0 -0.90893784489E+01  0.26735497124E+01  0.33698137335E+01  0.10055859660E+02  0.51100000000E-03 0.  1.
        -12    1    3    3    0    0 -0.21655482379E+01 -0.16263651786E+02  0.34276762788E+02  0.38001216242E+02  0.00000000000E+00 0.  1.
</event>
<event>
 7    1  0.1999542E-015  0.9000755E+02  0.7816164E-02  0.1186339E+00
        -11   -1    0    0    0    0  0.00000000000E+00  0.00000000000E+00  0.45593999997E+02  0.45594000000E+02  0.51100000000E-03 0.  1.
         11   -1    0    0    0    0 -0.00000000000E+00 -0.00000000000E+00 -0.45593999997E+02  0.45594000000E+02  0.51100000000E-03 0. -1.
    9900012    2    1    2    0    0  0.73227465337E+00 -0.24598847669E+00  0.89259390060E+00  0.90007550776E+02  0.89999809646E+02 0.  0.
         12    1    1    2    0    0 -0.73227465337E+00  0.24598847669E+00 -0.89259390060E+00  0.11804492238E+01  0.00000000000E+00 0. -1.
         11    1    3    3    0    0  0.59266962464E+01 -0.47310825966E+01 -0.10647129611E+02  0.13071734397E+02  0.51100000000E-03 0. -1.
        -11    1    3    3    0    0  0.15132424932E+02 -0.13643111079E+02  0.35322423097E+02  0.40777424366E+02  0.51100000000E-03 0.  1.
         12    1    3    3    0    0 -0.20326846525E+02  0.18128205199E+02 -0.23782699586E+02  0.36158392013E+02  0.00000000000E+00 0. -1.
</event>
<event>
 7    1  0.1999542E-015  0.9000771E+02  0.7816164E-02  0.1186339E+00
        -11   -1    0    0    0    0  0.00000000000E+00  0.00000000000E+00  0.45593999997E+02  0.45594000000E+02  0.51100000000E-03 0.  1.
         11   -1    0    0    0    0 -0.00000000000E+00 -0.00000000000E+00 -0.45593999997E+02  0.45594000000E+02  0.51100000000E-03 0. -1.
    9900012    2    1    2    0    0 -0.47219919132E+00 -0.97977906624E+00  0.45842369123E+00  0.90007707081E+02  0.89999968014E+02 0.  0.
         12    1    1    2    0    0  0.47219919132E+00  0.97977906624E+00 -0.45842369123E+00  0.11802929194E+01  0.00000000000E+00 0. -1.
         11    1    3    3    0    0  0.27146316483E+02 -0.78088968032E+01 -0.26706622720E+02  0.38873449362E+02  0.51100000000E-03 0. -1.
        -11    1    3    3    0    0 -0.10220261032E+01  0.10285051461E+02 -0.30078345078E+01  0.10764473494E+02  0.51100000000E-03 0.  1.
        -12    1    3    3    0    0 -0.26596489571E+02 -0.34559337242E+01  0.30172880919E+02  0.40369784225E+02  0.00000000000E+00 0.  1.
</event>
<event>
 7    1  0.1999542E-015  0.9000784E+02  0.7816164E-02  0.1186339E+00
        -11   -1    0    0    0    0  0.00000000000E+00  0.00000000000E+00  0.45593999997E+02  0.45594000000E+02  0.51100000000E-03 0. -1.
         11   -1    0    0    0    0 -0.00000000000E+00 -0.00000000000E+00 -0.45593999997E+02  0.45594000000E+02  0.51100000000E-03 0.  1.
    9900012    2    1    2    0    0  0.10353776102E+01  0.47197553458E+00 -0.31307562630E+00  0.90007837279E+02  0.90000099931E+02 0.  0.
         12    1    1    2    0    0 -0.10353776102E+01 -0.47197553458E+00  0.31307562630E+00  0.11801627213E+01  0.00000000000E+00 0. -1.
         11    1    3    3    0    0  0.37407569564E+02 -0.13508496339E+02 -0.74671883600E+00  0.39778930646E+02  0.51100000000E-03 0. -1.
        -11    1    3    3    0    0 -0.64283073677E+00 -0.52141867157E+01  0.74008325119E+01  0.90759735893E+01  0.51100000000E-03 0.  1.
        -12    1    3    3    0    0 -0.35729361217E+02  0.19194658590E+02 -0.69671893022E+01  0.41152933044E+02  0.00000000000E+00 0.  1.
</event>
<event>
 7    1  0.1999542E-015  0.9000793E+02  0.7816164E-02  0.1186339E+00
        -11   -1    0    0    0    0  0.00000000000E+00  0.00000000000E+00  0.45593999997E+02  0.45594000000E+02  0.51100000000E-03 0.  1.
         11   -1    0    0    0    0 -0.00000000000E+00 -0.00000000000E+00 -0.45593999997E+02  0.45594000000E+02  0.51100000000E-03 0. -1.
    9900012    2    1    2    0    0 -0.90358470226E+00  0.73616169150E+00 -0.18482974463E+00  0.90007931619E+02  0.90000195516E+02 0.  0.
         12    1    1    2    0    0  0.90358470226E+00 -0.73616169150E+00  0.18482974463E+00  0.11800683814E+01  0.00000000000E+00 0. -1.
         11    1    3    3    0    0 -0.10494361076E+02 -0.70966812230E+01  0.10156354307E+02  0.16237180538E+02  0.51100000000E-03 0. -1.
        -11    1    3    3    0    0 -0.12414418107E+02  0.49263740478E+00  0.27050898161E+02  0.29767626041E+02  0.51100000000E-03 0.  1.
         12    1    3    3    0    0  0.22005194481E+02  0.73402055097E+01 -0.37392082212E+02  0.44003125039E+02  0.00000000000E+00 0. -1.
</event>
<event>
 7    1  0.1999542E-015  0.9000768E+02  0.7816164E-02  0.1186339E+00
        -11   -1    0    0    0    0  0.00000000000E+00  0.00000000000E+00  0.45593999997E+02  0.45594000000E+02  0.51100000000E-03 0. -1.
         11   -1    0    0    0    0 -0.00000000000E+00 -0.00000000000E+00 -0.45593999997E+02  0.45594000000E+02  0.51100000000E-03 0.  1.
    9900012    2    1    2    0    0  0.88046899641E+00 -0.40775960998E+00 -0.67206090419E+00  0.90007678259E+02  0.89999938812E+02 0.  0.
         12    1    1    2    0    0 -0.88046899641E+00  0.40775960998E+00  0.67206090419E+00  0.11803217409E+01  0.00000000000E+00 0. -1.
         11    1    3    3    0    0 -0.33389855044E+01 -0.32823054571E+01  0.31105884921E+02  0.31456293970E+02  0.51100000000E-03 0. -1.
        -11    1    3    3    0    0  0.59570021421E+01 -0.33813835098E+01  0.12256574496E+02  0.14040770905E+02  0.51100000000E-03 0.  1.
        -12    1    3    3    0    0 -0.17375476412E+01  0.62559293568E+01 -0.44034520322E+02  0.44510613385E+02  0.00000000000E+00 0.  1.
</event>
<event>
 7    1  0.1999542E-015  0.9000780E+02  0.7816164E-02  0.1186339E+00
        -11   -1    0    0    0    0  0.00000000000E+00  0.00000000000E+00  0.45593999997E+02  0.45594000000E+02  0.51100000000E-03 0.  1.
         11   -1    0    0    0    0 -0.00000000000E+00 -0.00000000000E+00 -0.45593999997E+02  0.45594000000E+02  0.51100000000E-03 0. -1.
    9900012    2    1    2    0    0 -0.67518078824E+00  0.47851889145E+00  0.84143756082E+00  0.90007802307E+02  0.90000064497E+02 0.  0.
         12    1    1    2    0    0  0.67518078824E+00 -0.47851889145E+00 -0.84143756082E+00  0.11801976932E+01  0.00000000000E+00 0. -1.
         11    1    3    3    0    0  0.54930790775E+01  0.66835612277E+01  0.16125144308E+01  0.88002336041E+01  0.51100000000E-03 0. -1.
        -11    1    3    3    0    0 -0.32665007009E+01  0.65130209300E+01  0.38832881472E+02  0.39510532167E+02  0.51100000000E-03 0.  1.
         12    1    3    3    0    0 -0.29017591648E+01 -0.12718063266E+02 -0.39603958342E+02  0.41697036536E+02  0.00000000000E+00 0. -1.
</event>
<event>
 7    1  0.1999542E-015  0.9000775E+02  0.7816164E-02  0.1186339E+00
        -11   -1    0    0    0    0  0.00000000000E+00  0.00000000000E+00  0.45593999997E+02  0.45594000000E+02  0.51100000000E-03 0.  1.
         11   -1    0    0    0    0 -0.00000000000E+00 -0.00000000000E+00 -0.45593999997E+02  0.45594000000E+02  0.51100000000E-03 0. -1.
    9900012    2    1    2    0    0 -0.49965077392E+00  0.87043280784E+00  0.62104422570E+00  0.90007745748E+02  0.90000007192E+02 0.  0.
         12    1    1    2    0    0  0.49965077392E+00 -0.87043280784E+00 -0.62104422570E+00  0.11802542519E+01  0.00000000000E+00 0. -1.
         11    1    3    3    0    0  0.10322669750E+02  0.24670960912E+02 -0.27681267164E+02  0.38489821709E+02  0.51100000000E-03 0. -1.
        -11    1    3    3    0    0 -0.71350326965E+01 -0.31653609017E+01 -0.69845950713E+01  0.10474386368E+02  0.51100000000E-03 0.  1.
        -12    1    3    3    0    0 -0.36872878272E+01 -0.20635167202E+02  0.35286906461E+02  0.41043537671E+02  0.00000000000E+00 0.  1.
</event>
<event>
 7    1  0.1999542E-015  0.9000777E+02  0.7816164E-02  0.1186339E+00
        -11   -1    0    0    0    0  0.00000000000E+00  0.00000000000E+00  0.45593999997E+02  0.45594000000E+02  0.51100000000E-03 0. -1.
         11   -1    0    0    0    0 -0.00000000000E+00 -0.00000000000E+00 -0.45593999997E+02  0.45594000000E+02  0.51100000000E-03 0.  1.
    9900012    2    1    2    0    0  0.55498204318E+00 -0.80211960629E+00 -0.66448842265E+00  0.90007768754E+02  0.90000030501E+02 0.  0.
         12    1    1    2    0    0 -0.55498204318E+00  0.80211960629E+00  0.66448842265E+00  0.11802312464E+01  0.00000000000E+00 0. -1.
         11    1    3    3    0    0  0.13911718876E+01  0.72280920515E+00 -0.95947626321E+01  0.97219999278E+01  0.51100000000E-03 0. -1.
        -11    1    3    3    0    0  0.27402233015E+02  0.13790018134E+02 -0.20355847282E+02  0.36815859262E+02  0.51100000000E-03 0.  1.
         12    1    3    3    0    0 -0.28238422859E+02 -0.15314946945E+02  0.29286121492E+02  0.43469909564E+02  0.00000000000E+00 0. -1.
</event>
<event>
 7    1  0.2103724E-015  0.9000784E+02  0.7816164E-02  0.1186339E+00
        -11   -1    0    0    0    0  0.00000000000E+00  0.00000000000E+00  0.45593999997E+02  0.45594000000E+02  0.51100000000E-03 0. -1.
         11   -1    0    0    0    0 -0.00000000000E+00 -0.00000000000E+00 -0.45593999997E+02  0.45594000000E+02  0.51100000000E-03 0.  1.
    9900012    2    1    2    0    0 -0.23003228043E+00  0.10415187744E+01 -0.50508355437E+00  0.90007836620E+02  0.90000099263E+02 0.  0.
         12    1    1    2    0    0  0.23003228043E+00 -0.10415187744E+01  0.50508355437E+00  0.11801633804E+01  0.00000000000E+00 0. -1.
         11    1    3    3    0    0 -0.26393617576E+02 -0.22045271814E+02 -0.16814453929E+02  0.38279797796E+02  0.51100000000E-03 0. -1.
        -11    1    3    3    0    0 -0.85338170500E+01  0.33661017698E+01  0.27375005066E+01  0.95734311432E+01  0.51100000000E-03 0.  1.
        -12    1    3    3    0    0  0.34697402346E+02  0.19720688818E+02  0.13571869868E+02  0.42154607681E+02  0.00000000000E+00 0.  1.
</event>
<event>
 7    1  0.1999542E-015  0.9000788E+02  0.7816164E-02  0.1186339E+00
        -11   -1    0    0    0    0  0.00000000000E+00  0.00000000000E+00  0.45593999997E+02  0.45594000000E+02  0.51100000000E-03 0.  1.
         11   -1    0    0    0    0 -0.00000000000E+00 -0.00000000000E+00 -0.45593999997E+02  0.45594000000E+02  0.51100000000E-03 0. -1.
    9900012    2    1    2    0    0 -0.86710325362E+00  0.73727360325E+00 -0.31184646831E+00  0.90007877702E+02  0.90000140888E+02 0.  0.
         12    1    1    2    0    0  0.86710325362E+00 -0.73727360325E+00  0.31184646831E+00  0.11801222980E+01  0.00000000000E+00 0. -1.
         11    1    3    3    0    0  0.32811669552E+02 -0.15587329275E+02  0.14555259838E+02  0.39133439434E+02  0.51100000000E-03 0. -1.
        -11    1    3    3    0    0 -0.15439996837E+01  0.47931597868E+01  0.82342377020E+01  0.96519939162E+01  0.51100000000E-03 0.  1.
        -12    1    3    3    0    0 -0.32134773122E+02  0.11531443091E+02 -0.23101344008E+02  0.41222444352E+02  0.00000000000E+00 0.  1.
</event>
<event>
 7    1  0.1999542E-015  0.9000762E+02  0.7816164E-02  0.1186339E+00
        -11   -1    0    0    0    0  0.00000000000E+00  0.00000000000E+00  0.45593999997E+02  0.45594000000E+02  0.51100000000E-03 0. -1.
         11   -1    0    0    0    0 -0.00000000000E+00 -0.00000000000E+00 -0.45593999997E+02  0.45594000000E+02  0.51100000000E-03 0.  1.
    9900012    2    1    2    0    0  0.41978683797E+00 -0.10100836733E+01  0.44361937497E+00  0.90007623718E+02  0.89999883551E+02 0.  0.
         12    1    1    2    0    0 -0.41978683797E+00  0.10100836733E+01 -0.44361937497E+00  0.11803762817E+01  0.00000000000E+00 0. -1.
         11    1    3    3    0    0  0.67424740966E-01  0.20005218805E+01  0.86101526457E+01  0.88397603323E+01  0.51100000000E-03 0. -1.
        -11    1    3    3    0    0 -0.85533925328E+01  0.35092792611E+02  0.10776549114E+02  0.37693482568E+02  0.51100000000E-03 0.  1.
         12    1    3    3    0    0  0.89057546298E+01 -0.38103398165E+02 -0.18943082385E+02  0.43474380818E+02  0.00000000000E+00 0. -1.
</event>
<event>
 7    1  0.1999542E-015  0.9000762E+02  0.7816164E-02  0.1186339E+00
        -11   -1    0    0    0    0  0.00000000000E+00  0.00000000000E+00  0.45593999997E+02  0.45594000000E+02  0.51100000000E-03 0. -1.
         11   -1    0    0    0    0 -0.00000000000E+00 -0.00000000000E+00 -0.45593999997E+02  0.45594000000E+02  0.51100000000E-03 0.  1.
    9900012    2    1    2    0    0 -0.62714612845E+00  0.75292072270E+00  0.65810552372E+00  0.90007616689E+02  0.89999876429E+02 0.  0.
         12    1    1    2    0    0  0.62714612845E+00 -0.75292072270E+00 -0.65810552372E+00  0.11803833112E+01  0.00000000000E+00 0. -1.
         11    1    3    3    0    0 -0.96269785206E+00  0.13036257528E+01  0.10871094301E+02  0.10991220079E+02  0.51100000000E-03 0. -1.
        -11    1    3    3    0    0 -0.20591383506E+02  0.26532351509E+02 -0.24862849349E+02  0.41786744660E+02  0.51100000000E-03 0.  1.
         12    1    3    3    0    0  0.20926935229E+02 -0.27083056539E+02  0.14649860571E+02  0.37229651950E+02  0.00000000000E+00 0. -1.
</event>
<event>
 7    1  0.1999542E-015  0.9000777E+02  0.7816164E-02  0.1186339E+00
        -11   -1    0    0    0    0  0.00000000000E+00  0.00000000000E+00  0.45593999997E+02  0.45594000000E+02  0.51100000000E-03 0. -1.
         11   -1    0    0    0    0 -0.00000000000E+00 -0.00000000000E+00 -0.45593999997E+02  0.45594000000E+02  0.51100000000E-03 0.  1.
    9900012    2    1    2    0    0  0.43330412255E+00  0.93761470222E+00  0.57103475236E+00  0.90007765074E+02  0.90000026773E+02 0.  0.
         12    1    1    2    0    0 -0.43330412255E+00 -0.93761470222E+00 -0.57103475236E+00  0.11802349261E+01  0.00000000000E+00 0. -1.
         11    1    3    3    0    0  0.98178220007E+01  0.21190642332E+02  0.28976924008E+02  0.37216865485E+02  0.51100000000E-03 0. -1.
        -11    1    3    3    0    0 -0.69684879828E+01 -0.72892015170E+01  0.87581816252E+01  0.13356572508E+02  0.51100000000E-03 0.  1.
        -12    1    3    3    0    0 -0.24160298953E+01 -0.12963826113E+02 -0.37164070881E+02  0.39434327081E+02  0.00000000000E+00 0.  1.
</event>
<event>
 7    1  0.1999542E-015  0.9000764E+02  0.7816164E-02  0.1186339E+00
        -11   -1    0    0    0    0  0.00000000000E+00  0.00000000000E+00  0.45593999997E+02  0.45594000000E+02  0.51100000000E-03 0.  1.
         11   -1    0    0    0    0 -0.00000000000E+00 -0.00000000000E+00 -0.45593999997E+02  0.45594000000E+02  0.51100000000E-03 0. -1.
    9900012    2    1    2    0    0  0.75102637734E+00  0.85831283372E+00 -0.30416360794E+00  0.90007636903E+02  0.89999896910E+02 0.  0.
         12    1    1    2    0    0 -0.75102637734E+00 -0.85831283372E+00  0.30416360794E+00  0.11803630968E+01  0.00000000000E+00 0. -1.
         11    1    3    3    0    0  0.16707321016E+02  0.15526857255E+02  0.61935191579E+01  0.23634245314E+02  0.51100000000E-03 0. -1.
        -11    1    3    3    0    0  0.18835385131E+02 -0.23232611682E+02  0.26890133154E+00  0.29909835954E+02  0.51100000000E-03 0.  1.
         12    1    3    3    0    0 -0.34791679770E+02  0.85640672606E+01 -0.67665840974E+01  0.36463555636E+02  0.00000000000E+00 0. -1.
</event>
<event>
 7    1  0.1999542E-015  0.9000778E+02  0.7816164E-02  0.1186339E+00
        -11   -1    0    0    0    0  0.00000000000E+00  0.00000000000E+00  0.45593999997E+02  0.45594000000E+02  0.51100000000E-03 0. -1.
         11   -1    0    0    0    0 -0.00000000000E+00 -0.00000000000E+00 -0.45593999997E+02  0.45594000000E+02  0.51100000000E-03 0.  1.
    9900012    2    1    2    0    0  0.43199144542E+00  0.34777348298E+00 -0.10418004114E+01  0.90007783451E+02  0.90000045393E+02 0.  0.
         12    1    1    2    0    0 -0.43199144542E+00 -0.34777348298E+00  0.10418004114E+01  0.11802165486E+01  0.00000000000E+00 0. -1.
         11    1    3    3    0    0 -0.11566636193E+01 -0.17133972719E+02 -0.27363335205E+01  0.17389606472E+02  0.51100000000E-03 0. -1.
        -11    1    3    3    0    0 -0.12803723428E+02 -0.22608988683E+02 -0.10934171062E+02  0.28189675414E+02  0.51100000000E-03 0.  1.
         12    1    3    3    0    0  0.14392378492E+02  0.40090734885E+02  0.12628704171E+02  0.44428501565E+02  0.00000000000E+00 0. -1.
</event>
<event>
 7    1  0.1999542E-015  0.9000772E+02  0.7816164E-02  0.1186339E+00
        -11   -1    0    0    0    0  0.00000000000E+00  0.00000000000E+00  0.45593999997E+02  0.45594000000E+02  0.51100000000E-03 0.  1.
         11   -1    0    0    0    0 -0.00000000000E+00 -0.00000000000E+00 -0.45593999997E+02  0.45594000000E+02  0.51100000000E-03 0. -1.
    9900012    2    1    2    0    0 -0.90162127172E+00 -0.47609758460E+00  0.59453240167E+00  0.90007720963E+02  0.89999982080E+02 0.  0.
         12    1    1    2    0    0  0.90162127172E+00  0.47609758460E+00 -0.59453240167E+00  0.11802790366E+01  0.00000000000E+00 0. -1.
         11    1    3    3    0    0  0.33624148953E+01 -0.23126228375E+01  0.86762487677E+01  0.95880838157E+01  0.51100000000E-03 0. -1.
        -11    1    3    3    0    0 -0.19443964376E+02 -0.59153950186E+01  0.31407025044E+02  0.37409368763E+02  0.51100000000E-03 0.  1.
         12    1    3    3    0    0  0.15179928209E+02  0.77519202715E+01 -0.39488741410E+02  0.43010268384E+02  0.00000000000E+00 0. -1.
</event>
<event>
 7    1  0.1999542E-015  0.9000755E+02  0.7816164E-02  0.1186339E+00
        -11   -1    0    0    0    0  0.00000000000E+00  0.00000000000E+00  0.45593999997E+02  0.45594000000E+02  0.51100000000E-03 0. -1.
         11   -1    0    0    0    0 -0.00000000000E+00 -0.00000000000E+00 -0.45593999997E+02  0.45594000000E+02  0.51100000000E-03 0.  1.
    9900012    2    1    2    0    0  0.46389638717E-01 -0.10225831531E+01 -0.58789846248E+00  0.90007553938E+02  0.89999812850E+02 0.  0.
         12    1    1    2    0    0 -0.46389638717E-01  0.10225831531E+01  0.58789846248E+00  0.11804460622E+01  0.00000000000E+00 0. -1.
         11    1    3    3    0    0 -0.35928909378E+02  0.22937770101E+02  0.26101803230E+01  0.42706449957E+02  0.51100000000E-03 0. -1.
        -11    1    3    3    0    0  0.41021004365E+01 -0.88599731482E+01 -0.67256791067E+01  0.11855847160E+02  0.51100000000E-03 0.  1.
        -12    1    3    3    0    0  0.31873198580E+02 -0.15100380106E+02  0.35276003213E+01  0.35445256821E+02  0.00000000000E+00 0.  1.
</event>
<event>
 7    1  0.1999542E-015  0.9000798E+02  0.7816164E-02  0.1186339E+00
        -11   -1    0    0    0    0  0.00000000000E+00  0.00000000000E+00  0.45593999997E+02  0.45594000000E+02  0.51100000000E-03 0. -1.
         11   -1    0    0    0    0 -0.00000000000E+00 -0.00000000000E+00 -0.45593999997E+02  0.45594000000E+02  0.51100000000E-03 0.  1.
    9900012    2    1    2    0    0 -0.98565623975E+00  0.47757243596E+00  0.43914950928E+00  0.90007980531E+02  0.90000245074E+02 0.  0.
         12    1    1    2    0    0  0.98565623975E+00 -0.47757243596E+00 -0.43914950928E+00  0.11800194685E+01  0.00000000000E+00 0. -1.
         11    1    3    3    0    0 -0.38170525786E+01  0.79153596119E+01 -0.50191968344E+01  0.10120036823E+02  0.51100000000E-03 0. -1.
        -11    1    3    3    0    0  0.27068808603E+01  0.28480713077E+02  0.25872972021E+02  0.38573162987E+02  0.51100000000E-03 0.  1.
         12    1    3    3    0    0  0.12451547854E+00 -0.35918500253E+02 -0.20414625677E+02  0.41314780722E+02  0.00000000000E+00 0. -1.
</event>
<event>
 7    1  0.1999542E-015  0.9000773E+02  0.7816164E-02  0.1186339E+00
        -11   -1    0    0    0    0  0.00000000000E+00  0.00000000000E+00  0.45593999997E+02  0.45594000000E+02  0.51100000000E-03 0.  1.
         11   -1    0    0    0    0 -0.00000000000E+00 -0.00000000000E+00 -0.45593999997E+02  0.45594000000E+02  0.51100000000E-03 0. -1.
    9900012    2    1    2    0    0 -0.14847949146E+00 -0.86976316461E+00  0.78390375251E+00  0.90007729177E+02  0.89999990402E+02 0.  0.
         12    1    1    2    0    0  0.14847949146E+00  0.86976316461E+00 -0.78390375251E+00  0.11802708228E+01  0.00000000000E+00 0. -1.
         11    1    3    3    0    0 -0.41574100523E+01  0.31459709587E+02 -0.10932756104E+02  0.33563708703E+02  0.51100000000E-03 0. -1.
        -11    1    3    3    0    0  0.19126192518E+02 -0.51804401646E+01 -0.59621837269E+01  0.20692893360E+02  0.51100000000E-03 0.  1.
        -12    1    3    3    0    0 -0.15117261957E+02 -0.27149032587E+02  0.17678843583E+02  0.35751127114E+02  0.00000000000E+00 0.  1.
</event>
<event>
 7    1  0.1999542E-015  0.9000771E+02  0.7816164E-02  0.1186339E+00
        -11   -1    0    0    0    0  0.00000000000E+00  0.00000000000E+00  0.45593999997E+02  0.45594000000E+02  0.51100000000E-03 0.  1.
         11   -1    0    0    0    0 -0.00000000000E+00 -0.00000000000E+00 -0.45593999997E+02  0.45594000000E+02  0.51100000000E-03 0. -1.
    9900012    2    1    2    0    0  0.44578388166E+00 -0.78021828459E+00 -0.76526414597E+00  0.90007706370E+02  0.89999967294E+02 0.  0.
         12    1    1    2    0    0 -0.44578388166E+00  0.78021828459E+00  0.76526414597E+00  0.11802936304E+01  0.00000000000E+00 0. -1.
         11    1    3    3    0    0 -0.21720269651E+02  0.67290140990E+01 -0.32583852559E+02  0.39733577643E+02  0.51100000000E-03 0. -1.
        -11    1    3    3    0    0 -0.43603530305E+01 -0.79082311665E+01  0.24419884004E+00  0.90339599329E+01  0.51100000000E-03 0.  1.
        -12    1    3    3    0    0  0.26526406563E+02  0.39899878297E+00  0.31574389573E+02  0.41240168794E+02  0.00000000000E+00 0.  1.
</event>
<event>
 7    1  0.1999542E-015  0.9000781E+02  0.7816164E-02  0.1186339E+00
        -11   -1    0    0    0    0  0.00000000000E+00  0.00000000000E+00  0.45593999997E+02  0.45594000000E+02  0.51100000000E-03 0. -1.
         11   -1    0    0    0    0 -0.00000000000E+00 -0.00000000000E+00 -0.45593999997E+02  0.45594000000E+02  0.51100000000E-03 0.  1.
    9900012    2    1    2    0    0  0.65357498137E+00 -0.68468061597E+00 -0.70491797243E+00  0.90007806308E+02  0.90000068552E+02 0.  0.
         12    1    1    2    0    0 -0.65357498137E+00  0.68468061597E+00  0.70491797243E+00  0.11801936917E+01  0.00000000000E+00 0. -1.
         11    1    3    3    0    0  0.33515456896E+01  0.17377854395E+02  0.91968964741E+01  0.19945064224E+02  0.51100000000E-03 0. -1.
        -11    1    3    3    0    0  0.21852600235E+02 -0.49048527634E+01 -0.28740288020E+02  0.36436216508E+02  0.51100000000E-03 0.  1.
         12    1    3    3    0    0 -0.24550570943E+02 -0.13157682247E+02  0.18838473574E+02  0.33626525577E+02  0.00000000000E+00 0. -1.
</event>
<event>
 7    1  0.1999542E-015  0.9000784E+02  0.7816164E-02  0.1186339E+00
        -11   -1    0    0    0    0  0.00000000000E+00  0.00000000000E+00  0.45593999997E+02  0.45594000000E+02  0.51100000000E-03 0. -1.
         11   -1    0    0    0    0 -0.00000000000E+00 -0.00000000000E+00 -0.45593999997E+02  0.45594000000E+02  0.51100000000E-03 0.  1.
    9900012    2    1    2    0    0  0.53395379419E+00  0.10115257187E+01  0.29067971731E+00  0.90007836608E+02  0.90000099251E+02 0.  0.
         12    1    1    2    0    0 -0.53395379419E+00 -0.10115257187E+01 -0.29067971731E+00  0.11801633921E+01  0.00000000000E+00 0. -1.
         11    1    3    3    0    0  0.19701460555E+02 -0.24056168113E+02  0.23727158136E+02  0.39112974903E+02  0.51100000000E-03 0. -1.
        -11    1    3    3    0    0  0.20562659778E+01 -0.65663262688E+01 -0.53995425292E+01  0.87464238535E+01  0.51100000000E-03 0.  1.
        -12    1    3    3    0    0 -0.21223772739E+02  0.31634020101E+02 -0.18036935890E+02  0.42148437851E+02  0.00000000000E+00 0.  1.
</event>
<event>
 7    1  0.1999542E-015  0.9000771E+02  0.7816164E-02  0.1186339E+00
        -11   -1    0    0    0    0  0.00000000000E+00  0.00000000000E+00  0.45593999997E+02  0.45594000000E+02  0.51100000000E-03 0.  1.
         11   -1    0    0    0    0 -0.00000000000E+00 -0.00000000000E+00 -0.45593999997E+02  0.45594000000E+02  0.51100000000E-03 0. -1.
    9900012    2    1    2    0    0 -0.81325063034E+00 -0.83324013187E+00 -0.19345558398E+00  0.90007707338E+02  0.89999968275E+02 0.  0.
         12    1    1    2    0    0  0.81325063034E+00  0.83324013187E+00  0.19345558398E+00  0.11802926620E+01  0.00000000000E+00 0. -1.
         11    1    3    3    0    0  0.89745843925E+01  0.40180198734E+00 -0.46129758130E+01  0.10098720511E+02  0.51100000000E-03 0. -1.
        -11    1    3    3    0    0  0.56057374111E+01 -0.37631119900E+02 -0.71934530373E+01  0.38720424116E+02  0.51100000000E-03 0.  1.
         12    1    3    3    0    0 -0.15393572434E+02  0.36396077781E+02  0.11612973266E+02  0.41188562711E+02  0.00000000000E+00 0. -1.
</event>
<event>
 7    1  0.1999542E-015  0.9000773E+02  0.7816164E-02  0.1186339E+00
        -11   -1    0    0    0    0  0.00000000000E+00  0.00000000000E+00  0.45593999997E+02  0.45594000000E+02  0.51100000000E-03 0. -1.
         11   -1    0    0    0    0 -0.00000000000E+00 -0.00000000000E+00 -0.45593999997E+02  0.45594000000E+02  0.51100000000E-03 0.  1.
    9900012    2    1    2    0    0  0.71665622899E+00  0.18257537600E+00 -0.91983827554E+00  0.90007732076E+02  0.89999993340E+02 0.  0.
         12    1    1    2    0    0 -0.71665622899E+00 -0.18257537600E+00  0.91983827554E+00  0.11802679237E+01  0.00000000000E+00 0. -1.
         11    1    3    3    0    0  0.56329327217E+01  0.13732866483E+02  0.33011631751E+02  0.36195156914E+02  0.51100000000E-03 0. -1.
        -11    1    3    3    0    0 -0.80478991264E+01  0.32024334402E+01  0.59053651201E+01  0.10483205509E+02  0.51100000000E-03 0.  1.
        -12    1    3    3    0    0  0.31316226337E+01 -0.16752724548E+02 -0.39836835146E+02  0.43329369653E+02  0.00000000000E+00 0.  1.
</event>
<event>
 7    1  0.1999542E-015  0.9000772E+02  0.7816164E-02  0.1186339E+00
        -11   -1    0    0    0    0  0.00000000000E+00  0.00000000000E+00  0.45593999997E+02  0.45594000000E+02  0.51100000000E-03 0.  1.
         11   -1    0    0    0    0 -0.00000000000E+00 -0.00000000000E+00 -0.45593999997E+02  0.45594000000E+02  0.51100000000E-03 0. -1.
    9900012    2    1    2    0    0 -0.87650547117E+00 -0.33382327632E+00  0.71648941885E+00  0.90007721682E+02  0.89999982808E+02 0.  0.
         12    1    1    2    0    0  0.87650547117E+00  0.33382327632E+00 -0.71648941885E+00  0.11802783181E+01  0.00000000000E+00 0. -1.
         11    1    3    3    0    0 -0.10546434805E+02  0.25593700358E+02 -0.24685309125E+02  0.37089476566E+02  0.51100000000E-03 0. -1.
        -11    1    3    3    0    0 -0.10094163214E+02 -0.44419017838E+00 -0.23481729984E+01  0.10373203584E+02  0.51100000000E-03 0.  1.
        -12    1    3    3    0    0  0.19764092548E+02 -0.25483333456E+02  0.27749971542E+02  0.42545041531E+02  0.00000000000E+00 0.  1.
</event>
<event>
 7    1  0.1999542E-015  0.9000765E+02  0.7816164E-02  0.1186339E+00
        -11   -1    0    0    0    0  0.00000000000E+00  0.00000000000E+00  0.45593999997E+02  0.45594000000E+02  0.51100000000E-03 0. -1.
         11   -1    0    0    0    0 -0.00000000000E+00 -0.00000000000E+00 -0.45593999997E+02  0.45594000000E+02  0.51100000000E-03 0.  1.
    9900012    2    1    2    0    0  0.11319979424E+01 -0.29217003635E+00  0.16259846391E+00  0.90007652199E+02  0.89999912408E+02 0.  0.
         12    1    1    2    0    0 -0.11319979424E+01  0.29217003635E+00 -0.16259846391E+00  0.11803478014E+01  0.00000000000E+00 0. -1.
         11    1    3    3    0    0  0.63684207711E+01  0.49191332150E+01 -0.58859079055E+00  0.80685249014E+01  0.51100000000E-03 0. -1.
        -11    1    3    3    0    0  0.23969498917E+02 -0.26922589108E+02 -0.18771402159E+02  0.40641459396E+02  0.51100000000E-03 0.  1.
         12    1    3    3    0    0 -0.29205921745E+02  0.21711285857E+02  0.19522591413E+02  0.41297667901E+02  0.00000000000E+00 0. -1.
</event>
<event>
 7    1  0.1999542E-015  0.9000790E+02  0.7816164E-02  0.1186339E+00
        -11   -1    0    0    0    0  0.00000000000E+00  0.00000000000E+00  0.45593999997E+02  0.45594000000E+02  0.51100000000E-03 0.  1.
         11   -1    0    0    0    0 -0.00000000000E+00 -0.00000000000E+00 -0.45593999997E+02  0.45594000000E+02  0.51100000000E-03 0. -1.
    9900012    2    1    2    0    0  0.11776200437E+00  0.11740896843E+01  0.17096269742E-01  0.90007895446E+02  0.90000158866E+02 0.  0.
         12    1    1    2    0    0 -0.11776200437E+00 -0.11740896843E+01 -0.17096269742E-01  0.11801045542E+01  0.00000000000E+00 0. -1.
         11    1    3    3    0    0 -0.83942392446E+01  0.51818568178E+00 -0.27463935013E+01  0.88472846920E+01  0.51100000000E-03 0. -1.
        -11    1    3    3    0    0 -0.22108917731E+02  0.26217256067E+02 -0.15079657932E+02  0.37463913871E+02  0.51100000000E-03 0.  1.
         12    1    3    3    0    0  0.30620918980E+02 -0.25561352065E+02  0.17843147703E+02  0.43696696883E+02  0.00000000000E+00 0. -1.
</event>
<event>
 7    1  0.1999542E-015  0.9000773E+02  0.7816164E-02  0.1186339E+00
        -11   -1    0    0    0    0  0.00000000000E+00  0.00000000000E+00  0.45593999997E+02  0.45594000000E+02  0.51100000000E-03 0. -1.
         11   -1    0    0    0    0 -0.00000000000E+00 -0.00000000000E+00 -0.45593999997E+02  0.45594000000E+02  0.51100000000E-03 0.  1.
    9900012    2    1    2    0    0  0.68352605347E+00  0.18857335752E+00 -0.94353842358E+00  0.90007732008E+02  0.89999993270E+02 0.  0.
         12    1    1    2    0    0 -0.68352605347E+00 -0.18857335752E+00  0.94353842358E+00  0.11802679923E+01  0.00000000000E+00 0. -1.
         11    1    3    3    0    0  0.26750539286E+02 -0.57087521969E+01 -0.27730492647E+02  0.38950756430E+02  0.51100000000E-03 0. -1.
        -11    1    3    3    0    0 -0.48980069443E+01 -0.23750774358E+00 -0.82892364045E+01  0.96311122092E+01  0.51100000000E-03 0.  1.
        -12    1    3    3    0    0 -0.21169006288E+02  0.61348332980E+01  0.35076190628E+02  0.41425863368E+02  0.00000000000E+00 0.  1.
</event>
<event>
 7    1  0.1999542E-015  0.9000773E+02  0.7816164E-02  0.1186339E+00
        -11   -1    0    0    0    0  0.00000000000E+00  0.00000000000E+00  0.45593999997E+02  0.45594000000E+02  0.51100000000E-03 0.  1.
         11   -1    0    0    0    0 -0.00000000000E+00 -0.00000000000E+00 -0.45593999997E+02  0.45594000000E+02  0.51100000000E-03 0. -1.
    9900012    2    1    2    0    0 -0.10378393088E+01 -0.29853710937E+00 -0.47624917199E+00  0.90007725409E+02  0.89999986584E+02 0.  0.
         12    1    1    2    0    0  0.10378393088E+01  0.29853710937E+00  0.47624917199E+00  0.11802745911E+01  0.00000000000E+00 0. -1.
         11    1    3    3    0    0  0.87868657060E+01  0.27723218280E+01  0.11926999508E+02  0.15071433070E+02  0.51100000000E-03 0. -1.
        -11    1    3    3    0    0 -0.28567610905E+01  0.31520488729E+02  0.99366326785E+01  0.33172864858E+02  0.51100000000E-03 0.  1.
         12    1    3    3    0    0 -0.69679439243E+01 -0.34591347666E+02 -0.22339881358E+02  0.41763427481E+02  0.00000000000E+00 0. -1.
</event>
<event>
 7    1  0.1999542E-015  0.9000783E+02  0.7816164E-02  0.1186339E+00
        -11   -1    0    0    0    0  0.00000000000E+00  0.00000000000E+00  0.45593999997E+02  0.45594000000E+02  0.51100000000E-03 0. -1.
         11   -1    0    0    0    0 -0.00000000000E+00 -0.00000000000E+00 -0.45593999997E+02  0.45594000000E+02  0.51100000000E-03 0.  1.
    9900012    2    1    2    0    0  0.11694787261E+01 -0.56384721112E-01  0.14815025074E+00  0.90007827036E+02  0.90000089553E+02 0.  0.
         12    1    1    2    0    0 -0.11694787261E+01  0.56384721112E-01 -0.14815025074E+00  0.11801729638E+01  0.00000000000E+00 0. -1.
         11    1    3    3    0    0  0.37382979811E+02  0.21027396559E+02  0.31857793053E+01  0.43009159207E+02  0.51100000000E-03 0. -1.
        -11    1    3    3    0    0 -0.16162030265E+01 -0.90560778337E+01 -0.47045930661E+01  0.10332369241E+02  0.51100000000E-03 0.  1.
        -12    1    3    3    0    0 -0.34597298059E+02 -0.12027703446E+02  0.16669640115E+01  0.36666298589E+02  0.00000000000E+00 0.  1.
</event>
<event>
 7    1  0.1999542E-015  0.9000776E+02  0.7816164E-02  0.1186339E+00
        -11   -1    0    0    0    0  0.00000000000E+00  0.00000000000E+00  0.45593999997E+02  0.45594000000E+02  0.51100000000E-03 0.  1.
         11   -1    0    0    0    0 -0.00000000000E+00 -0.00000000000E+00 -0.45593999997E+02  0.45594000000E+02  0.51100000000E-03 0. -1.
    9900012    2    1    2    0    0  0.75500433978E+00 -0.52422600429E+00  0.74034988371E+00  0.90007761716E+02  0.90000023371E+02 0.  0.
         12    1    1    2    0    0 -0.75500433978E+00  0.52422600429E+00 -0.74034988371E+00  0.11802382840E+01  0.00000000000E+00 0. -1.
         11    1    3    3    0    0  0.29314709057E+02  0.16355659189E+02 -0.21812439766E+02  0.40033014918E+02  0.51100000000E-03 0. -1.
        -11    1    3    3    0    0  0.21153569105E+01 -0.27938416447E+01 -0.52035941388E+01  0.62735698145E+01  0.51100000000E-03 0.  1.
        -12    1    3    3    0    0 -0.30675061628E+02 -0.14086043548E+02  0.27756383788E+02  0.43701176984E+02  0.00000000000E+00 0.  1.
</event>
<event>
 7    1  0.1999542E-015  0.9000788E+02  0.7816164E-02  0.1186339E+00
        -11   -1    0    0    0    0  0.00000000000E+00  0.00000000000E+00  0.45593999997E+02  0.45594000000E+02  0.51100000000E-03 0.  1.
         11   -1    0    0    0    0 -0.00000000000E+00 -0.00000000000E+00 -0.45593999997E+02  0.45594000000E+02  0.51100000000E-03 0. -1.
    9900012    2    1    2    0    0  0.31280461243E+00  0.99239748321E+00  0.55675223785E+00  0.90007884521E+02  0.90000147796E+02 0.  0.
         12    1    1    2    0    0 -0.31280461243E+00 -0.99239748321E+00 -0.55675223785E+00  0.11801154793E+01  0.00000000000E+00 0. -1.
         11    1    3    3    0    0 -0.43944564817E+01 -0.15785339379E+02 -0.81407578163E+00  0.16405819294E+02  0.51100000000E-03 0. -1.
        -11    1    3    3    0    0  0.14976047168E+02 -0.16838063777E+02  0.23106201506E+02  0.32275361018E+02  0.51100000000E-03 0.  1.
         12    1    3    3    0    0 -0.10268786074E+02  0.33615800640E+02 -0.21735373487E+02  0.41326704208E+02  0.00000000000E+00 0. -1.
</event>
<event>
 7    1  0.1999542E-015  0.9000781E+02  0.7816164E-02  0.1186339E+00
        -11   -1    0    0    0    0  0.00000000000E+00  0.00000000000E+00  0.45593999997E+02  0.45594000000E+02  0.51100000000E-03 0. -1.
         11   -1    0    0    0    0 -0.00000000000E+00 -0.00000000000E+00 -0.45593999997E+02  0.45594000000E+02  0.51100000000E-03 0.  1.
    9900012    2    1    2    0    0 -0.14933773967E+00 -0.11016440138E+01 -0.39614188553E+00  0.90007809470E+02  0.90000071755E+02 0.  0.
         12    1    1    2    0    0  0.14933773967E+00  0.11016440138E+01  0.39614188553E+00  0.11801905300E+01  0.00000000000E+00 0. -1.
         11    1    3    3    0    0 -0.25825489501E+02 -0.25847949794E+02  0.10438416966E+02  0.38000433755E+02  0.51100000000E-03 0. -1.
        -11    1    3    3    0    0 -0.80817752534E+01  0.20035324645E+01  0.32457323052E+01  0.89366667187E+01  0.51100000000E-03 0.  1.
        -12    1    3    3    0    0  0.33757927015E+02  0.22742773316E+02 -0.14080291157E+02  0.43070708997E+02  0.00000000000E+00 0.  1.
</event>
<event>
 7    1  0.1999542E-015  0.9000777E+02  0.7816164E-02  0.1186339E+00
        -11   -1    0    0    0    0  0.00000000000E+00  0.00000000000E+00  0.45593999997E+02  0.45594000000E+02  0.51100000000E-03 0.  1.
         11   -1    0    0    0    0 -0.00000000000E+00 -0.00000000000E+00 -0.45593999997E+02  0.45594000000E+02  0.51100000000E-03 0. -1.
    9900012    2    1    2    0    0 -0.85820715412E+00  0.63907451396E+00  0.49800817944E+00  0.90007767862E+02  0.90000029597E+02 0.  0.
         12    1    1    2    0    0  0.85820715412E+00 -0.63907451396E+00 -0.49800817944E+00  0.11802321384E+01  0.00000000000E+00 0. -1.
         11    1    3    3    0    0 -0.78217047811E+01 -0.17132465263E+02  0.32848893087E+01  0.19117817075E+02  0.51100000000E-03 0. -1.
        -11    1    3    3    0    0  0.28726150992E+02 -0.58904450945E+01  0.16252761117E+02  0.33526725733E+02  0.51100000000E-03 0.  1.
         12    1    3    3    0    0 -0.21762653365E+02  0.23661984872E+02 -0.19039642246E+02  0.37363225054E+02  0.00000000000E+00 0. -1.
</event>
<event>
 7    1  0.1999542E-015  0.9000767E+02  0.7816164E-02  0.1186339E+00
        -11   -1    0    0    0    0  0.00000000000E+00  0.00000000000E+00  0.45593999997E+02  0.45594000000E+02  0.51100000000E-03 0.  1.
         11   -1    0    0    0    0 -0.00000000000E+00 -0.00000000000E+00 -0.45593999997E+02  0.45594000000E+02  0.51100000000E-03 0. -1.
    9900012    2    1    2    0    0 -0.79414989066E+00  0.87095864588E+00  0.62683923407E-01  0.90007672806E+02  0.89999933287E+02 0.  0.
         12    1    1    2    0    0  0.79414989066E+00 -0.87095864588E+00 -0.62683923407E-01  0.11803271944E+01  0.00000000000E+00 0. -1.
         11    1    3    3    0    0 -0.68047171031E+01  0.41320203703E+01 -0.59278961864E+00  0.79830549909E+01  0.51100000000E-03 0. -1.
        -11    1    3    3    0    0  0.18540823035E+02 -0.39512488454E+02  0.12487643729E+01  0.43664153207E+02  0.51100000000E-03 0.  1.
         12    1    3    3    0    0 -0.12530255822E+02  0.36251426729E+02 -0.59329083089E+00  0.38360464607E+02  0.00000000000E+00 0. -1.
</event>
<event>
 7    1  0.1999542E-015  0.9000773E+02  0.7816164E-02  0.1186339E+00
        -11   -1    0    0    0    0  0.00000000000E+00  0.00000000000E+00  0.45593999997E+02  0.45594000000E+02  0.51100000000E-03 0. -1.
         11   -1    0    0    0    0 -0.00000000000E+00 -0.00000000000E+00 -0.45593999997E+02  0.45594000000E+02  0.51100000000E-03 0.  1.
    9900012    2    1    2    0    0  0.11664329699E+00 -0.15518256307E+00 -0.11641988328E+01  0.90007726214E+02  0.89999987400E+02 0.  0.
         12    1    1    2    0    0 -0.11664329699E+00  0.15518256307E+00  0.11641988328E+01  0.11802737856E+01  0.00000000000E+00 0. -1.
         11    1    3    3    0    0 -0.80756210059E+00 -0.88435259358E+01 -0.14018419669E+01  0.89902874639E+01  0.51100000000E-03 0. -1.
        -11    1    3    3    0    0 -0.10629724528E+02 -0.32501850581E+02 -0.12456170804E+02  0.36393921554E+02  0.51100000000E-03 0.  1.
         12    1    3    3    0    0  0.11553929925E+02  0.41190193954E+02  0.12693813938E+02  0.44623517196E+02  0.00000000000E+00 0. -1.
</event>
<event>
 7    1  0.1999542E-015  0.9000778E+02  0.7816164E-02  0.1186339E+00
        -11   -1    0    0    0    0  0.00000000000E+00  0.00000000000E+00  0.45593999997E+02  0.45594000000E+02  0.51100000000E-03 0.  1.
         11   -1    0    0    0    0 -0.00000000000E+00 -0.00000000000E+00 -0.45593999997E+02  0.45594000000E+02  0.51100000000E-03 0. -1.
    9900012    2    1    2    0    0  0.14158743584E+00 -0.23873737382E+00  0.11471196427E+01  0.90007777135E+02  0.90000038994E+02 0.  0.
         12    1    1    2    0    0 -0.14158743584E+00  0.23873737382E+00 -0.11471196427E+01  0.11802228646E+01  0.00000000000E+00 0. -1.
         11    1    3    3    0    0 -0.18685304371E+02 -0.96533998591E+01  0.35703101698E+02  0.41437183777E+02  0.51100000000E-03 0. -1.
        -11    1    3    3    0    0 -0.58591874727E+01 -0.29079048997E+01 -0.66623471933E+01  0.93366406770E+01  0.51100000000E-03 0.  1.
        -12    1    3    3    0    0  0.24686079280E+02  0.12322567385E+02 -0.27893634862E+02  0.39233952681E+02  0.00000000000E+00 0.  1.
</event>
<event>
 7    1  0.1999542E-015  0.9000787E+02  0.7816164E-02  0.1186339E+00
        -11   -1    0    0    0    0  0.00000000000E+00  0.00000000000E+00  0.45593999997E+02  0.45594000000E+02  0.51100000000E-03 0. -1.
         11   -1    0    0    0    0 -0.00000000000E+00 -0.00000000000E+00 -0.45593999997E+02  0.45594000000E+02  0.51100000000E-03 0.  1.
    9900012    2    1    2    0    0  0.11328339095E+01 -0.13983120973E+00  0.29974952363E+00  0.90007866444E+02  0.90000129481E+02 0.  0.
         12    1    1    2    0    0 -0.11328339095E+01  0.13983120973E+00 -0.29974952363E+00  0.11801335563E+01  0.00000000000E+00 0. -1.
         11    1    3    3    0    0  0.11145478967E+02  0.23086446015E+02  0.26997724461E+02  0.37230133190E+02  0.51100000000E-03 0. -1.
        -11    1    3    3    0    0  0.30097958646E+01  0.77945371200E+01  0.19610960863E+01  0.85825158423E+01  0.51100000000E-03 0.  1.
        -12    1    3    3    0    0 -0.13022440923E+02 -0.31020814344E+02 -0.28659071023E+02  0.44195217412E+02  0.00000000000E+00 0.  1.
</event>
<event>
 7    1  0.1999542E-015  0.9000772E+02  0.7816164E-02  0.1186339E+00
        -11   -1    0    0    0    0  0.00000000000E+00  0.00000000000E+00  0.45593999997E+02  0.45594000000E+02  0.51100000000E-03 0. -1.
         11   -1    0    0    0    0 -0.00000000000E+00 -0.00000000000E+00 -0.45593999997E+02  0.45594000000E+02  0.51100000000E-03 0.  1.
    9900012    2    1    2    0    0  0.97004391307E+00  0.83734305644E-01 -0.66713743992E+00  0.90007716563E+02  0.89999977622E+02 0.  0.
         12    1    1    2    0    0 -0.97004391307E+00 -0.83734305644E-01  0.66713743992E+00  0.11802834367E+01  0.00000000000E+00 0. -1.
         11    1    3    3    0    0 -0.43153861239E+00  0.30411579205E+02  0.24548748188E+02  0.39085693203E+02  0.51100000000E-03 0. -1.
        -11    1    3    3    0    0  0.68896267729E+01  0.46152720019E+01 -0.82306277300E+01  0.11683789018E+02  0.51100000000E-03 0.  1.
        -12    1    3    3    0    0 -0.54880442475E+01 -0.34943116901E+02 -0.16985257898E+02  0.39238234342E+02  0.00000000000E+00 0.  1.
</event>
<event>
 7    1  0.1999542E-015  0.9000777E+02  0.7816164E-02  0.1186339E+00
        -11   -1    0    0    0    0  0.00000000000E+00  0.00000000000E+00  0.45593999997E+02  0.45594000000E+02  0.51100000000E-03 0. -1.
         11   -1    0    0    0    0 -0.00000000000E+00 -0.00000000000E+00 -0.45593999997E+02  0.45594000000E+02  0.51100000000E-03 0.  1.
    9900012    2    1    2    0    0  0.37601749202E+00  0.10554270211E+01 -0.37096884733E+00  0.90007774074E+02  0.90000035892E+02 0.  0.
         12    1    1    2    0    0 -0.37601749202E+00 -0.10554270211E+01  0.37096884733E+00  0.11802259262E+01  0.00000000000E+00 0. -1.
         11    1    3    3    0    0  0.38805143314E+02  0.15736885298E+02  0.60494823584E+01  0.42309395452E+02  0.51100000000E-03 0. -1.
        -11    1    3    3    0    0  0.64245490543E+00 -0.24550065901E+01 -0.62636500821E+01  0.67581889790E+01  0.51100000000E-03 0.  1.
        -12    1    3    3    0    0 -0.39071580727E+02 -0.12226451687E+02 -0.15680112364E+00  0.40940189642E+02  0.00000000000E+00 0.  1.
</event>
<event>
 7    1  0.1999542E-015  0.9000801E+02  0.7816164E-02  0.1186339E+00
        -11   -1    0    0    0    0  0.00000000000E+00  0.00000000000E+00  0.45593999997E+02  0.45594000000E+02  0.51100000000E-03 0.  1.
         11   -1    0    0    0    0 -0.00000000000E+00 -0.00000000000E+00 -0.45593999997E+02  0.45594000000E+02  0.51100000000E-03 0. -1.
    9900012    2    1    2    0    0 -0.20247841980E+00 -0.11355746420E+01 -0.24869679419E+00  0.90008009588E+02  0.90000274514E+02 0.  0.
         12    1    1    2    0    0  0.20247841980E+00  0.11355746420E+01  0.24869679419E+00  0.11799904125E+01  0.00000000000E+00 0. -1.
         11    1    3    3    0    0  0.17601262776E+02 -0.69950769385E+01 -0.24693908596E+01  0.19100613711E+02  0.51100000000E-03 0. -1.
        -11    1    3    3    0    0  0.56573478104E+01 -0.15610418511E+02  0.26241241036E+02  0.31053075237E+02  0.51100000000E-03 0.  1.
         12    1    3    3    0    0 -0.23461089006E+02  0.21469920807E+02 -0.24020546971E+02  0.39854320639E+02  0.00000000000E+00 0. -1.
</event>
<event>
 7    1  0.1999542E-015  0.9000773E+02  0.7816164E-02  0.1186339E+00
        -11   -1    0    0    0    0  0.00000000000E+00  0.00000000000E+00  0.45593999997E+02  0.45594000000E+02  0.51100000000E-03 0.  1.
         11   -1    0    0    0    0 -0.00000000000E+00 -0.00000000000E+00 -0.45593999997E+02  0.45594000000E+02  0.51100000000E-03 0. -1.
    9900012    2    1    2    0    0  0.70097571591E+00 -0.56858648693E+00 -0.76051483132E+00  0.90007728694E+02  0.89999989913E+02 0.  0.
         12    1    1    2    0    0 -0.70097571591E+00  0.56858648694E+00  0.76051483132E+00  0.11802713061E+01  0.00000000000E+00 0. -1.
         11    1    3    3    0    0  0.56343399742E+01  0.79344258947E+01  0.21778244467E+01  0.99721522654E+01  0.51100000000E-03 0. -1.
        -11    1    3    3    0    0 -0.24406103757E+02 -0.21848835223E+02  0.26618196143E+02  0.42208504681E+02  0.51100000000E-03 0.  1.
         12    1    3    3    0    0  0.19472739499E+02  0.13345822842E+02 -0.29556535421E+02  0.37827071748E+02  0.00000000000E+00 0. -1.
</event>
<event>
 7    1  0.1999542E-015  0.9000776E+02  0.7816164E-02  0.1186339E+00
        -11   -1    0    0    0    0  0.00000000000E+00  0.00000000000E+00  0.45593999997E+02  0.45594000000E+02  0.51100000000E-03 0.  1.
         11   -1    0    0    0    0 -0.00000000000E+00 -0.00000000000E+00 -0.45593999997E+02  0.45594000000E+02  0.51100000000E-03 0. -1.
    9900012    2    1    2    0    0  0.39419667614E+00 -0.74209345700E+00  0.82877783378E+00  0.90007760018E+02  0.90000021650E+02 0.  0.
         12    1    1    2    0    0 -0.39419667614E+00  0.74209345700E+00 -0.82877783378E+00  0.11802399824E+01  0.00000000000E+00 0. -1.
         11    1    3    3    0    0 -0.29588691377E+02 -0.24304244314E+02  0.15534058219E+02  0.41321833382E+02  0.51100000000E-03 0. -1.
        -11    1    3    3    0    0  0.10051013072E+02 -0.52556220460E+01 -0.28401059374E+01  0.11692332054E+02  0.51100000000E-03 0.  1.
        -12    1    3    3    0    0  0.19931874981E+02  0.28817772903E+02 -0.11865174448E+02  0.36993594581E+02  0.00000000000E+00 0.  1.
</event>
<event>
 7    1  0.1999542E-015  0.9000783E+02  0.7816164E-02  0.1186339E+00
        -11   -1    0    0    0    0  0.00000000000E+00  0.00000000000E+00  0.45593999997E+02  0.45594000000E+02  0.51100000000E-03 0.  1.
         11   -1    0    0    0    0 -0.00000000000E+00 -0.00000000000E+00 -0.45593999997E+02  0.45594000000E+02  0.51100000000E-03 0. -1.
    9900012    2    1    2    0    0 -0.10439239303E+01  0.52905561888E+00  0.15209145374E+00  0.90007826779E+02  0.90000089293E+02 0.  0.
         12    1    1    2    0    0  0.10439239303E+01 -0.52905561888E+00 -0.15209145374E+00  0.11801732205E+01  0.00000000000E+00 0. -1.
         11    1    3    3    0    0 -0.10084207523E+02  0.17960770900E+01  0.88535447999E+00  0.10281098536E+02  0.51100000000E-03 0. -1.
        -11    1    3    3    0    0 -0.33715338256E+02  0.49770523809E+01  0.93837409754E+01  0.35348969986E+02  0.51100000000E-03 0.  1.
         12    1    3    3    0    0  0.42755621849E+02 -0.62440738520E+01 -0.10117004002E+02  0.44377758257E+02  0.00000000000E+00 0. -1.
</event>
<event>
 7    1  0.1999542E-015  0.9000748E+02  0.7816164E-02  0.1186340E+00
        -11   -1    0    0    0    0  0.00000000000E+00  0.00000000000E+00  0.45593999997E+02  0.45594000000E+02  0.51100000000E-03 0. -1.
         11   -1    0    0    0    0 -0.00000000000E+00 -0.00000000000E+00 -0.45593999997E+02  0.45594000000E+02  0.51100000000E-03 0.  1.
    9900012    2    1    2    0    0 -0.52340694278E+00 -0.98999437551E+00  0.37360727990E+00  0.90007480584E+02  0.89999738528E+02 0.  0.
         12    1    1    2    0    0  0.52340694278E+00  0.98999437551E+00 -0.37360727990E+00  0.11805194157E+01  0.00000000000E+00 0. -1.
         11    1    3    3    0    0  0.23209051515E+02 -0.14374545931E+02  0.23142806516E+02  0.35789343898E+02  0.51100000000E-03 0. -1.
        -11    1    3    3    0    0  0.11308350151E+02  0.65013764286E+01 -0.29383970487E+01  0.13370895860E+02  0.51100000000E-03 0.  1.
        -12    1    3    3    0    0 -0.35040808609E+02  0.68831751271E+01 -0.19830802187E+02  0.40847240827E+02  0.00000000000E+00 0.  1.
</event>
<event>
 7    1  0.1999542E-015  0.9000767E+02  0.7816164E-02  0.1186339E+00
        -11   -1    0    0    0    0  0.00000000000E+00  0.00000000000E+00  0.45593999997E+02  0.45594000000E+02  0.51100000000E-03 0. -1.
         11   -1    0    0    0    0 -0.00000000000E+00 -0.00000000000E+00 -0.45593999997E+02  0.45594000000E+02  0.51100000000E-03 0.  1.
    9900012    2    1    2    0    0  0.17826128298E+00 -0.23655783065E+00 -0.11425628287E+01  0.90007666780E+02  0.89999927182E+02 0.  0.
         12    1    1    2    0    0 -0.17826128298E+00  0.23655783065E+00  0.11425628287E+01  0.11803332198E+01  0.00000000000E+00 0. -1.
         11    1    3    3    0    0 -0.24980591781E+00 -0.78153343663E+01  0.33927783731E+01  0.85236611619E+01  0.51100000000E-03 0. -1.
        -11    1    3    3    0    0 -0.26826403516E+02 -0.21228115555E+02 -0.19168497042E+02  0.39213774299E+02  0.51100000000E-03 0.  1.
         12    1    3    3    0    0  0.27254470717E+02  0.28806892091E+02  0.14633155840E+02  0.42270231320E+02  0.00000000000E+00 0. -1.
</event>
<event>
 7    1  0.1999542E-015  0.9000775E+02  0.7816164E-02  0.1186339E+00
        -11   -1    0    0    0    0  0.00000000000E+00  0.00000000000E+00  0.45593999997E+02  0.45594000000E+02  0.51100000000E-03 0.  1.
         11   -1    0    0    0    0 -0.00000000000E+00 -0.00000000000E+00 -0.45593999997E+02  0.45594000000E+02  0.51100000000E-03 0. -1.
    9900012    2    1    2    0    0 -0.66459407983E+00  0.74718995327E+00  0.62690544380E+00  0.90007750640E+02  0.90000012148E+02 0.  0.
         12    1    1    2    0    0  0.66459407983E+00 -0.74718995327E+00 -0.62690544380E+00  0.11802493604E+01  0.00000000000E+00 0. -1.
         11    1    3    3    0    0 -0.58678790138E+01 -0.15141778702E+01  0.46966880359E+01  0.76670475094E+01  0.51100000000E-03 0. -1.
        -11    1    3    3    0    0 -0.33902487481E+02  0.10151014925E+02 -0.18480111425E+02  0.39924131549E+02  0.51100000000E-03 0.  1.
         12    1    3    3    0    0  0.39105772415E+02 -0.78896471015E+01  0.14410328833E+02  0.42416571581E+02  0.00000000000E+00 0. -1.
</event>
<event>
 7    1  0.1999542E-015  0.9000772E+02  0.7816164E-02  0.1186339E+00
        -11   -1    0    0    0    0  0.00000000000E+00  0.00000000000E+00  0.45593999997E+02  0.45594000000E+02  0.51100000000E-03 0. -1.
         11   -1    0    0    0    0 -0.00000000000E+00 -0.00000000000E+00 -0.45593999997E+02  0.45594000000E+02  0.51100000000E-03 0.  1.
    9900012    2    1    2    0    0 -0.81110889767E-01  0.67378212396E+00 -0.96566575523E+00  0.90007715425E+02  0.89999976469E+02 0.  0.
         12    1    1    2    0    0  0.81110889767E-01 -0.67378212396E+00  0.96566575523E+00  0.11802845749E+01  0.00000000000E+00 0. -1.
         11    1    3    3    0    0  0.76373270656E+01 -0.26444850781E+02 -0.30421281718E+02  0.41025763603E+02  0.51100000000E-03 0. -1.
        -11    1    3    3    0    0  0.63690751291E+01 -0.17569935325E+01  0.25740739327E+01  0.70906982128E+01  0.51100000000E-03 0.  1.
        -12    1    3    3    0    0 -0.14087513085E+02  0.28875626438E+02  0.26881542030E+02  0.41891253610E+02  0.00000000000E+00 0.  1.
</event>
<event>
 7    1  0.1999542E-015  0.9000771E+02  0.7816164E-02  0.1186339E+00
        -11   -1    0    0    0    0  0.00000000000E+00  0.00000000000E+00  0.45593999997E+02  0.45594000000E+02  0.51100000000E-03 0.  1.
         11   -1    0    0    0    0 -0.00000000000E+00 -0.00000000000E+00 -0.45593999997E+02  0.45594000000E+02  0.51100000000E-03 0. -1.
    9900012    2    1    2    0    0  0.90885863392E+00 -0.75281911950E+00  0.17869748675E-01  0.90007711912E+02  0.89999972909E+02 0.  0.
         12    1    1    2    0    0 -0.90885863392E+00  0.75281911950E+00 -0.17869748675E-01  0.11802880882E+01  0.00000000000E+00 0. -1.
         11    1    3    3    0    0  0.94873690792E+01 -0.18341415833E+01 -0.95264601378E+00  0.97098806419E+01  0.51100000000E-03 0. -1.
        -11    1    3    3    0    0  0.18950217935E+01  0.18243369209E+02  0.35718463626E+02  0.40152462835E+02  0.51100000000E-03 0.  1.
         12    1    3    3    0    0 -0.10473532239E+02 -0.17162046745E+02 -0.34747947864E+02  0.40145368435E+02  0.00000000000E+00 0. -1.
</event>
<event>
 7    1  0.1999542E-015  0.9000774E+02  0.7816164E-02  0.1186339E+00
        -11   -1    0    0    0    0  0.00000000000E+00  0.00000000000E+00  0.45593999997E+02  0.45594000000E+02  0.51100000000E-03 0.  1.
         11   -1    0    0    0    0 -0.00000000000E+00 -0.00000000000E+00 -0.45593999997E+02  0.45594000000E+02  0.51100000000E-03 0. -1.
    9900012    2    1    2    0    0  0.47475210989E-01 -0.11781415519E+01 -0.52397933765E-01  0.90007738607E+02  0.89999999957E+02 0.  0.
         12    1    1    2    0    0 -0.47475210989E-01  0.11781415519E+01  0.52397933765E-01  0.11802613928E+01  0.00000000000E+00 0. -1.
         11    1    3    3    0    0  0.42352435848E+01 -0.40181677919E+02 -0.53543705329E+01  0.40757500078E+02  0.51100000000E-03 0. -1.
        -11    1    3    3    0    0 -0.95306971247E+01  0.78031473109E+00 -0.24793885064E+01  0.98787876983E+01  0.51100000000E-03 0.  1.
        -12    1    3    3    0    0  0.53429287509E+01  0.38223221636E+02  0.77813611055E+01  0.39371450830E+02  0.00000000000E+00 0.  1.
</event>
<event>
 7    1  0.1999542E-015  0.9000789E+02  0.7816164E-02  0.1186339E+00
        -11   -1    0    0    0    0  0.00000000000E+00  0.00000000000E+00  0.45593999997E+02  0.45594000000E+02  0.51100000000E-03 0.  1.
         11   -1    0    0    0    0 -0.00000000000E+00 -0.00000000000E+00 -0.45593999997E+02  0.45594000000E+02  0.51100000000E-03 0. -1.
    9900012    2    1    2    0    0  0.58950117217E+00 -0.10190147147E+01  0.82173431557E-01  0.90007891914E+02  0.90000155288E+02 0.  0.
         12    1    1    2    0    0 -0.58950117217E+00  0.10190147147E+01 -0.82173431557E-01  0.11801080855E+01  0.00000000000E+00 0. -1.
         11    1    3    3    0    0 -0.32060300881E+02  0.13628971155E+02  0.37295670450E+01  0.35036001740E+02  0.51100000000E-03 0. -1.
        -11    1    3    3    0    0 -0.52981761374E+01  0.85643373152E+01 -0.29050349745E+01  0.10481305858E+02  0.51100000000E-03 0.  1.
        -12    1    3    3    0    0  0.37947978191E+02 -0.23212323185E+02 -0.74235863890E+00  0.44490584316E+02  0.00000000000E+00 0.  1.
</event>
<event>
 7    1  0.1999542E-015  0.9000763E+02  0.7816164E-02  0.1186339E+00
        -11   -1    0    0    0    0  0.00000000000E+00  0.00000000000E+00  0.45593999997E+02  0.45594000000E+02  0.51100000000E-03 0.  1.
         11   -1    0    0    0    0 -0.00000000000E+00 -0.00000000000E+00 -0.45593999997E+02  0.45594000000E+02  0.51100000000E-03 0. -1.
    9900012    2    1    2    0    0  0.87717145936E+00  0.57397176086E+00  0.54258334148E+00  0.90007631399E+02  0.89999891334E+02 0.  0.
         12    1    1    2    0    0 -0.87717145936E+00 -0.57397176086E+00 -0.54258334148E+00  0.11803686008E+01  0.00000000000E+00 0. -1.
         11    1    3    3    0    0  0.71362722640E+01 -0.36148528221E+01 -0.32417676319E+01  0.86314888861E+01  0.51100000000E-03 0. -1.
        -11    1    3    3    0    0 -0.12967999788E+01 -0.28637911404E+02  0.28163350875E+02  0.40186888316E+02  0.51100000000E-03 0.  1.
         12    1    3    3    0    0 -0.49623008258E+01  0.32826735987E+02 -0.24378999902E+02  0.41189254197E+02  0.00000000000E+00 0. -1.
</event>
<event>
 7    1  0.1999542E-015  0.9000775E+02  0.7816164E-02  0.1186339E+00
        -11   -1    0    0    0    0  0.00000000000E+00  0.00000000000E+00  0.45593999997E+02  0.45594000000E+02  0.51100000000E-03 0. -1.
         11   -1    0    0    0    0 -0.00000000000E+00 -0.00000000000E+00 -0.45593999997E+02  0.45594000000E+02  0.51100000000E-03 0.  1.
    9900012    2    1    2    0    0  0.60884633630E+00 -0.73539193496E+00 -0.69389678613E+00  0.90007750912E+02  0.90000012424E+02 0.  0.
         12    1    1    2    0    0 -0.60884633630E+00  0.73539193496E+00  0.69389678613E+00  0.11802490877E+01  0.00000000000E+00 0. -1.
         11    1    3    3    0    0  0.10513617072E+02  0.39107432561E+02  0.10621620645E+02  0.41865812435E+02  0.51100000000E-03 0. -1.
        -11    1    3    3    0    0 -0.39070205262E+01 -0.40927472606E+01  0.57578965655E+01  0.80727171789E+01  0.51100000000E-03 0.  1.
        -12    1    3    3    0    0 -0.59977502094E+01 -0.35750077236E+02 -0.17073413997E+02  0.40069221298E+02  0.00000000000E+00 0.  1.
</event>
<event>
 7    1  0.1999542E-015  0.9000776E+02  0.7816164E-02  0.1186339E+00
        -11   -1    0    0    0    0  0.00000000000E+00  0.00000000000E+00  0.45593999997E+02  0.45594000000E+02  0.51100000000E-03 0. -1.
         11   -1    0    0    0    0 -0.00000000000E+00 -0.00000000000E+00 -0.45593999997E+02  0.45594000000E+02  0.51100000000E-03 0.  1.
    9900012    2    1    2    0    0  0.68708078234E+00  0.88786210629E+00  0.36413067867E+00  0.90007758384E+02  0.90000019995E+02 0.  0.
         12    1    1    2    0    0 -0.68708078234E+00 -0.88786210629E+00 -0.36413067867E+00  0.11802416161E+01  0.00000000000E+00 0. -1.
         11    1    3    3    0    0  0.31438469926E+02  0.15522602285E+02  0.13553646967E+02  0.37590290227E+02  0.51100000000E-03 0. -1.
        -11    1    3    3    0    0  0.42491844108E+01  0.79475202342E+01 -0.13380080210E+01  0.91109226621E+01  0.51100000000E-03 0.  1.
        -12    1    3    3    0    0 -0.35000573554E+02 -0.22582260413E+02 -0.11851508268E+02  0.43306545495E+02  0.00000000000E+00 0.  1.
</event>
<event>
 7    1  0.1999542E-015  0.9000786E+02  0.7816164E-02  0.1186339E+00
        -11   -1    0    0    0    0  0.00000000000E+00  0.00000000000E+00  0.45593999997E+02  0.45594000000E+02  0.51100000000E-03 0.  1.
         11   -1    0    0    0    0 -0.00000000000E+00 -0.00000000000E+00 -0.45593999997E+02  0.45594000000E+02  0.51100000000E-03 0. -1.
    9900012    2    1    2    0    0 -0.10861959665E+01 -0.33311085493E+00  0.31930614403E+00  0.90007855546E+02  0.90000118439E+02 0.  0.
         12    1    1    2    0    0  0.10861959665E+01  0.33311085493E+00 -0.31930614403E+00  0.11801444542E+01  0.00000000000E+00 0. -1.
         11    1    3    3    0    0 -0.42749608565E+01  0.59052008124E+01  0.51478767232E+01  0.89245348326E+01  0.51100000000E-03 0. -1.
        -11    1    3    3    0    0  0.22572273278E+02  0.17095498530E+02  0.25560053733E+02  0.38145510064E+02  0.51100000000E-03 0.  1.
         12    1    3    3    0    0 -0.19383508388E+02 -0.23333810197E+02 -0.30388624312E+02  0.42937810649E+02  0.00000000000E+00 0. -1.
</event>
<event>
 7    1  0.1999542E-015  0.9000819E+02  0.7816164E-02  0.1186338E+00
        -11   -1    0    0    0    0  0.00000000000E+00  0.00000000000E+00  0.45593999997E+02  0.45594000000E+02  0.51100000000E-03 0.  1.
         11   -1    0    0    0    0 -0.00000000000E+00 -0.00000000000E+00 -0.45593999997E+02  0.45594000000E+02  0.51100000000E-03 0. -1.
    9900012    2    1    2    0    0 -0.15501378724E+00 -0.11229551750E+01 -0.32692946069E+00  0.90008194731E+02  0.90000462101E+02 0.  0.
         12    1    1    2    0    0  0.15501378724E+00  0.11229551750E+01  0.32692946069E+00  0.11798052685E+01  0.00000000000E+00 0. -1.
         11    1    3    3    0    0 -0.71322067506E+01  0.11961711861E+01 -0.45574880433E+00  0.72461649080E+01  0.51100000000E-03 0. -1.
        -11    1    3    3    0    0 -0.22120795199E+02  0.20923339052E+02  0.23789630606E+02  0.38640163327E+02  0.51100000000E-03 0.  1.
         12    1    3    3    0    0  0.29097988163E+02 -0.23242465413E+02 -0.23660811262E+02  0.44121866497E+02  0.00000000000E+00 0. -1.
</event>
<event>
 7    1  0.1999542E-015  0.9000768E+02  0.7816164E-02  0.1186339E+00
        -11   -1    0    0    0    0  0.00000000000E+00  0.00000000000E+00  0.45593999997E+02  0.45594000000E+02  0.51100000000E-03 0.  1.
         11   -1    0    0    0    0 -0.00000000000E+00 -0.00000000000E+00 -0.45593999997E+02  0.45594000000E+02  0.51100000000E-03 0. -1.
    9900012    2    1    2    0    0  0.39725679776E-01  0.10671565856E+01  0.50273815091E+00  0.90007683536E+02  0.89999944158E+02 0.  0.
         12    1    1    2    0    0 -0.39725679776E-01 -0.10671565856E+01 -0.50273815091E+00  0.11803164644E+01  0.00000000000E+00 0. -1.
         11    1    3    3    0    0 -0.12766834706E+02 -0.48231109967E+01 -0.63108586950E+01  0.15036003653E+02  0.51100000000E-03 0. -1.
        -11    1    3    3    0    0 -0.25279529827E+02  0.45466161304E+01 -0.16280834341E+02  0.30410391540E+02  0.51100000000E-03 0.  1.
         12    1    3    3    0    0  0.38086090213E+02  0.13436514519E+01  0.23094431187E+02  0.44561288343E+02  0.00000000000E+00 0. -1.
</event>
<event>
 7    1  0.1999542E-015  0.9000759E+02  0.7816164E-02  0.1186339E+00
        -11   -1    0    0    0    0  0.00000000000E+00  0.00000000000E+00  0.45593999997E+02  0.45594000000E+02  0.51100000000E-03 0. -1.
         11   -1    0    0    0    0 -0.00000000000E+00 -0.00000000000E+00 -0.45593999997E+02  0.45594000000E+02  0.51100000000E-03 0.  1.
    9900012    2    1    2    0    0 -0.53653065395E+00  0.64503554449E+00 -0.83032086810E+00  0.90007589588E+02  0.89999848971E+02 0.  0.
         12    1    1    2    0    0  0.53653065395E+00 -0.64503554449E+00  0.83032086810E+00  0.11804104118E+01  0.00000000000E+00 0. -1.
         11    1    3    3    0    0  0.22964327494E+01  0.79448389304E+01 -0.56384966845E+01  0.10009331353E+02  0.51100000000E-03 0. -1.
        -11    1    3    3    0    0  0.26320622791E+02  0.16543872059E+02 -0.18043926192E+02  0.35945210522E+02  0.51100000000E-03 0.  1.
         12    1    3    3    0    0 -0.29153586194E+02 -0.23843675445E+02  0.22852102008E+02  0.44053047714E+02  0.00000000000E+00 0. -1.
</event>
<event>
 7    1  0.1999542E-015  0.9000772E+02  0.7816164E-02  0.1186339E+00
        -11   -1    0    0    0    0  0.00000000000E+00  0.00000000000E+00  0.45593999997E+02  0.45594000000E+02  0.51100000000E-03 0. -1.
         11   -1    0    0    0    0 -0.00000000000E+00 -0.00000000000E+00 -0.45593999997E+02  0.45594000000E+02  0.51100000000E-03 0.  1.
    9900012    2    1    2    0    0 -0.44610155540E+00 -0.10695360110E+01  0.22393394426E+00  0.90007720250E+02  0.89999981357E+02 0.  0.
         12    1    1    2    0    0  0.44610155540E+00  0.10695360110E+01 -0.22393394426E+00  0.11802797498E+01  0.00000000000E+00 0. -1.
         11    1    3    3    0    0  0.12110693300E+02  0.33167100715E+02 -0.24753697396E+02  0.43121583889E+02  0.51100000000E-03 0. -1.
        -11    1    3    3    0    0 -0.27270835267E+01 -0.92584340359E+01 -0.78122602026E+00  0.96832793884E+01  0.51100000000E-03 0.  1.
        -12    1    3    3    0    0 -0.98297113285E+01 -0.24978202690E+02  0.25758857361E+02  0.37202856973E+02  0.00000000000E+00 0.  1.
</event>
<event>
 7    1  0.2284842E-015  0.9000771E+02  0.7816164E-02  0.1186339E+00
        -11   -1    0    0    0    0  0.00000000000E+00  0.00000000000E+00  0.45593999997E+02  0.45594000000E+02  0.51100000000E-03 0. -1.
         11   -1    0    0    0    0 -0.00000000000E+00 -0.00000000000E+00 -0.45593999997E+02  0.45594000000E+02  0.51100000000E-03 0.  1.
    9900012    2    1    2    0    0  0.19882033510E+00  0.11253026187E+01 -0.29536428022E+00  0.90007713777E+02  0.89999974799E+02 0.  0.
         12    1    1    2    0    0 -0.19882033510E+00 -0.11253026187E+01  0.29536428022E+00  0.11802862227E+01  0.00000000000E+00 0. -1.
         11    1    3    3    0    0 -0.21155386402E+02  0.33367192759E+02  0.34026763806E+01  0.39654736580E+02  0.51100000000E-03 0. -1.
        -11    1    3    3    0    0 -0.21580562868E+01  0.50331177855E+00 -0.93836808097E+01  0.96417838330E+01  0.51100000000E-03 0.  1.
        -12    1    3    3    0    0  0.23512263024E+02 -0.32745201919E+02  0.56856401488E+01  0.40711193364E+02  0.00000000000E+00 0.  1.
</event>
<event>
 7    1  0.1999542E-015  0.9000775E+02  0.7816164E-02  0.1186339E+00
        -11   -1    0    0    0    0  0.00000000000E+00  0.00000000000E+00  0.45593999997E+02  0.45594000000E+02  0.51100000000E-03 0.  1.
         11   -1    0    0    0    0 -0.00000000000E+00 -0.00000000000E+00 -0.45593999997E+02  0.45594000000E+02  0.51100000000E-03 0. -1.
    9900012    2    1    2    0    0 -0.36721378115E-01  0.11144032056E+01 -0.38695941180E+00  0.90007754030E+02  0.90000015583E+02 0.  0.
         12    1    1    2    0    0  0.36721378115E-01 -0.11144032056E+01  0.38695941180E+00  0.11802459704E+01  0.00000000000E+00 0. -1.
         11    1    3    3    0    0  0.45574874385E+01 -0.10116628751E+02  0.72112983558E+01  0.13233279762E+02  0.51100000000E-03 0. -1.
        -11    1    3    3    0    0  0.26764349040E+02  0.24385579374E+02  0.11223619091E+02  0.37907208901E+02  0.51100000000E-03 0.  1.
         12    1    3    3    0    0 -0.31358557856E+02 -0.13154547417E+02 -0.18821876858E+02  0.38867265366E+02  0.00000000000E+00 0. -1.
</event>
<event>
 7    1  0.1999542E-015  0.9000764E+02  0.7816164E-02  0.1186339E+00
        -11   -1    0    0    0    0  0.00000000000E+00  0.00000000000E+00  0.45593999997E+02  0.45594000000E+02  0.51100000000E-03 0.  1.
         11   -1    0    0    0    0 -0.00000000000E+00 -0.00000000000E+00 -0.45593999997E+02  0.45594000000E+02  0.51100000000E-03 0. -1.
    9900012    2    1    2    0    0 -0.45935299963E+00 -0.64966108350E+00  0.87188167125E+00  0.90007643126E+02  0.89999903215E+02 0.  0.
         12    1    1    2    0    0  0.45935299963E+00  0.64966108350E+00 -0.87188167125E+00  0.11803568741E+01  0.00000000000E+00 0. -1.
         11    1    3    3    0    0  0.27314365393E+02 -0.21937752417E+02 -0.27004684111E+02  0.44233386736E+02  0.51100000000E-03 0. -1.
        -11    1    3    3    0    0 -0.28721235176E+01  0.67329524025E+01  0.40714708464E+01  0.83760740605E+01  0.51100000000E-03 0.  1.
        -12    1    3    3    0    0 -0.24901594875E+02  0.14555138931E+02  0.23805094936E+02  0.37398182329E+02  0.00000000000E+00 0.  1.
</event>
<event>
 7    1  0.1999542E-015  0.9000788E+02  0.7816164E-02  0.1186339E+00
        -11   -1    0    0    0    0  0.00000000000E+00  0.00000000000E+00  0.45593999997E+02  0.45594000000E+02  0.51100000000E-03 0. -1.
         11   -1    0    0    0    0 -0.00000000000E+00 -0.00000000000E+00 -0.45593999997E+02  0.45594000000E+02  0.51100000000E-03 0.  1.
    9900012    2    1    2    0    0 -0.10346128048E+01  0.36295336657E+00 -0.43649268233E+00  0.90007879386E+02  0.90000142594E+02 0.  0.
         12    1    1    2    0    0  0.10346128048E+01 -0.36295336657E+00  0.43649268233E+00  0.11801206141E+01  0.00000000000E+00 0. -1.
         11    1    3    3    0    0  0.16459721974E+01 -0.91530049460E+01 -0.27146502809E+01  0.96879332381E+01  0.51100000000E-03 0. -1.
        -11    1    3    3    0    0  0.16588629536E+02  0.20627774417E+02 -0.30703313179E+02  0.40538637714E+02  0.51100000000E-03 0.  1.
         12    1    3    3    0    0 -0.19269214538E+02 -0.11111816105E+02  0.32981470777E+02  0.39781308434E+02  0.00000000000E+00 0. -1.
</event>
<event>
 7    1  0.1999542E-015  0.9000770E+02  0.7816164E-02  0.1186339E+00
        -11   -1    0    0    0    0  0.00000000000E+00  0.00000000000E+00  0.45593999997E+02  0.45594000000E+02  0.51100000000E-03 0.  1.
         11   -1    0    0    0    0 -0.00000000000E+00 -0.00000000000E+00 -0.45593999997E+02  0.45594000000E+02  0.51100000000E-03 0. -1.
    9900012    2    1    2    0    0  0.89947138104E+00  0.42853172285E+00  0.63279419043E+00  0.90007696357E+02  0.89999957149E+02 0.  0.
         12    1    1    2    0    0 -0.89947138104E+00 -0.42853172285E+00 -0.63279419043E+00  0.11803036432E+01  0.00000000000E+00 0. -1.
         11    1    3    3    0    0  0.22129200970E+02 -0.20106948263E+02 -0.19528144034E+02  0.35711893169E+02  0.51100000000E-03 0. -1.
        -11    1    3    3    0    0 -0.11915748735E+01  0.36806556172E+00 -0.11601473074E+02  0.11668311818E+02  0.51100000000E-03 0.  1.
        -12    1    3    3    0    0 -0.20038154715E+02  0.20167414425E+02  0.31762411299E+02  0.42627491370E+02  0.00000000000E+00 0.  1.
</event>
<event>
 7    1  0.1999542E-015  0.9000771E+02  0.7816164E-02  0.1186339E+00
        -11   -1    0    0    0    0  0.00000000000E+00  0.00000000000E+00  0.45593999997E+02  0.45594000000E+02  0.51100000000E-03 0.  1.
         11   -1    0    0    0    0 -0.00000000000E+00 -0.00000000000E+00 -0.45593999997E+02  0.45594000000E+02  0.51100000000E-03 0. -1.
    9900012    2    1    2    0    0  0.10833547559E+00  0.11753025031E+01  0.19110132639E-02  0.90007713509E+02  0.89999974527E+02 0.  0.
         12    1    1    2    0    0 -0.10833547559E+00 -0.11753025031E+01 -0.19110132639E-02  0.11802864911E+01  0.00000000000E+00 0. -1.
         11    1    3    3    0    0 -0.22328497232E+02  0.39829714904E+01 -0.29282638107E+02  0.37039151519E+02  0.51100000000E-03 0. -1.
        -11    1    3    3    0    0 -0.84911221942E+01 -0.47126196358E+01 -0.84598645535E+00  0.97480066317E+01  0.51100000000E-03 0.  1.
        -12    1    3    3    0    0  0.30927954902E+02  0.19049506486E+01  0.30130535575E+02  0.43220555358E+02  0.00000000000E+00 0.  1.
</event>
<event>
 7    1  0.1999542E-015  0.9000776E+02  0.7816164E-02  0.1186339E+00
        -11   -1    0    0    0    0  0.00000000000E+00  0.00000000000E+00  0.45593999997E+02  0.45594000000E+02  0.51100000000E-03 0.  1.
         11   -1    0    0    0    0 -0.00000000000E+00 -0.00000000000E+00 -0.45593999997E+02  0.45594000000E+02  0.51100000000E-03 0. -1.
    9900012    2    1    2    0    0 -0.32088978211E+00 -0.70082281956E+00  0.89377496617E+00  0.90007764190E+02  0.90000025877E+02 0.  0.
         12    1    1    2    0    0  0.32088978211E+00  0.70082281956E+00 -0.89377496617E+00  0.11802358098E+01  0.00000000000E+00 0. -1.
         11    1    3    3    0    0  0.70067931987E+01 -0.70397027889E+01 -0.42772699139E+01  0.10814231571E+02  0.51100000000E-03 0. -1.
        -11    1    3    3    0    0 -0.14662034750E+02 -0.33821407436E+02 -0.47864079771E+01  0.37172201516E+02  0.51100000000E-03 0.  1.
         12    1    3    3    0    0  0.73343517693E+01  0.40160287405E+02  0.99574528572E+01  0.42021331104E+02  0.00000000000E+00 0. -1.
</event>
<event>
 7    1  0.1999542E-015  0.9000773E+02  0.7816164E-02  0.1186339E+00
        -11   -1    0    0    0    0  0.00000000000E+00  0.00000000000E+00  0.45593999997E+02  0.45594000000E+02  0.51100000000E-03 0. -1.
         11   -1    0    0    0    0 -0.00000000000E+00 -0.00000000000E+00 -0.45593999997E+02  0.45594000000E+02  0.51100000000E-03 0.  1.
    9900012    2    1    2    0    0  0.46136241213E+00  0.56531377109E+00 -0.92769281274E+00  0.90007725079E+02  0.89999986250E+02 0.  0.
         12    1    1    2    0    0 -0.46136241213E+00 -0.56531377109E+00  0.92769281274E+00  0.11802749213E+01  0.00000000000E+00 0. -1.
         11    1    3    3    0    0 -0.95151232305E+01 -0.34342779372E+02 -0.18984148593E+02  0.40377740936E+02  0.51100000000E-03 0. -1.
        -11    1    3    3    0    0 -0.67916973706E+01  0.65833759820E+01 -0.37184851112E+01  0.10163420894E+02  0.51100000000E-03 0.  1.
        -12    1    3    3    0    0  0.16768183013E+02  0.28324717161E+02  0.21774940891E+02  0.39466563248E+02  0.00000000000E+00 0.  1.
</event>
<event>
 7    1  0.1999542E-015  0.9000779E+02  0.7816164E-02  0.1186339E+00
        -11   -1    0    0    0    0  0.00000000000E+00  0.00000000000E+00  0.45593999997E+02  0.45594000000E+02  0.51100000000E-03 0.  1.
         11   -1    0    0    0    0 -0.00000000000E+00 -0.00000000000E+00 -0.45593999997E+02  0.45594000000E+02  0.51100000000E-03 0. -1.
    9900012    2    1    2    0    0 -0.65261001815E+00  0.55137165017E+00  0.81423690989E+00  0.90007791426E+02  0.90000053473E+02 0.  0.
         12    1    1    2    0    0  0.65261001815E+00 -0.55137165017E+00 -0.81423690989E+00  0.11802085739E+01  0.00000000000E+00 0. -1.
         11    1    3    3    0    0 -0.30693563145E+02  0.69639488222E+01 -0.23552808251E+02  0.39310636964E+02  0.51100000000E-03 0. -1.
        -11    1    3    3    0    0 -0.11735977235E+01 -0.99246727498E+01 -0.13713250900E+01  0.10087467153E+02  0.51100000000E-03 0.  1.
        -12    1    3    3    0    0  0.31214550850E+02  0.35120955778E+01  0.25738370251E+02  0.40609687309E+02  0.00000000000E+00 0.  1.
</event>
<event>
 7    1  0.2564347E-015  0.9000753E+02  0.7816164E-02  0.1186339E+00
        -11   -1    0    0    0    0  0.00000000000E+00  0.00000000000E+00  0.45593999997E+02  0.45594000000E+02  0.51100000000E-03 0. -1.
         11   -1    0    0    0    0 -0.00000000000E+00 -0.00000000000E+00 -0.45593999997E+02  0.45594000000E+02  0.51100000000E-03 0.  1.
    9900012    2    1    2    0    0  0.63721872088E+00 -0.51808092000E+00 -0.84797353979E+00  0.90007527780E+02  0.89999786346E+02 0.  0.
         12    1    1    2    0    0 -0.63721872088E+00  0.51808092000E+00  0.84797353979E+00  0.11804722200E+01  0.00000000000E+00 0. -1.
         11    1    3    3    0    0 -0.24592255043E+02  0.31416950229E+02  0.15735765842E+02  0.42888437797E+02  0.51100000000E-03 0. -1.
        -11    1    3    3    0    0  0.64697236978E+01 -0.10262788536E+01 -0.72630361272E+01  0.97807089241E+01  0.51100000000E-03 0.  1.
        -12    1    3    3    0    0  0.18759750066E+02 -0.30908752295E+02 -0.93207032542E+01  0.37338381059E+02  0.00000000000E+00 0.  1.
</event>
<event>
 7    1  0.1999542E-015  0.9000775E+02  0.7816164E-02  0.1186339E+00
        -11   -1    0    0    0    0  0.00000000000E+00  0.00000000000E+00  0.45593999997E+02  0.45594000000E+02  0.51100000000E-03 0. -1.
         11   -1    0    0    0    0 -0.00000000000E+00 -0.00000000000E+00 -0.45593999997E+02  0.45594000000E+02  0.51100000000E-03 0.  1.
    9900012    2    1    2    0    0  0.74791097473E+00 -0.71789607928E+00 -0.56413544694E+00  0.90007748159E+02  0.90000009634E+02 0.  0.
         12    1    1    2    0    0 -0.74791097473E+00  0.71789607928E+00  0.56413544694E+00  0.11802518415E+01  0.00000000000E+00 0. -1.
         11    1    3    3    0    0  0.72540855130E+01 -0.29892531689E+02 -0.21482376338E+02  0.37519031182E+02  0.51100000000E-03 0. -1.
        -11    1    3    3    0    0  0.93855267268E+01 -0.11721420240E+01 -0.38547114761E+01  0.10213756884E+02  0.51100000000E-03 0.  1.
        -12    1    3    3    0    0 -0.15891701265E+02  0.30346777634E+02  0.24772952367E+02  0.42274960093E+02  0.00000000000E+00 0.  1.
</event>
<event>
 7    1  0.1999542E-015  0.9000779E+02  0.7816164E-02  0.1186339E+00
        -11   -1    0    0    0    0  0.00000000000E+00  0.00000000000E+00  0.45593999997E+02  0.45594000000E+02  0.51100000000E-03 0.  1.
         11   -1    0    0    0    0 -0.00000000000E+00 -0.00000000000E+00 -0.45593999997E+02  0.45594000000E+02  0.51100000000E-03 0. -1.
    9900012    2    1    2    0    0  0.10564598515E+01 -0.34567898272E+00  0.39660761888E+00  0.90007788587E+02  0.90000050596E+02 0.  0.
         12    1    1    2    0    0 -0.10564598515E+01  0.34567898272E+00 -0.39660761888E+00  0.11802114134E+01  0.00000000000E+00 0. -1.
         11    1    3    3    0    0 -0.37646031828E+02 -0.73127400098E+01 -0.41355400555E+01  0.38572043901E+02  0.51100000000E-03 0. -1.
        -11    1    3    3    0    0 -0.18443667705E+01  0.99801731010E+01 -0.17366019328E+01  0.10296665987E+02  0.51100000000E-03 0.  1.
        -12    1    3    3    0    0  0.40546858450E+02 -0.30131120739E+01  0.62687496072E+01  0.41139078699E+02  0.00000000000E+00 0.  1.
</event>
<event>
 7    1  0.2606445E-015  0.9000765E+02  0.7816164E-02  0.1186339E+00
        -11   -1    0    0    0    0  0.00000000000E+00  0.00000000000E+00  0.45593999997E+02  0.45594000000E+02  0.51100000000E-03 0. -1.
         11   -1    0    0    0    0 -0.00000000000E+00 -0.00000000000E+00 -0.45593999997E+02  0.45594000000E+02  0.51100000000E-03 0.  1.
    9900012    2    1    2    0    0  0.11969226771E-01 -0.10170219819E+01 -0.59896520309E+00  0.90007645694E+02  0.89999905817E+02 0.  0.
         12    1    1    2    0    0 -0.11969226771E-01  0.10170219819E+01  0.59896520309E+00  0.11803543064E+01  0.00000000000E+00 0. -1.
         11    1    3    3    0    0  0.98226892159E+01  0.89376129084E+01  0.34151016390E+02  0.36642298900E+02  0.51100000000E-03 0. -1.
        -11    1    3    3    0    0  0.91994096447E+01 -0.18854040610E+01  0.33976017946E+01  0.99863699361E+01  0.51100000000E-03 0.  1.
        -12    1    3    3    0    0 -0.19010129634E+02 -0.80692308292E+01 -0.38147583388E+02  0.43378976858E+02  0.00000000000E+00 0.  1.
</event>
<event>
 7    1  0.1999542E-015  0.9000777E+02  0.7816164E-02  0.1186339E+00
        -11   -1    0    0    0    0  0.00000000000E+00  0.00000000000E+00  0.45593999997E+02  0.45594000000E+02  0.51100000000E-03 0. -1.
         11   -1    0    0    0    0 -0.00000000000E+00 -0.00000000000E+00 -0.45593999997E+02  0.45594000000E+02  0.51100000000E-03 0.  1.
    9900012    2    1    2    0    0  0.25492614394E+00  0.96705481021E-01 -0.11483038476E+01  0.90007770778E+02  0.90000032553E+02 0.  0.
         12    1    1    2    0    0 -0.25492614394E+00 -0.96705481021E-01  0.11483038476E+01  0.11802292215E+01  0.00000000000E+00 0. -1.
         11    1    3    3    0    0  0.24023256904E+02 -0.27162207556E+02  0.22178255439E+02  0.42506204326E+02  0.51100000000E-03 0. -1.
        -11    1    3    3    0    0 -0.60035662958E+00 -0.30809909053E+01 -0.10878348600E+01  0.33220954208E+01  0.51100000000E-03 0.  1.
        -12    1    3    3    0    0 -0.23167974130E+02  0.30339903942E+02 -0.22238724427E+02  0.44179471032E+02  0.00000000000E+00 0.  1.
</event>
<event>
 7    1  0.1999542E-015  0.9000766E+02  0.7816164E-02  0.1186339E+00
        -11   -1    0    0    0    0  0.00000000000E+00  0.00000000000E+00  0.45593999997E+02  0.45594000000E+02  0.51100000000E-03 0.  1.
         11   -1    0    0    0    0 -0.00000000000E+00 -0.00000000000E+00 -0.45593999997E+02  0.45594000000E+02  0.51100000000E-03 0. -1.
    9900012    2    1    2    0    0 -0.77739146528E+00 -0.33016051496E+00 -0.82453454948E+00  0.90007660778E+02  0.89999921100E+02 0.  0.
         12    1    1    2    0    0  0.77739146528E+00  0.33016051496E+00  0.82453454948E+00  0.11803392221E+01  0.00000000000E+00 0. -1.
         11    1    3    3    0    0  0.23909451546E+01 -0.88518883870E+01  0.28042758749E+00  0.91733955894E+01  0.51100000000E-03 0. -1.
        -11    1    3    3    0    0 -0.39456965364E+02  0.96212075596E+01  0.11818001828E+02  0.42297575795E+02  0.51100000000E-03 0.  1.
         12    1    3    3    0    0  0.36288628745E+02 -0.10994796876E+01 -0.12922963965E+02  0.38536689393E+02  0.00000000000E+00 0. -1.
</event>
<event>
 7    1  0.1999542E-015  0.9000775E+02  0.7816164E-02  0.1186339E+00
        -11   -1    0    0    0    0  0.00000000000E+00  0.00000000000E+00  0.45593999997E+02  0.45594000000E+02  0.51100000000E-03 0. -1.
         11   -1    0    0    0    0 -0.00000000000E+00 -0.00000000000E+00 -0.45593999997E+02  0.45594000000E+02  0.51100000000E-03 0.  1.
    9900012    2    1    2    0    0 -0.10107187844E+01  0.34166038690E-01 -0.60849836275E+00  0.90007750011E+02  0.90000011511E+02 0.  0.
         12    1    1    2    0    0  0.10107187844E+01 -0.34166038690E-01  0.60849836275E+00  0.11802499891E+01  0.00000000000E+00 0. -1.
         11    1    3    3    0    0 -0.19225229541E+02  0.32068937639E+02  0.19835393969E+02  0.42325749448E+02  0.51100000000E-03 0. -1.
        -11    1    3    3    0    0  0.68201148148E+01 -0.16981992327E+01  0.30440165798E+01  0.76592352046E+01  0.51100000000E-03 0.  1.
        -12    1    3    3    0    0  0.11394395941E+02 -0.30336572368E+02 -0.23487908912E+02  0.40022765358E+02  0.00000000000E+00 0.  1.
</event>
<event>
 7    1  0.1999542E-015  0.9000755E+02  0.7816164E-02  0.1186339E+00
        -11   -1    0    0    0    0  0.00000000000E+00  0.00000000000E+00  0.45593999997E+02  0.45594000000E+02  0.51100000000E-03 0.  1.
         11   -1    0    0    0    0 -0.00000000000E+00 -0.00000000000E+00 -0.45593999997E+02  0.45594000000E+02  0.51100000000E-03 0. -1.
    9900012    2    1    2    0    0  0.70433277694E+00  0.51334596153E+00  0.79615637961E+00  0.90007545123E+02  0.89999803918E+02 0.  0.
         12    1    1    2    0    0 -0.70433277694E+00 -0.51334596153E+00 -0.79615637961E+00  0.11804548774E+01  0.00000000000E+00 0. -1.
         11    1    3    3    0    0  0.12851255013E+01 -0.34954537210E+02 -0.26560617024E+01  0.35078852363E+02  0.51100000000E-03 0. -1.
        -11    1    3    3    0    0  0.65997518585E+01 -0.77376281867E+01 -0.31255150858E+01  0.10639382471E+02  0.51100000000E-03 0.  1.
        -12    1    3    3    0    0 -0.71805445829E+01  0.43205511358E+02  0.65777331678E+01  0.44289310288E+02  0.00000000000E+00 0.  1.
</event>
<event>
 7    1  0.1999542E-015  0.9000779E+02  0.7816164E-02  0.1186339E+00
        -11   -1    0    0    0    0  0.00000000000E+00  0.00000000000E+00  0.45593999997E+02  0.45594000000E+02  0.51100000000E-03 0. -1.
         11   -1    0    0    0    0 -0.00000000000E+00 -0.00000000000E+00 -0.45593999997E+02  0.45594000000E+02  0.51100000000E-03 0.  1.
    9900012    2    1    2    0    0  0.61063329044E+00 -0.44078581656E+00 -0.90869142488E+00  0.90007794400E+02  0.90000056487E+02 0.  0.
         12    1    1    2    0    0 -0.61063329044E+00  0.44078581656E+00  0.90869142488E+00  0.11802055995E+01  0.00000000000E+00 0. -1.
         11    1    3    3    0    0 -0.65424192574E+01  0.20696908153E+01  0.34418596400E+02  0.35095963418E+02  0.51100000000E-03 0. -1.
        -11    1    3    3    0    0  0.37403472596E+00 -0.56531196608E+01  0.86302782151E+01  0.10323728309E+02  0.51100000000E-03 0.  1.
        -12    1    3    3    0    0  0.67790178219E+01  0.31426430290E+01 -0.43957566040E+02  0.44588102673E+02  0.00000000000E+00 0.  1.
</event>
<event>
 7    1  0.1999542E-015  0.9000775E+02  0.7816164E-02  0.1186339E+00
        -11   -1    0    0    0    0  0.00000000000E+00  0.00000000000E+00  0.45593999997E+02  0.45594000000E+02  0.51100000000E-03 0.  1.
         11   -1    0    0    0    0 -0.00000000000E+00 -0.00000000000E+00 -0.45593999997E+02  0.45594000000E+02  0.51100000000E-03 0. -1.
    9900012    2    1    2    0    0 -0.10453839146E+01  0.50051513321E+00 -0.22283454414E+00  0.90007746569E+02  0.90000008024E+02 0.  0.
         12    1    1    2    0    0  0.10453839146E+01 -0.50051513321E+00  0.22283454414E+00  0.11802534310E+01  0.00000000000E+00 0. -1.
         11    1    3    3    0    0  0.13938314629E+02  0.77243605499E+01 -0.33754377611E+02  0.37326938915E+02  0.51100000000E-03 0. -1.
        -11    1    3    3    0    0  0.45887447094E+00 -0.57208725166E+01 -0.71339181905E+01  0.91559672969E+01  0.51100000000E-03 0.  1.
        -12    1    3    3    0    0 -0.15442573015E+02 -0.15029729001E+01  0.40665461257E+02  0.43524840357E+02  0.00000000000E+00 0.  1.
</event>
<event>
 7    1  0.1999542E-015  0.9000770E+02  0.7816164E-02  0.1186339E+00
        -11   -1    0    0    0    0  0.00000000000E+00  0.00000000000E+00  0.45593999997E+02  0.45594000000E+02  0.51100000000E-03 0.  1.
         11   -1    0    0    0    0 -0.00000000000E+00 -0.00000000000E+00 -0.45593999997E+02  0.45594000000E+02  0.51100000000E-03 0. -1.
    9900012    2    1    2    0    0 -0.92439274704E+00 -0.48159859819E+00  0.55377054379E+00  0.90007703014E+02  0.89999963894E+02 0.  0.
         12    1    1    2    0    0  0.92439274704E+00  0.48159859819E+00 -0.55377054379E+00  0.11802969862E+01  0.00000000000E+00 0. -1.
         11    1    3    3    0    0 -0.29971736088E+02 -0.75540649248E+01 -0.38452922905E+01  0.31147313432E+02  0.51100000000E-03 0. -1.
        -11    1    3    3    0    0  0.72784141403E+01 -0.71995318341E+01 -0.20452600734E+02  0.22871760931E+02  0.51100000000E-03 0.  1.
        -12    1    3    3    0    0  0.21768929200E+02  0.14271998161E+02  0.24851663568E+02  0.35988628651E+02  0.00000000000E+00 0.  1.
</event>
<event>
 7    1  0.1999542E-015  0.9000774E+02  0.7816164E-02  0.1186339E+00
        -11   -1    0    0    0    0  0.00000000000E+00  0.00000000000E+00  0.45593999997E+02  0.45594000000E+02  0.51100000000E-03 0.  1.
         11   -1    0    0    0    0 -0.00000000000E+00 -0.00000000000E+00 -0.45593999997E+02  0.45594000000E+02  0.51100000000E-03 0. -1.
    9900012    2    1    2    0    0  0.48705804475E+00  0.66789623531E+00  0.84243508564E+00  0.90007742488E+02  0.90000003889E+02 0.  0.
         12    1    1    2    0    0 -0.48705804475E+00 -0.66789623531E+00 -0.84243508564E+00  0.11802575116E+01  0.00000000000E+00 0. -1.
         11    1    3    3    0    0  0.46221457044E+01 -0.71917301472E+01 -0.42107541353E+01  0.95297252884E+01  0.51100000000E-03 0. -1.
        -11    1    3    3    0    0 -0.31175054191E+02  0.46661341062E+01 -0.24773737809E+02  0.40092329648E+02  0.51100000000E-03 0.  1.
         12    1    3    3    0    0  0.27039966532E+02  0.31934922763E+01  0.29826927030E+02  0.40385687552E+02  0.00000000000E+00 0. -1.
</event>
<event>
 7    1  0.1999542E-015  0.9000775E+02  0.7816164E-02  0.1186339E+00
        -11   -1    0    0    0    0  0.00000000000E+00  0.00000000000E+00  0.45593999997E+02  0.45594000000E+02  0.51100000000E-03 0.  1.
         11   -1    0    0    0    0 -0.00000000000E+00 -0.00000000000E+00 -0.45593999997E+02  0.45594000000E+02  0.51100000000E-03 0. -1.
    9900012    2    1    2    0    0  0.19885488709E+00 -0.11022000961E+01  0.37230156053E+00  0.90007747158E+02  0.90000008621E+02 0.  0.
         12    1    1    2    0    0 -0.19885488709E+00  0.11022000961E+01 -0.37230156053E+00  0.11802528415E+01  0.00000000000E+00 0. -1.
         11    1    3    3    0    0 -0.55462096726E+01  0.16061207780E+02 -0.33452763099E+02  0.37520796851E+02  0.51100000000E-03 0. -1.
        -11    1    3    3    0    0 -0.43251548230E+01 -0.37282730486E+01 -0.65918570308E+01  0.87212134215E+01  0.51100000000E-03 0.  1.
        -12    1    3    3    0    0  0.10070219383E+02 -0.13435134828E+02  0.40416921690E+02  0.43765736886E+02  0.00000000000E+00 0.  1.
</event>
<event>
 7    1  0.1999542E-015  0.9000771E+02  0.7816164E-02  0.1186339E+00
        -11   -1    0    0    0    0  0.00000000000E+00  0.00000000000E+00  0.45593999997E+02  0.45594000000E+02  0.51100000000E-03 0. -1.
         11   -1    0    0    0    0 -0.00000000000E+00 -0.00000000000E+00 -0.45593999997E+02  0.45594000000E+02  0.51100000000E-03 0.  1.
    9900012    2    1    2    0    0  0.11242086122E+01 -0.30847400847E+00 -0.18463694316E+00  0.90007706808E+02  0.89999967738E+02 0.  0.
         12    1    1    2    0    0 -0.11242086122E+01  0.30847400847E+00  0.18463694316E+00  0.11802931918E+01  0.00000000000E+00 0. -1.
         11    1    3    3    0    0  0.89873520172E+01  0.61375030044E+01 -0.10993030055E+01  0.10938459982E+02  0.51100000000E-03 0. -1.
        -11    1    3    3    0    0  0.14044191740E+01 -0.58164093967E+01 -0.38302477968E+02  0.38767032776E+02  0.51100000000E-03 0.  1.
         12    1    3    3    0    0 -0.92675625789E+01 -0.62956761616E+00  0.39217144030E+02  0.40302214051E+02  0.00000000000E+00 0. -1.
</event>
<event>
 7    1  0.1999542E-015  0.9000769E+02  0.7816164E-02  0.1186339E+00
        -11   -1    0    0    0    0  0.00000000000E+00  0.00000000000E+00  0.45593999997E+02  0.45594000000E+02  0.51100000000E-03 0.  1.
         11   -1    0    0    0    0 -0.00000000000E+00 -0.00000000000E+00 -0.45593999997E+02  0.45594000000E+02  0.51100000000E-03 0. -1.
    9900012    2    1    2    0    0 -0.71044672556E+00  0.47885509773E+00 -0.81184243199E+00  0.90007692884E+02  0.89999953630E+02 0.  0.
         12    1    1    2    0    0  0.71044672556E+00 -0.47885509773E+00  0.81184243199E+00  0.11803071163E+01  0.00000000000E+00 0. -1.
         11    1    3    3    0    0 -0.69466238912E+01  0.28497907260E+02 -0.28454679727E+02  0.40866307642E+02  0.51100000000E-03 0. -1.
        -11    1    3    3    0    0  0.27882507237E+01  0.58432071174E+01  0.58452280898E+01  0.87226202025E+01  0.51100000000E-03 0.  1.
        -12    1    3    3    0    0  0.34479264419E+01 -0.33862259279E+02  0.21797609205E+02  0.40418765039E+02  0.00000000000E+00 0.  1.
</event>
<event>
 7    1  0.1999542E-015  0.9000723E+02  0.7816164E-02  0.1186340E+00
        -11   -1    0    0    0    0  0.00000000000E+00  0.00000000000E+00  0.45593999997E+02  0.45594000000E+02  0.51100000000E-03 0. -1.
         11   -1    0    0    0    0 -0.00000000000E+00 -0.00000000000E+00 -0.45593999997E+02  0.45594000000E+02  0.51100000000E-03 0.  1.
    9900012    2    1    2    0    0 -0.78609685893E+00  0.86511360543E+00  0.16687200631E+00  0.90007230722E+02  0.89999485366E+02 0.  0.
         12    1    1    2    0    0  0.78609685893E+00 -0.86511360543E+00 -0.16687200631E+00  0.11807692782E+01  0.00000000000E+00 0. -1.
         11    1    3    3    0    0  0.11826611923E+02 -0.27414235616E+02 -0.44142752532E+00  0.29859737482E+02  0.51100000000E-03 0. -1.
        -11    1    3    3    0    0  0.10323038801E+02 -0.98748384820E+01 -0.53057968678E+01  0.15239063154E+02  0.51100000000E-03 0.  1.
        -12    1    3    3    0    0 -0.22935747583E+02  0.38154187704E+02  0.59140963994E+01  0.44908430086E+02  0.00000000000E+00 0.  1.
</event>
<event>
 7    1  0.1999542E-015  0.9000767E+02  0.7816164E-02  0.1186339E+00
        -11   -1    0    0    0    0  0.00000000000E+00  0.00000000000E+00  0.45593999997E+02  0.45594000000E+02  0.51100000000E-03 0. -1.
         11   -1    0    0    0    0 -0.00000000000E+00 -0.00000000000E+00 -0.45593999997E+02  0.45594000000E+02  0.51100000000E-03 0.  1.
    9900012    2    1    2    0    0  0.86829967250E+00  0.58201414106E+00 -0.54818048324E+00  0.90007666732E+02  0.89999927133E+02 0.  0.
         12    1    1    2    0    0 -0.86829967250E+00 -0.58201414106E+00  0.54818048324E+00  0.11803332681E+01  0.00000000000E+00 0. -1.
         11    1    3    3    0    0  0.29511488155E+02 -0.37883820359E+01  0.23027583041E+02  0.37623787058E+02  0.51100000000E-03 0. -1.
        -11    1    3    3    0    0 -0.58305796086E+00  0.11062838258E+02  0.46594744651E+01  0.12018196598E+02  0.51100000000E-03 0.  1.
        -12    1    3    3    0    0 -0.28060130522E+02 -0.66924420814E+01 -0.28235237989E+02  0.40365683076E+02  0.00000000000E+00 0.  1.
</event>
<event>
 7    1  0.1999542E-015  0.9000778E+02  0.7816164E-02  0.1186339E+00
        -11   -1    0    0    0    0  0.00000000000E+00  0.00000000000E+00  0.45593999997E+02  0.45594000000E+02  0.51100000000E-03 0. -1.
         11   -1    0    0    0    0 -0.00000000000E+00 -0.00000000000E+00 -0.45593999997E+02  0.45594000000E+02  0.51100000000E-03 0.  1.
    9900012    2    1    2    0    0 -0.82306157885E+00 -0.73320089155E+00 -0.42179703784E+00  0.90007776864E+02  0.90000038718E+02 0.  0.
         12    1    1    2    0    0  0.82306157885E+00  0.73320089155E+00  0.42179703784E+00  0.11802231361E+01  0.00000000000E+00 0. -1.
         11    1    3    3    0    0  0.47003483048E+01  0.81966118394E+01 -0.21053995843E+01  0.96804146349E+01  0.51100000000E-03 0. -1.
        -11    1    3    3    0    0  0.10617058775E+02  0.20150667642E+02 -0.27759681744E+02  0.35907816339E+02  0.51100000000E-03 0.  1.
         12    1    3    3    0    0 -0.16140468659E+02 -0.29080480373E+02  0.29443284290E+02  0.44419545890E+02  0.00000000000E+00 0. -1.
</event>
<event>
 7    1  0.1999542E-015  0.9000776E+02  0.7816164E-02  0.1186339E+00
        -11   -1    0    0    0    0  0.00000000000E+00  0.00000000000E+00  0.45593999997E+02  0.45594000000E+02  0.51100000000E-03 0. -1.
         11   -1    0    0    0    0 -0.00000000000E+00 -0.00000000000E+00 -0.45593999997E+02  0.45594000000E+02  0.51100000000E-03 0.  1.
    9900012    2    1    2    0    0  0.27196870731E+00 -0.11111779329E+01 -0.29032517305E+00  0.90007757617E+02  0.90000019218E+02 0.  0.
         12    1    1    2    0    0 -0.27196870731E+00  0.11111779329E+01  0.29032517305E+00  0.11802423829E+01  0.00000000000E+00 0. -1.
         11    1    3    3    0    0  0.26963979652E+01 -0.33607089214E+02 -0.20083615141E+02  0.39243580428E+02  0.51100000000E-03 0. -1.
        -11    1    3    3    0    0  0.96461613710E+01 -0.78457220602E+00 -0.96369270201E+00  0.97258771649E+01  0.51100000000E-03 0.  1.
        -12    1    3    3    0    0 -0.12070590629E+02  0.33280483488E+02  0.20756982670E+02  0.41038300024E+02  0.00000000000E+00 0.  1.
</event>
<event>
 7    1  0.1999542E-015  0.9000770E+02  0.7816164E-02  0.1186339E+00
        -11   -1    0    0    0    0  0.00000000000E+00  0.00000000000E+00  0.45593999997E+02  0.45594000000E+02  0.51100000000E-03 0.  1.
         11   -1    0    0    0    0 -0.00000000000E+00 -0.00000000000E+00 -0.45593999997E+02  0.45594000000E+02  0.51100000000E-03 0. -1.
    9900012    2    1    2    0    0  0.57479921426E+00 -0.92966871764E+00  0.44544634919E+00  0.90007703211E+02  0.89999964093E+02 0.  0.
         12    1    1    2    0    0 -0.57479921426E+00  0.92966871764E+00 -0.44544634919E+00  0.11802967895E+01  0.00000000000E+00 0. -1.
         11    1    3    3    0    0 -0.37679472247E+02  0.14201586771E+02 -0.86063480655E+01  0.41176412215E+02  0.51100000000E-03 0. -1.
        -11    1    3    3    0    0  0.70646443917E+01  0.20381596104E+01 -0.66551875818E+01  0.99173997091E+01  0.51100000000E-03 0.  1.
        -12    1    3    3    0    0  0.31189627070E+02 -0.17169415099E+02  0.15706981997E+02  0.38913891286E+02  0.00000000000E+00 0.  1.
</event>
<event>
 7    1  0.1999542E-015  0.9000774E+02  0.7816164E-02  0.1186339E+00
        -11   -1    0    0    0    0  0.00000000000E+00  0.00000000000E+00  0.45593999997E+02  0.45594000000E+02  0.51100000000E-03 0.  1.
         11   -1    0    0    0    0 -0.00000000000E+00 -0.00000000000E+00 -0.45593999997E+02  0.45594000000E+02  0.51100000000E-03 0. -1.
    9900012    2    1    2    0    0 -0.44839602039E+00  0.91306264984E+00  0.59855686647E+00  0.90007740403E+02  0.90000001776E+02 0.  0.
         12    1    1    2    0    0  0.44839602039E+00 -0.91306264984E+00 -0.59855686647E+00  0.11802595969E+01  0.00000000000E+00 0. -1.
         11    1    3    3    0    0 -0.65641741925E+01  0.12451064580E+01  0.68894326966E+01  0.95970285018E+01  0.51100000000E-03 0. -1.
        -11    1    3    3    0    0  0.37074648271E+01 -0.30653016109E+01  0.36826678130E+02  0.37139542159E+02  0.51100000000E-03 0.  1.
         12    1    3    3    0    0  0.24083133451E+01  0.27332578027E+01 -0.43117553960E+02  0.43271169743E+02  0.00000000000E+00 0. -1.
</event>
<event>
 7    1  0.1999542E-015  0.9000780E+02  0.7816164E-02  0.1186339E+00
        -11   -1    0    0    0    0  0.00000000000E+00  0.00000000000E+00  0.45593999997E+02  0.45594000000E+02  0.51100000000E-03 0.  1.
         11   -1    0    0    0    0 -0.00000000000E+00 -0.00000000000E+00 -0.45593999997E+02  0.45594000000E+02  0.51100000000E-03 0. -1.
    9900012    2    1    2    0    0  0.83833532655E+00  0.19140651030E-02  0.83069798926E+00  0.90007801316E+02  0.90000063494E+02 0.  0.
         12    1    1    2    0    0 -0.83833532655E+00 -0.19140651030E-02 -0.83069798926E+00  0.11801986836E+01  0.00000000000E+00 0. -1.
         11    1    3    3    0    0  0.13338613176E+02 -0.31302685240E+02 -0.18363894130E+02  0.38665350284E+02  0.51100000000E-03 0. -1.
        -11    1    3    3    0    0 -0.17600429996E+01  0.35558940268E+01 -0.93206862257E+01  0.10130021010E+02  0.51100000000E-03 0.  1.
        -12    1    3    3    0    0 -0.10740234850E+02  0.27748705278E+02  0.28515278345E+02  0.41212430022E+02  0.00000000000E+00 0.  1.
</event>
<event>
 7    1  0.1999542E-015  0.9000774E+02  0.7816164E-02  0.1186339E+00
        -11   -1    0    0    0    0  0.00000000000E+00  0.00000000000E+00  0.45593999997E+02  0.45594000000E+02  0.51100000000E-03 0. -1.
         11   -1    0    0    0    0 -0.00000000000E+00 -0.00000000000E+00 -0.45593999997E+02  0.45594000000E+02  0.51100000000E-03 0.  1.
    9900012    2    1    2    0    0  0.10990159546E+01  0.21264707017E-02  0.43030980794E+00  0.90007742773E+02  0.90000004178E+02 0.  0.
         12    1    1    2    0    0 -0.10990159546E+01 -0.21264707017E-02 -0.43030980794E+00  0.11802572267E+01  0.00000000000E+00 0. -1.
         11    1    3    3    0    0  0.12726955615E+01  0.81153166217E+01  0.62715046701E+00  0.82384122155E+01  0.51100000000E-03 0. -1.
        -11    1    3    3    0    0 -0.16820359591E+02  0.13961041603E+02  0.32363662497E+02  0.39054344571E+02  0.51100000000E-03 0.  1.
         12    1    3    3    0    0  0.16646679984E+02 -0.22074231754E+02 -0.32560503156E+02  0.42714985986E+02  0.00000000000E+00 0. -1.
</event>
<event>
 7    1  0.1999542E-015  0.9000775E+02  0.7816164E-02  0.1186339E+00
        -11   -1    0    0    0    0  0.00000000000E+00  0.00000000000E+00  0.45593999997E+02  0.45594000000E+02  0.51100000000E-03 0. -1.
         11   -1    0    0    0    0 -0.00000000000E+00 -0.00000000000E+00 -0.45593999997E+02  0.45594000000E+02  0.51100000000E-03 0.  1.
    9900012    2    1    2    0    0  0.85952347282E+00 -0.30694211750E+00 -0.74833120953E+00  0.90007748475E+02  0.90000009955E+02 0.  0.
         12    1    1    2    0    0 -0.85952347282E+00  0.30694211750E+00  0.74833120953E+00  0.11802515253E+01  0.00000000000E+00 0. -1.
         11    1    3    3    0    0  0.98338017042E+00  0.18945216560E+02  0.23507655908E+02  0.30207584372E+02  0.51100000000E-03 0. -1.
        -11    1    3    3    0    0  0.73154257276E+00  0.16631200756E+02 -0.30644314604E+00  0.16650102126E+02  0.51100000000E-03 0.  1.
        -12    1    3    3    0    0 -0.85539927037E+00 -0.35883359434E+02 -0.23949543972E+02  0.43150061977E+02  0.00000000000E+00 0.  1.
</event>
<event>
 7    1  0.1999542E-015  0.9000776E+02  0.7816164E-02  0.1186339E+00
        -11   -1    0    0    0    0  0.00000000000E+00  0.00000000000E+00  0.45593999997E+02  0.45594000000E+02  0.51100000000E-03 0.  1.
         11   -1    0    0    0    0 -0.00000000000E+00 -0.00000000000E+00 -0.45593999997E+02  0.45594000000E+02  0.51100000000E-03 0. -1.
    9900012    2    1    2    0    0  0.24371866716E-01 -0.76525889230E+00 -0.89819842493E+00  0.90007756139E+02  0.90000017720E+02 0.  0.
         12    1    1    2    0    0 -0.24371866716E-01  0.76525889230E+00  0.89819842493E+00  0.11802438607E+01  0.00000000000E+00 0. -1.
         11    1    3    3    0    0 -0.45596413863E+01 -0.34809516960E+01 -0.67864652074E+01  0.88861389002E+01  0.51100000000E-03 0. -1.
        -11    1    3    3    0    0 -0.56651104702E+01  0.40327058465E+02 -0.39569066426E+01  0.40914816772E+02  0.51100000000E-03 0.  1.
         12    1    3    3    0    0  0.10249123723E+02 -0.37611365661E+02  0.98451734251E+01  0.40206800467E+02  0.00000000000E+00 0. -1.
</event>
<event>
 7    1  0.1999542E-015  0.9000773E+02  0.7816164E-02  0.1186339E+00
        -11   -1    0    0    0    0  0.00000000000E+00  0.00000000000E+00  0.45593999997E+02  0.45594000000E+02  0.51100000000E-03 0.  1.
         11   -1    0    0    0    0 -0.00000000000E+00 -0.00000000000E+00 -0.45593999997E+02  0.45594000000E+02  0.51100000000E-03 0. -1.
    9900012    2    1    2    0    0 -0.59679733010E+00 -0.92262464303E+00  0.43084634802E+00  0.90007732293E+02  0.89999993559E+02 0.  0.
         12    1    1    2    0    0  0.59679733010E+00  0.92262464303E+00 -0.43084634802E+00  0.11802677072E+01  0.00000000000E+00 0. -1.
         11    1    3    3    0    0 -0.16295763335E+02  0.28633681962E+02 -0.17014028316E+02  0.37079870620E+02  0.51100000000E-03 0. -1.
        -11    1    3    3    0    0 -0.52885752997E+01 -0.85339404990E+01 -0.87536481091E+01  0.13320042215E+02  0.51100000000E-03 0.  1.
        -12    1    3    3    0    0  0.20987541304E+02 -0.21022366106E+02  0.26198522773E+02  0.39607819458E+02  0.00000000000E+00 0.  1.
</event>
<event>
 7    1  0.1999542E-015  0.9000770E+02  0.7816164E-02  0.1186339E+00
        -11   -1    0    0    0    0  0.00000000000E+00  0.00000000000E+00  0.45593999997E+02  0.45594000000E+02  0.51100000000E-03 0. -1.
         11   -1    0    0    0    0 -0.00000000000E+00 -0.00000000000E+00 -0.45593999997E+02  0.45594000000E+02  0.51100000000E-03 0.  1.
    9900012    2    1    2    0    0 -0.52431854361E+00 -0.34469600158E+00 -0.99969599768E+00  0.90007696075E+02  0.89999956863E+02 0.  0.
         12    1    1    2    0    0  0.52431854361E+00  0.34469600158E+00  0.99969599768E+00  0.11803039255E+01  0.00000000000E+00 0. -1.
         11    1    3    3    0    0  0.27083890816E+02  0.29892534041E+02  0.76597963143E+01  0.41058168651E+02  0.51100000000E-03 0. -1.
        -11    1    3    3    0    0  0.15067663319E+01 -0.25890806047E+01 -0.82708822285E+01  0.87966571068E+01  0.51100000000E-03 0.  1.
        -12    1    3    3    0    0 -0.29114975691E+02 -0.27648149438E+02 -0.38861008353E+00  0.40152870317E+02  0.00000000000E+00 0.  1.
</event>
<event>
 7    1  0.1999542E-015  0.9000760E+02  0.7816164E-02  0.1186339E+00
        -11   -1    0    0    0    0  0.00000000000E+00  0.00000000000E+00  0.45593999997E+02  0.45594000000E+02  0.51100000000E-03 0.  1.
         11   -1    0    0    0    0 -0.00000000000E+00 -0.00000000000E+00 -0.45593999997E+02  0.45594000000E+02  0.51100000000E-03 0. -1.
    9900012    2    1    2    0    0 -0.73210965454E+00  0.16233673439E+00  0.91159016312E+00  0.90007604140E+02  0.89999863714E+02 0.  0.
         12    1    1    2    0    0  0.73210965454E+00 -0.16233673439E+00 -0.91159016312E+00  0.11803958603E+01  0.00000000000E+00 0. -1.
         11    1    3    3    0    0  0.56415447944E+01  0.17917130682E+01 -0.64137861881E+01  0.87277670061E+01  0.51100000000E-03 0. -1.
        -11    1    3    3    0    0  0.30175990666E+02  0.21456054932E+02  0.86748111849E+01  0.38029002817E+02  0.51100000000E-03 0.  1.
         12    1    3    3    0    0 -0.36549645115E+02 -0.23085431265E+02 -0.13494348337E+01  0.43250834317E+02  0.00000000000E+00 0. -1.
</event>
<event>
 7    1  0.1999542E-015  0.9000779E+02  0.7816164E-02  0.1186339E+00
        -11   -1    0    0    0    0  0.00000000000E+00  0.00000000000E+00  0.45593999997E+02  0.45594000000E+02  0.51100000000E-03 0.  1.
         11   -1    0    0    0    0 -0.00000000000E+00 -0.00000000000E+00 -0.45593999997E+02  0.45594000000E+02  0.51100000000E-03 0. -1.
    9900012    2    1    2    0    0 -0.63902288893E+00  0.81979215068E+00  0.55901003718E+00  0.90007787458E+02  0.90000049452E+02 0.  0.
         12    1    1    2    0    0  0.63902288893E+00 -0.81979215068E+00 -0.55901003718E+00  0.11802125421E+01  0.00000000000E+00 0. -1.
         11    1    3    3    0    0  0.26091053735E+01 -0.59290345385E+01 -0.68811614404E+01  0.94504637155E+01  0.51100000000E-03 0. -1.
        -11    1    3    3    0    0 -0.51880829559E+01  0.38149512083E+02  0.23631612468E+02  0.45174711787E+02  0.51100000000E-03 0.  1.
         12    1    3    3    0    0  0.19399546935E+01 -0.31400685394E+02 -0.16191440990E+02  0.35382611955E+02  0.00000000000E+00 0. -1.
</event>
<event>
 7    1  0.1999542E-015  0.9000783E+02  0.7816164E-02  0.1186339E+00
        -11   -1    0    0    0    0  0.00000000000E+00  0.00000000000E+00  0.45593999997E+02  0.45594000000E+02  0.51100000000E-03 0. -1.
         11   -1    0    0    0    0 -0.00000000000E+00 -0.00000000000E+00 -0.45593999997E+02  0.45594000000E+02  0.51100000000E-03 0.  1.
    9900012    2    1    2    0    0 -0.26661837557E+00 -0.63862286887E+00  0.95596995106E+00  0.90007829218E+02  0.90000091764E+02 0.  0.
         12    1    1    2    0    0  0.26661837557E+00  0.63862286887E+00 -0.95596995106E+00  0.11801707818E+01  0.00000000000E+00 0. -1.
         11    1    3    3    0    0  0.39550639939E+02  0.91314364254E+01  0.15026956342E+01  0.40618891482E+02  0.51100000000E-03 0. -1.
        -11    1    3    3    0    0 -0.31444093940E+01  0.77265213665E+01  0.23100364543E+01  0.86557906366E+01  0.51100000000E-03 0.  1.
        -12    1    3    3    0    0 -0.36672848920E+02 -0.17496580661E+02 -0.28567621375E+01  0.40733147100E+02  0.00000000000E+00 0.  1.
</event>
<event>
 7    1  0.1999542E-015  0.9000778E+02  0.7816164E-02  0.1186339E+00
        -11   -1    0    0    0    0  0.00000000000E+00  0.00000000000E+00  0.45593999997E+02  0.45594000000E+02  0.51100000000E-03 0.  1.
         11   -1    0    0    0    0 -0.00000000000E+00 -0.00000000000E+00 -0.45593999997E+02  0.45594000000E+02  0.51100000000E-03 0. -1.
    9900012    2    1    2    0    0  0.84586468267E+00  0.68387038270E+00  0.45799570456E+00  0.90007777213E+02  0.90000039072E+02 0.  0.
         12    1    1    2    0    0 -0.84586468267E+00 -0.68387038270E+00 -0.45799570456E+00  0.11802227871E+01  0.00000000000E+00 0. -1.
         11    1    3    3    0    0  0.78482307483E+01  0.44555560822E+01  0.48575142984E+01  0.10249007332E+02  0.51100000000E-03 0. -1.
        -11    1    3    3    0    0  0.97573056528E+01 -0.74396840026E+01  0.34837361665E+02  0.36935019693E+02  0.51100000000E-03 0.  1.
         12    1    3    3    0    0 -0.16759671718E+02  0.36679983032E+01 -0.39236880259E+02  0.42823750188E+02  0.00000000000E+00 0. -1.
</event>
<event>
 7    1  0.1999542E-015  0.9000770E+02  0.7816164E-02  0.1186339E+00
        -11   -1    0    0    0    0  0.00000000000E+00  0.00000000000E+00  0.45593999997E+02  0.45594000000E+02  0.51100000000E-03 0. -1.
         11   -1    0    0    0    0 -0.00000000000E+00 -0.00000000000E+00 -0.45593999997E+02  0.45594000000E+02  0.51100000000E-03 0.  1.
    9900012    2    1    2    0    0 -0.75480578208E+00 -0.87075417982E+00 -0.25526274791E+00  0.90007701868E+02  0.89999962732E+02 0.  0.
         12    1    1    2    0    0  0.75480578208E+00  0.87075417982E+00  0.25526274791E+00  0.11802981322E+01  0.00000000000E+00 0. -1.
         11    1    3    3    0    0 -0.87959800474E+01  0.24443732039E+02  0.25086800776E+02  0.36113887557E+02  0.51100000000E-03 0. -1.
        -11    1    3    3    0    0 -0.45560775046E+01  0.23432971088E+00  0.85073529645E+01  0.96533832082E+01  0.51100000000E-03 0.  1.
        -12    1    3    3    0    0  0.12597251770E+02 -0.25548815930E+02 -0.33849416488E+02  0.44240431103E+02  0.00000000000E+00 0.  1.
</event>
<event>
 7    1  0.1999542E-015  0.9000743E+02  0.7816164E-02  0.1186340E+00
        -11   -1    0    0    0    0  0.00000000000E+00  0.00000000000E+00  0.45593999997E+02  0.45594000000E+02  0.51100000000E-03 0.  1.
         11   -1    0    0    0    0 -0.00000000000E+00 -0.00000000000E+00 -0.45593999997E+02  0.45594000000E+02  0.51100000000E-03 0. -1.
    9900012    2    1    2    0    0  0.70435551959E+00  0.68612657778E+00  0.65334345500E+00  0.90007430625E+02  0.89999687909E+02 0.  0.
         12    1    1    2    0    0 -0.70435551959E+00 -0.68612657778E+00 -0.65334345500E+00  0.11805693749E+01  0.00000000000E+00 0. -1.
         11    1    3    3    0    0 -0.79094662827E+01 -0.26049543782E+01  0.37771976660E+01  0.91439962084E+01  0.51100000000E-03 0. -1.
        -11    1    3    3    0    0  0.92058352001E+01  0.32982090711E+02  0.23050355226E+02  0.41278136897E+02  0.51100000000E-03 0.  1.
         12    1    3    3    0    0 -0.59201339775E+00 -0.29691009755E+02 -0.26174209437E+02  0.39585297520E+02  0.00000000000E+00 0. -1.
</event>
<event>
 7    1  0.1999542E-015  0.9000852E+02  0.7816164E-02  0.1186337E+00
        -11   -1    0    0    0    0  0.00000000000E+00  0.00000000000E+00  0.45593999997E+02  0.45594000000E+02  0.51100000000E-03 0. -1.
         11   -1    0    0    0    0 -0.00000000000E+00 -0.00000000000E+00 -0.45593999997E+02  0.45594000000E+02  0.51100000000E-03 0.  1.
    9900012    2    1    2    0    0 -0.87274666086E+00  0.19856417163E+00  0.76815524134E+00  0.90008518360E+02  0.90000789999E+02 0.  0.
         12    1    1    2    0    0  0.87274666086E+00 -0.19856417163E+00 -0.76815524134E+00  0.11794816400E+01  0.00000000000E+00 0. -1.
         11    1    3    3    0    0 -0.94329923522E+01 -0.32837719407E+02  0.13324926892E+02  0.36672207971E+02  0.51100000000E-03 0. -1.
        -11    1    3    3    0    0  0.56779216988E+00 -0.82456375838E+01 -0.71745840553E+01  0.10944751424E+02  0.51100000000E-03 0.  1.
        -12    1    3    3    0    0  0.79924535215E+01  0.41281921162E+02 -0.53821875956E+01  0.42391558964E+02  0.00000000000E+00 0.  1.
</event>
<event>
 7    1  0.1999542E-015  0.9000776E+02  0.7816164E-02  0.1186339E+00
        -11   -1    0    0    0    0  0.00000000000E+00  0.00000000000E+00  0.45593999997E+02  0.45594000000E+02  0.51100000000E-03 0.  1.
         11   -1    0    0    0    0 -0.00000000000E+00 -0.00000000000E+00 -0.45593999997E+02  0.45594000000E+02  0.51100000000E-03 0. -1.
    9900012    2    1    2    0    0 -0.47315684401E+00 -0.63500030291E+00  0.87513940925E+00  0.90007757750E+02  0.90000019352E+02 0.  0.
         12    1    1    2    0    0  0.47315684401E+00  0.63500030291E+00 -0.87513940925E+00  0.11802422503E+01  0.00000000000E+00 0. -1.
         11    1    3    3    0    0  0.33957517473E+01  0.17089209452E+02 -0.13779589730E+02  0.22213718802E+02  0.51100000000E-03 0. -1.
        -11    1    3    3    0    0 -0.24546769913E+02 -0.20539261780E+02  0.28412885765E+02  0.42798332507E+02  0.51100000000E-03 0.  1.
         12    1    3    3    0    0  0.20677861321E+02  0.28150520246E+01 -0.13758156626E+02  0.24995706441E+02  0.00000000000E+00 0. -1.
</event>
<event>
 7    1  0.2069408E-015  0.9000792E+02  0.7816164E-02  0.1186339E+00
        -11   -1    0    0    0    0  0.00000000000E+00  0.00000000000E+00  0.45593999997E+02  0.45594000000E+02  0.51100000000E-03 0. -1.
         11   -1    0    0    0    0 -0.00000000000E+00 -0.00000000000E+00 -0.45593999997E+02  0.45594000000E+02  0.51100000000E-03 0.  1.
    9900012    2    1    2    0    0  0.23758984545E+00 -0.43849855937E+00 -0.10695137339E+01  0.90007919686E+02  0.90000183425E+02 0.  0.
         12    1    1    2    0    0 -0.23758984545E+00  0.43849855937E+00  0.10695137339E+01  0.11800803143E+01  0.00000000000E+00 0. -1.
         11    1    3    3    0    0  0.14387232363E+02  0.38942658741E+01  0.39337151054E+02  0.42066247932E+02  0.51100000000E-03 0. -1.
        -11    1    3    3    0    0 -0.77705946455E+01 -0.36471369491E+01 -0.17554413034E+01  0.87615822487E+01  0.51100000000E-03 0.  1.
        -12    1    3    3    0    0 -0.63790478717E+01 -0.68562748438E+00 -0.38651223484E+02  0.39180089505E+02  0.00000000000E+00 0.  1.
</event>
<event>
 7    1  0.1999542E-015  0.9000776E+02  0.7816164E-02  0.1186339E+00
        -11   -1    0    0    0    0  0.00000000000E+00  0.00000000000E+00  0.45593999997E+02  0.45594000000E+02  0.51100000000E-03 0.  1.
         11   -1    0    0    0    0 -0.00000000000E+00 -0.00000000000E+00 -0.45593999997E+02  0.45594000000E+02  0.51100000000E-03 0. -1.
    9900012    2    1    2    0    0  0.11710968205E+01 -0.99613948591E-01  0.10764271357E+00  0.90007755256E+02  0.90000016825E+02 0.  0.
         12    1    1    2    0    0 -0.11710968205E+01  0.99613948591E-01 -0.10764271357E+00  0.11802447439E+01  0.00000000000E+00 0. -1.
         11    1    3    3    0    0  0.12750797507E+02 -0.23268963533E+00  0.11402234216E+02  0.17106955513E+02  0.51100000000E-03 0. -1.
        -11    1    3    3    0    0  0.17074713978E+02 -0.25734396007E+02  0.44647205369E+01  0.31204786893E+02  0.51100000000E-03 0.  1.
         12    1    3    3    0    0 -0.28654414665E+02  0.25867471694E+02 -0.15759312039E+02  0.41696012850E+02  0.00000000000E+00 0. -1.
</event>
<event>
 7    1  0.1999542E-015  0.9000785E+02  0.7816164E-02  0.1186339E+00
        -11   -1    0    0    0    0  0.00000000000E+00  0.00000000000E+00  0.45593999997E+02  0.45594000000E+02  0.51100000000E-03 0. -1.
         11   -1    0    0    0    0 -0.00000000000E+00 -0.00000000000E+00 -0.45593999997E+02  0.45594000000E+02  0.51100000000E-03 0.  1.
    9900012    2    1    2    0    0 -0.10624128597E+01  0.49064556984E+00  0.15260517435E+00  0.90007854882E+02  0.90000117767E+02 0.  0.
         12    1    1    2    0    0  0.10624128597E+01 -0.49064556984E+00 -0.15260517435E+00  0.11801451178E+01  0.00000000000E+00 0. -1.
         11    1    3    3    0    0 -0.61488895040E+01  0.13493155564E+02  0.38424941245E+02  0.41186772138E+02  0.51100000000E-03 0. -1.
        -11    1    3    3    0    0 -0.63397298483E+01  0.50510543864E+01 -0.58676017007E+01  0.10006701502E+02  0.51100000000E-03 0.  1.
        -12    1    3    3    0    0  0.11426206493E+02 -0.18053564380E+02 -0.32404734370E+02  0.38814381243E+02  0.00000000000E+00 0.  1.
</event>
<event>
 7    1  0.1999542E-015  0.9000791E+02  0.7816164E-02  0.1186339E+00
        -11   -1    0    0    0    0  0.00000000000E+00  0.00000000000E+00  0.45593999997E+02  0.45594000000E+02  0.51100000000E-03 0.  1.
         11   -1    0    0    0    0 -0.00000000000E+00 -0.00000000000E+00 -0.45593999997E+02  0.45594000000E+02  0.51100000000E-03 0. -1.
    9900012    2    1    2    0    0  0.33624168289E+00 -0.24899110810E+00  0.11034332706E+01  0.90007906773E+02  0.90000170342E+02 0.  0.
         12    1    1    2    0    0 -0.33624168289E+00  0.24899110810E+00 -0.11034332706E+01  0.11800932268E+01  0.00000000000E+00 0. -1.
         11    1    3    3    0    0  0.28135528387E+02 -0.20665270447E+02 -0.91973145972E+01  0.36100581108E+02  0.51100000000E-03 0. -1.
        -11    1    3    3    0    0  0.42269052594E+01 -0.63274920302E+01 -0.53957413488E+01  0.93283389962E+01  0.51100000000E-03 0.  1.
        -12    1    3    3    0    0 -0.32026191963E+02  0.26743771369E+02  0.15696489217E+02  0.44578986669E+02  0.00000000000E+00 0.  1.
</event>
<event>
 7    1  0.1999542E-015  0.9000762E+02  0.7816164E-02  0.1186339E+00
        -11   -1    0    0    0    0  0.00000000000E+00  0.00000000000E+00  0.45593999997E+02  0.45594000000E+02  0.51100000000E-03 0. -1.
         11   -1    0    0    0    0 -0.00000000000E+00 -0.00000000000E+00 -0.45593999997E+02  0.45594000000E+02  0.51100000000E-03 0.  1.
    9900012    2    1    2    0    0  0.27400185052E+00  0.10970521144E+01 -0.33867393771E+00  0.90007618540E+02  0.89999878304E+02 0.  0.
         12    1    1    2    0    0 -0.27400185052E+00 -0.10970521144E+01  0.33867393771E+00  0.11803814603E+01  0.00000000000E+00 0. -1.
         11    1    3    3    0    0 -0.60754458165E+01 -0.66253717644E+01  0.67065087139E+01  0.11215340043E+02  0.51100000000E-03 0. -1.
        -11    1    3    3    0    0 -0.47167347398E+01 -0.34503506909E+02 -0.30093949635E+01  0.34954199089E+02  0.51100000000E-03 0.  1.
         12    1    3    3    0    0  0.11066182407E+02  0.42225930788E+02 -0.40357876881E+01  0.43838079408E+02  0.00000000000E+00 0. -1.
</event>
<event>
 7    1  0.1999542E-015  0.9000774E+02  0.7816164E-02  0.1186339E+00
        -11   -1    0    0    0    0  0.00000000000E+00  0.00000000000E+00  0.45593999997E+02  0.45594000000E+02  0.51100000000E-03 0.  1.
         11   -1    0    0    0    0 -0.00000000000E+00 -0.00000000000E+00 -0.45593999997E+02  0.45594000000E+02  0.51100000000E-03 0. -1.
    9900012    2    1    2    0    0  0.68380958452E+00 -0.88321165418E+00  0.38125593320E+00  0.90007739664E+02  0.90000001028E+02 0.  0.
         12    1    1    2    0    0 -0.68380958452E+00  0.88321165418E+00 -0.38125593320E+00  0.11802603359E+01  0.00000000000E+00 0. -1.
         11    1    3    3    0    0  0.85932145108E+01  0.23385197097E+02 -0.29011714780E+02  0.38241213025E+02  0.51100000000E-03 0. -1.
        -11    1    3    3    0    0 -0.10763317143E+02 -0.14350881074E+00 -0.30948629657E+01  0.11200346769E+02  0.51100000000E-03 0.  1.
        -12    1    3    3    0    0  0.28539122172E+01 -0.24124899941E+02  0.32487833679E+02  0.40566179870E+02  0.00000000000E+00 0.  1.
</event>
<event>
 7    1  0.1999542E-015  0.9000773E+02  0.7816164E-02  0.1186339E+00
        -11   -1    0    0    0    0  0.00000000000E+00  0.00000000000E+00  0.45593999997E+02  0.45594000000E+02  0.51100000000E-03 0.  1.
         11   -1    0    0    0    0 -0.00000000000E+00 -0.00000000000E+00 -0.45593999997E+02  0.45594000000E+02  0.51100000000E-03 0. -1.
    9900012    2    1    2    0    0 -0.20309989085E-01  0.35175939757E+00  0.11264499958E+01  0.90007730216E+02  0.89999991455E+02 0.  0.
         12    1    1    2    0    0  0.20309989085E-01 -0.35175939757E+00 -0.11264499958E+01  0.11802697838E+01  0.00000000000E+00 0. -1.
         11    1    3    3    0    0  0.15972744236E+02 -0.21940687586E+01  0.12570022936E+01  0.16171658887E+02  0.51100000000E-03 0. -1.
        -11    1    3    3    0    0  0.10648676415E+02  0.41438328567E+01  0.30877269009E+02  0.32923720960E+02  0.51100000000E-03 0.  1.
         12    1    3    3    0    0 -0.26641730640E+02 -0.15980047005E+01 -0.31007821307E+02  0.40912350369E+02  0.00000000000E+00 0. -1.
</event>
<event>
 7    1  0.1999542E-015  0.9000773E+02  0.7816164E-02  0.1186339E+00
        -11   -1    0    0    0    0  0.00000000000E+00  0.00000000000E+00  0.45593999997E+02  0.45594000000E+02  0.51100000000E-03 0. -1.
         11   -1    0    0    0    0 -0.00000000000E+00 -0.00000000000E+00 -0.45593999997E+02  0.45594000000E+02  0.51100000000E-03 0.  1.
    9900012    2    1    2    0    0 -0.35213797399E+00 -0.26508241226E+00 -0.10948773706E+01  0.90007734651E+02  0.89999995948E+02 0.  0.
         12    1    1    2    0    0  0.35213797399E+00  0.26508241226E+00  0.10948773706E+01  0.11802653493E+01  0.00000000000E+00 0. -1.
         11    1    3    3    0    0  0.37418835855E+00  0.11404925158E+02  0.23031494640E+01  0.11641169723E+02  0.51100000000E-03 0. -1.
        -11    1    3    3    0    0  0.28708651347E+02  0.17282273467E+02 -0.13059005225E+02  0.35963888223E+02  0.51100000000E-03 0.  1.
         12    1    3    3    0    0 -0.29434977680E+02 -0.28952281038E+02  0.96609783905E+01  0.42402676705E+02  0.00000000000E+00 0. -1.
</event>
<event>
 7    1  0.1999542E-015  0.9000784E+02  0.7816164E-02  0.1186339E+00
        -11   -1    0    0    0    0  0.00000000000E+00  0.00000000000E+00  0.45593999997E+02  0.45594000000E+02  0.51100000000E-03 0.  1.
         11   -1    0    0    0    0 -0.00000000000E+00 -0.00000000000E+00 -0.45593999997E+02  0.45594000000E+02  0.51100000000E-03 0. -1.
    9900012    2    1    2    0    0 -0.51416927629E+00  0.10424753030E+01  0.20410717893E+00  0.90007837069E+02  0.90000099719E+02 0.  0.
         12    1    1    2    0    0  0.51416927629E+00 -0.10424753030E+01 -0.20410717893E+00  0.11801629305E+01  0.00000000000E+00 0. -1.
         11    1    3    3    0    0  0.33265485846E+02  0.20253477131E+02 -0.22176939448E+01  0.39009153428E+02  0.51100000000E-03 0. -1.
        -11    1    3    3    0    0 -0.32817514028E+01  0.88009533946E+01  0.19118382824E+01  0.95854994029E+01  0.51100000000E-03 0.  1.
        -12    1    3    3    0    0 -0.30497903720E+02 -0.28011955222E+02  0.50996284134E+00  0.41413184239E+02  0.00000000000E+00 0.  1.
</event>
<event>
 7    1  0.2942962E-015  0.9000789E+02  0.7816164E-02  0.1186339E+00
        -11   -1    0    0    0    0  0.00000000000E+00  0.00000000000E+00  0.45593999997E+02  0.45594000000E+02  0.51100000000E-03 0. -1.
         11   -1    0    0    0    0 -0.00000000000E+00 -0.00000000000E+00 -0.45593999997E+02  0.45594000000E+02  0.51100000000E-03 0.  1.
    9900012    2    1    2    0    0 -0.44838763908E+00  0.66429012478E+00 -0.86620741532E+00  0.90007894864E+02  0.90000158276E+02 0.  0.
         12    1    1    2    0    0  0.44838763908E+00 -0.66429012478E+00  0.86620741532E+00  0.11801051356E+01  0.00000000000E+00 0. -1.
         11    1    3    3    0    0  0.30807804650E+02  0.79237916906E+01  0.26308750872E+02  0.41280233463E+02  0.51100000000E-03 0. -1.
        -11    1    3    3    0    0 -0.15083236172E+01  0.71631822129E+01 -0.60303450330E+01  0.94842649176E+01  0.51100000000E-03 0.  1.
        -12    1    3    3    0    0 -0.29747868671E+02 -0.14422683779E+02 -0.21144613254E+02  0.39243396483E+02  0.00000000000E+00 0.  1.
</event>
<event>
 7    1  0.1999542E-015  0.9000789E+02  0.7816164E-02  0.1186339E+00
        -11   -1    0    0    0    0  0.00000000000E+00  0.00000000000E+00  0.45593999997E+02  0.45594000000E+02  0.51100000000E-03 0. -1.
         11   -1    0    0    0    0 -0.00000000000E+00 -0.00000000000E+00 -0.45593999997E+02  0.45594000000E+02  0.51100000000E-03 0.  1.
    9900012    2    1    2    0    0  0.21841047090E-01  0.65498193106E+00 -0.98141654010E+00  0.90007891197E+02  0.90000154561E+02 0.  0.
         12    1    1    2    0    0 -0.21841047090E-01 -0.65498193106E+00  0.98141654010E+00  0.11801088028E+01  0.00000000000E+00 0. -1.
         11    1    3    3    0    0  0.39531958853E+02 -0.23300331249E+01  0.58611204915E+01  0.40031956720E+02  0.51100000000E-03 0. -1.
        -11    1    3    3    0    0 -0.94699118646E+01  0.12571537146E+02  0.46538373142E+01  0.16412829706E+02  0.51100000000E-03 0.  1.
        -12    1    3    3    0    0 -0.30040205942E+02 -0.95865220904E+01 -0.11496374346E+02  0.33563104772E+02  0.00000000000E+00 0.  1.
</event>
<event>
 7    1  0.1999542E-015  0.9000772E+02  0.7816164E-02  0.1186339E+00
        -11   -1    0    0    0    0  0.00000000000E+00  0.00000000000E+00  0.45593999997E+02  0.45594000000E+02  0.51100000000E-03 0.  1.
         11   -1    0    0    0    0 -0.00000000000E+00 -0.00000000000E+00 -0.45593999997E+02  0.45594000000E+02  0.51100000000E-03 0. -1.
    9900012    2    1    2    0    0 -0.10879752744E+01 -0.37663888860E+00  0.25982568502E+00  0.90007721882E+02  0.89999983010E+02 0.  0.
         12    1    1    2    0    0  0.10879752744E+01  0.37663888860E+00 -0.25982568502E+00  0.11802781184E+01  0.00000000000E+00 0. -1.
         11    1    3    3    0    0  0.71103906928E+01  0.44228313144E+01 -0.53806305051E+01  0.99534053235E+01  0.51100000000E-03 0. -1.
        -11    1    3    3    0    0  0.13136030676E+02 -0.36463967281E+02 -0.78783860732E+01  0.39550539556E+02  0.51100000000E-03 0.  1.
         12    1    3    3    0    0 -0.21334396644E+02  0.31664497078E+02  0.13518842263E+02  0.40503777002E+02  0.00000000000E+00 0. -1.
</event>
<event>
 7    1  0.1999542E-015  0.9000750E+02  0.7816164E-02  0.1186340E+00
        -11   -1    0    0    0    0  0.00000000000E+00  0.00000000000E+00  0.45593999997E+02  0.45594000000E+02  0.51100000000E-03 0. -1.
         11   -1    0    0    0    0 -0.00000000000E+00 -0.00000000000E+00 -0.45593999997E+02  0.45594000000E+02  0.51100000000E-03 0.  1.
    9900012    2    1    2    0    0  0.59808637310E+00  0.75056351586E+00 -0.68740599083E+00  0.90007500149E+02  0.89999758351E+02 0.  0.
         12    1    1    2    0    0 -0.59808637310E+00 -0.75056351586E+00  0.68740599083E+00  0.11804998506E+01  0.00000000000E+00 0. -1.
         11    1    3    3    0    0  0.92113046958E+01  0.60049416106E+01 -0.67945547144E+01  0.12925688839E+02  0.51100000000E-03 0. -1.
        -11    1    3    3    0    0  0.60785558075E+01  0.34163302033E+02  0.44330247284E+01  0.34981877523E+02  0.51100000000E-03 0.  1.
         12    1    3    3    0    0 -0.14691774130E+02 -0.39417680128E+02  0.16741239951E+01  0.42099933787E+02  0.00000000000E+00 0. -1.
</event>
<event>
 7    1  0.1999542E-015  0.9000761E+02  0.7816164E-02  0.1186339E+00
        -11   -1    0    0    0    0  0.00000000000E+00  0.00000000000E+00  0.45593999997E+02  0.45594000000E+02  0.51100000000E-03 0.  1.
         11   -1    0    0    0    0 -0.00000000000E+00 -0.00000000000E+00 -0.45593999997E+02  0.45594000000E+02  0.51100000000E-03 0. -1.
    9900012    2    1    2    0    0  0.10058419214E+01  0.61444194522E+00  0.63660908072E-01  0.90007614645E+02  0.89999874358E+02 0.  0.
         12    1    1    2    0    0 -0.10058419214E+01 -0.61444194522E+00 -0.63660908072E-01  0.11803853549E+01  0.00000000000E+00 0. -1.
         11    1    3    3    0    0  0.52437679509E+01 -0.75278432789E+01 -0.51251558982E+01  0.10508698778E+02  0.51100000000E-03 0. -1.
        -11    1    3    3    0    0 -0.97453214475E+01 -0.18969474377E+01  0.40852738173E+02  0.42041835309E+02  0.51100000000E-03 0.  1.
         12    1    3    3    0    0  0.55073954180E+01  0.10039232662E+02 -0.35663921366E+02  0.37457080558E+02  0.00000000000E+00 0. -1.
</event>
<event>
 7    1  0.1999542E-015  0.9000777E+02  0.7816164E-02  0.1186339E+00
        -11   -1    0    0    0    0  0.00000000000E+00  0.00000000000E+00  0.45593999997E+02  0.45594000000E+02  0.51100000000E-03 0.  1.
         11   -1    0    0    0    0 -0.00000000000E+00 -0.00000000000E+00 -0.45593999997E+02  0.45594000000E+02  0.51100000000E-03 0. -1.
    9900012    2    1    2    0    0  0.39865183248E+00 -0.92234281326E+00 -0.61912289476E+00  0.90007765825E+02  0.90000027534E+02 0.  0.
         12    1    1    2    0    0 -0.39865183248E+00  0.92234281326E+00  0.61912289476E+00  0.11802341749E+01  0.00000000000E+00 0. -1.
         11    1    3    3    0    0 -0.18468657640E+01  0.11486754520E+01 -0.11179195262E+02  0.11388800438E+02  0.51100000000E-03 0. -1.
        -11    1    3    3    0    0 -0.22817273163E+02 -0.87060242271E+01  0.35206262873E+02  0.42847447511E+02  0.51100000000E-03 0.  1.
         12    1    3    3    0    0  0.25062790760E+02  0.66350059619E+01 -0.24646190505E+02  0.35771517877E+02  0.00000000000E+00 0. -1.
</event>
<event>
 7    1  0.1999542E-015  0.9000776E+02  0.7816164E-02  0.1186339E+00
        -11   -1    0    0    0    0  0.00000000000E+00  0.00000000000E+00  0.45593999997E+02  0.45594000000E+02  0.51100000000E-03 0. -1.
         11   -1    0    0    0    0 -0.00000000000E+00 -0.00000000000E+00 -0.45593999997E+02  0.45594000000E+02  0.51100000000E-03 0.  1.
    9900012    2    1    2    0    0  0.15040670428E+00 -0.38908936306E+00 -0.11040613330E+01  0.90007760983E+02  0.90000022628E+02 0.  0.
         12    1    1    2    0    0 -0.15040670428E+00  0.38908936306E+00  0.11040613330E+01  0.11802390165E+01  0.00000000000E+00 0. -1.
         11    1    3    3    0    0  0.20674351065E+02 -0.14059489476E+02  0.30532889317E+02  0.39463342061E+02  0.51100000000E-03 0. -1.
        -11    1    3    3    0    0  0.69371915271E+01  0.21203301658E+01 -0.23282010428E+00  0.72577291047E+01  0.51100000000E-03 0.  1.
        -12    1    3    3    0    0 -0.27461135888E+02  0.11550069948E+02 -0.31404130546E+02  0.43286689818E+02  0.00000000000E+00 0.  1.
</event>
<event>
 7    1  0.1999542E-015  0.9000773E+02  0.7816164E-02  0.1186339E+00
        -11   -1    0    0    0    0  0.00000000000E+00  0.00000000000E+00  0.45593999997E+02  0.45594000000E+02  0.51100000000E-03 0. -1.
         11   -1    0    0    0    0 -0.00000000000E+00 -0.00000000000E+00 -0.45593999997E+02  0.45594000000E+02  0.51100000000E-03 0.  1.
    9900012    2    1    2    0    0 -0.10965089680E+01 -0.30378448954E+00 -0.31370584732E+00  0.90007733805E+02  0.89999995091E+02 0.  0.
         12    1    1    2    0    0  0.10965089680E+01  0.30378448954E+00  0.31370584732E+00  0.11802661952E+01  0.00000000000E+00 0. -1.
         11    1    3    3    0    0  0.30197925061E+02  0.69418316143E+01  0.18297132926E+02  0.35984563048E+02  0.51100000000E-03 0. -1.
        -11    1    3    3    0    0 -0.13668954095E+02  0.13024397007E+02 -0.19505916174E+02  0.27146933335E+02  0.51100000000E-03 0.  1.
        -12    1    3    3    0    0 -0.17625479934E+02 -0.20270013111E+02  0.89507740042E+00  0.26876237422E+02  0.00000000000E+00 0.  1.
</event>
<event>
 7    1  0.1999542E-015  0.9000779E+02  0.7816164E-02  0.1186339E+00
        -11   -1    0    0    0    0  0.00000000000E+00  0.00000000000E+00  0.45593999997E+02  0.45594000000E+02  0.51100000000E-03 0.  1.
         11   -1    0    0    0    0 -0.00000000000E+00 -0.00000000000E+00 -0.45593999997E+02  0.45594000000E+02  0.51100000000E-03 0. -1.
    9900012    2    1    2    0    0  0.85465897153E+00  0.93829221902E-01 -0.80849114154E+00  0.90007786542E+02  0.90000048524E+02 0.  0.
         12    1    1    2    0    0 -0.85465897153E+00 -0.93829221902E-01  0.80849114154E+00  0.11802134580E+01  0.00000000000E+00 0. -1.
         11    1    3    3    0    0  0.81018215594E+01  0.38706607900E+00  0.42916805575E+01  0.91764838036E+01  0.51100000000E-03 0. -1.
        -11    1    3    3    0    0  0.22762423806E+02  0.19569993367E+02 -0.25566910097E+02  0.39430691981E+02  0.51100000000E-03 0.  1.
         12    1    3    3    0    0 -0.30009586394E+02 -0.19863230224E+02  0.20466738398E+02  0.41400610758E+02  0.00000000000E+00 0. -1.
</event>
<event>
 7    1  0.1999542E-015  0.9000774E+02  0.7816164E-02  0.1186339E+00
        -11   -1    0    0    0    0  0.00000000000E+00  0.00000000000E+00  0.45593999997E+02  0.45594000000E+02  0.51100000000E-03 0.  1.
         11   -1    0    0    0    0 -0.00000000000E+00 -0.00000000000E+00 -0.45593999997E+02  0.45594000000E+02  0.51100000000E-03 0. -1.
    9900012    2    1    2    0    0 -0.59415666009E+00 -0.72387280900E-01  0.10172310485E+01  0.90007736868E+02  0.89999998194E+02 0.  0.
         12    1    1    2    0    0  0.59415666009E+00  0.72387280900E-01 -0.10172310485E+01  0.11802631322E+01  0.00000000000E+00 0. -1.
         11    1    3    3    0    0 -0.91609669419E+01 -0.28657515079E+02 -0.21501428955E+02  0.36979561019E+02  0.51100000000E-03 0. -1.
        -11    1    3    3    0    0 -0.64494620662E+01 -0.62541266278E+01  0.14600802494E+00  0.89850419823E+01  0.51100000000E-03 0.  1.
        -12    1    3    3    0    0  0.15016272348E+02  0.34839254426E+02  0.22372651979E+02  0.44043133866E+02  0.00000000000E+00 0.  1.
</event>
<event>
 7    1  0.1999542E-015  0.9000777E+02  0.7816164E-02  0.1186339E+00
        -11   -1    0    0    0    0  0.00000000000E+00  0.00000000000E+00  0.45593999997E+02  0.45594000000E+02  0.51100000000E-03 0. -1.
         11   -1    0    0    0    0 -0.00000000000E+00 -0.00000000000E+00 -0.45593999997E+02  0.45594000000E+02  0.51100000000E-03 0.  1.
    9900012    2    1    2    0    0 -0.29314694110E-01  0.79938750876E+00 -0.86779079281E+00  0.90007770954E+02  0.90000032731E+02 0.  0.
         12    1    1    2    0    0  0.29314694110E-01 -0.79938750876E+00  0.86779079281E+00  0.11802290458E+01  0.00000000000E+00 0. -1.
         11    1    3    3    0    0  0.74241801879E+01 -0.64274121979E+01 -0.13422308537E+01  0.99111887758E+01  0.51100000000E-03 0. -1.
        -11    1    3    3    0    0  0.10997114509E+01 -0.24479717158E+02 -0.27588313670E+02  0.36899606622E+02  0.51100000000E-03 0.  1.
         12    1    3    3    0    0 -0.85532063329E+01  0.31706516865E+02  0.28062753731E+02  0.43196975557E+02  0.00000000000E+00 0. -1.
</event>
<event>
 7    1  0.1999542E-015  0.9000793E+02  0.7816164E-02  0.1186339E+00
        -11   -1    0    0    0    0  0.00000000000E+00  0.00000000000E+00  0.45593999997E+02  0.45594000000E+02  0.51100000000E-03 0.  1.
         11   -1    0    0    0    0 -0.00000000000E+00 -0.00000000000E+00 -0.45593999997E+02  0.45594000000E+02  0.51100000000E-03 0. -1.
    9900012    2    1    2    0    0  0.11626708859E+01 -0.18291293620E+00 -0.85450887098E-01  0.90007931110E+02  0.90000195000E+02 0.  0.
         12    1    1    2    0    0 -0.11626708859E+01  0.18291293620E+00  0.85450887098E-01  0.11800688900E+01  0.00000000000E+00 0. -1.
         11    1    3    3    0    0 -0.16159674175E+02 -0.66867555206E+01 -0.29545468452E+02  0.34333401741E+02  0.51100000000E-03 0. -1.
        -11    1    3    3    0    0  0.19944877850E+02  0.15261814851E+01 -0.51133209499E+01  0.20646390333E+02  0.51100000000E-03 0.  1.
        -12    1    3    3    0    0 -0.26225327898E+01  0.49776610994E+01  0.34573338515E+02  0.35028139036E+02  0.00000000000E+00 0.  1.
</event>
<event>
 7    1  0.1999542E-015  0.9000777E+02  0.7816164E-02  0.1186339E+00
        -11   -1    0    0    0    0  0.00000000000E+00  0.00000000000E+00  0.45593999997E+02  0.45594000000E+02  0.51100000000E-03 0. -1.
         11   -1    0    0    0    0 -0.00000000000E+00 -0.00000000000E+00 -0.45593999997E+02  0.45594000000E+02  0.51100000000E-03 0.  1.
    9900012    2    1    2    0    0  0.81444904911E+00 -0.82642612061E+00  0.21596487885E+00  0.90007767728E+02  0.90000029462E+02 0.  0.
         12    1    1    2    0    0 -0.81444904911E+00  0.82642612061E+00 -0.21596487885E+00  0.11802322718E+01  0.00000000000E+00 0. -1.
         11    1    3    3    0    0  0.12788106471E+02  0.35319435439E+02 -0.44892873571E+01  0.37830568171E+02  0.51100000000E-03 0. -1.
        -11    1    3    3    0    0 -0.66360130351E+01  0.44608903817E+01 -0.58205997142E+01  0.98901766058E+01  0.51100000000E-03 0.  1.
        -12    1    3    3    0    0 -0.53376443867E+01 -0.40606751942E+02  0.10525851950E+02  0.42287022952E+02  0.00000000000E+00 0.  1.
</event>
<event>
 7    1  0.1999542E-015  0.9000778E+02  0.7816164E-02  0.1186339E+00
        -11   -1    0    0    0    0  0.00000000000E+00  0.00000000000E+00  0.45593999997E+02  0.45594000000E+02  0.51100000000E-03 0.  1.
         11   -1    0    0    0    0 -0.00000000000E+00 -0.00000000000E+00 -0.45593999997E+02  0.45594000000E+02  0.51100000000E-03 0. -1.
    9900012    2    1    2    0    0 -0.29867253566E+00  0.10658335346E+01  0.40952609354E+00  0.90007780517E+02  0.90000042420E+02 0.  0.
         12    1    1    2    0    0  0.29867253566E+00 -0.10658335346E+01 -0.40952609354E+00  0.11802194831E+01  0.00000000000E+00 0. -1.
         11    1    3    3    0    0  0.24152732517E+02 -0.29772200508E+02  0.10245092681E+01  0.38350854366E+02  0.51100000000E-03 0. -1.
        -11    1    3    3    0    0  0.73942639755E+00 -0.36891349547E+01  0.72791572755E+01  0.81940587631E+01  0.51100000000E-03 0.  1.
        -12    1    3    3    0    0 -0.25190831451E+02  0.34527168997E+02 -0.78941404500E+01  0.43462867388E+02  0.00000000000E+00 0.  1.
</event>
<event>
 7    1  0.1999542E-015  0.9000772E+02  0.7816164E-02  0.1186339E+00
        -11   -1    0    0    0    0  0.00000000000E+00  0.00000000000E+00  0.45593999997E+02  0.45594000000E+02  0.51100000000E-03 0.  1.
         11   -1    0    0    0    0 -0.00000000000E+00 -0.00000000000E+00 -0.45593999997E+02  0.45594000000E+02  0.51100000000E-03 0. -1.
    9900012    2    1    2    0    0  0.65728131367E+00  0.95071545961E+00 -0.23910378565E+00  0.90007724934E+02  0.89999986103E+02 0.  0.
         12    1    1    2    0    0 -0.65728131367E+00 -0.95071545961E+00  0.23910378565E+00  0.11802750657E+01  0.00000000000E+00 0. -1.
         11    1    3    3    0    0 -0.11579168770E+02 -0.47437402137E+01 -0.37243027433E+02  0.39288971903E+02  0.51100000000E-03 0. -1.
        -11    1    3    3    0    0 -0.93693171531E+01 -0.44755788172E+00  0.27821811550E+01  0.97839125207E+01  0.51100000000E-03 0.  1.
        -12    1    3    3    0    0  0.21605767237E+02  0.61420135551E+01  0.34221742492E+02  0.40934840510E+02  0.00000000000E+00 0.  1.
</event>
<event>
 7    1  0.1999542E-015  0.9000759E+02  0.7816164E-02  0.1186339E+00
        -11   -1    0    0    0    0  0.00000000000E+00  0.00000000000E+00  0.45593999997E+02  0.45594000000E+02  0.51100000000E-03 0.  1.
         11   -1    0    0    0    0 -0.00000000000E+00 -0.00000000000E+00 -0.45593999997E+02  0.45594000000E+02  0.51100000000E-03 0. -1.
    9900012    2    1    2    0    0  0.94658055867E+00 -0.29411221915E-01 -0.70462156215E+00  0.90007588496E+02  0.89999847864E+02 0.  0.
         12    1    1    2    0    0 -0.94658055867E+00  0.29411221915E-01  0.70462156215E+00  0.11804115045E+01  0.00000000000E+00 0. -1.
         11    1    3    3    0    0 -0.35534745028E+02 -0.97696096832E+01 -0.67170625803E+01  0.37460409869E+02  0.51100000000E-03 0. -1.
        -11    1    3    3    0    0 -0.57055833074E+01  0.27447398406E+01  0.74286740928E+01  0.97607620967E+01  0.51100000000E-03 0.  1.
        -12    1    3    3    0    0  0.42186908894E+02  0.69954586207E+01 -0.14162330746E+01  0.42786416530E+02  0.00000000000E+00 0.  1.
</event>
<event>
 7    1  0.1999542E-015  0.9000767E+02  0.7816164E-02  0.1186339E+00
        -11   -1    0    0    0    0  0.00000000000E+00  0.00000000000E+00  0.45593999997E+02  0.45594000000E+02  0.51100000000E-03 0.  1.
         11   -1    0    0    0    0 -0.00000000000E+00 -0.00000000000E+00 -0.45593999997E+02  0.45594000000E+02  0.51100000000E-03 0. -1.
    9900012    2    1    2    0    0 -0.34922818339E+00  0.99412695912E+00  0.53190700533E+00  0.90007672165E+02  0.89999932638E+02 0.  0.
         12    1    1    2    0    0  0.34922818339E+00 -0.99412695912E+00 -0.53190700533E+00  0.11803278346E+01  0.00000000000E+00 0. -1.
         11    1    3    3    0    0  0.40574988091E+01 -0.62838149411E+01 -0.59864598191E+01  0.95805703498E+01  0.51100000000E-03 0. -1.
        -11    1    3    3    0    0  0.36598593363E+02 -0.99166475290E-01 -0.56282543983E+01  0.37028963231E+02  0.51100000000E-03 0.  1.
         12    1    3    3    0    0 -0.41005320356E+02  0.73771083756E+01  0.12146621223E+02  0.43398138584E+02  0.00000000000E+00 0. -1.
</event>
<event>
 7    1  0.2095566E-015  0.9000763E+02  0.7816164E-02  0.1186339E+00
        -11   -1    0    0    0    0  0.00000000000E+00  0.00000000000E+00  0.45593999997E+02  0.45594000000E+02  0.51100000000E-03 0. -1.
         11   -1    0    0    0    0 -0.00000000000E+00 -0.00000000000E+00 -0.45593999997E+02  0.45594000000E+02  0.51100000000E-03 0.  1.
    9900012    2    1    2    0    0 -0.81199087181E-01 -0.95501677228E+00 -0.68893721380E+00  0.90007625139E+02  0.89999884991E+02 0.  0.
         12    1    1    2    0    0  0.81199087181E-01  0.95501677228E+00  0.68893721380E+00  0.11803748606E+01  0.00000000000E+00 0. -1.
         11    1    3    3    0    0 -0.27703530088E+02 -0.16414396037E+02  0.26299683457E+02  0.41576331329E+02  0.51100000000E-03 0. -1.
        -11    1    3    3    0    0  0.26823825343E-01  0.99238497845E+01 -0.74952037673E+00  0.99521502762E+01  0.51100000000E-03 0.  1.
        -12    1    3    3    0    0  0.27595507175E+02  0.55355294803E+01 -0.26239100294E+02  0.38479143534E+02  0.00000000000E+00 0.  1.
</event>
<event>
 7    1  0.1999542E-015  0.9000779E+02  0.7816164E-02  0.1186339E+00
        -11   -1    0    0    0    0  0.00000000000E+00  0.00000000000E+00  0.45593999997E+02  0.45594000000E+02  0.51100000000E-03 0.  1.
         11   -1    0    0    0    0 -0.00000000000E+00 -0.00000000000E+00 -0.45593999997E+02  0.45594000000E+02  0.51100000000E-03 0. -1.
    9900012    2    1    2    0    0 -0.84292687965E+00 -0.76252776281E+00  0.31768640206E+00  0.90007788594E+02  0.90000050603E+02 0.  0.
         12    1    1    2    0    0  0.84292687965E+00  0.76252776281E+00 -0.31768640206E+00  0.11802114063E+01  0.00000000000E+00 0. -1.
         11    1    3    3    0    0 -0.21552750664E+01  0.73907615216E+01 -0.11346341006E+01  0.77817710891E+01  0.51100000000E-03 0. -1.
        -11    1    3    3    0    0 -0.26983620312E+02 -0.95767185536E+01  0.30372201150E+02  0.41740866143E+02  0.51100000000E-03 0.  1.
         12    1    3    3    0    0  0.28295968498E+02  0.14234292692E+01 -0.28919880647E+02  0.40485151362E+02  0.00000000000E+00 0. -1.
</event>
<event>
 7    1  0.1999542E-015  0.9000781E+02  0.7816164E-02  0.1186339E+00
        -11   -1    0    0    0    0  0.00000000000E+00  0.00000000000E+00  0.45593999997E+02  0.45594000000E+02  0.51100000000E-03 0. -1.
         11   -1    0    0    0    0 -0.00000000000E+00 -0.00000000000E+00 -0.45593999997E+02  0.45594000000E+02  0.51100000000E-03 0.  1.
    9900012    2    1    2    0    0  0.34542514346E+00  0.64574405087E+00 -0.92549173365E+00  0.90007814058E+02  0.90000076403E+02 0.  0.
         12    1    1    2    0    0 -0.34542514346E+00 -0.64574405087E+00  0.92549173365E+00  0.11801859421E+01  0.00000000000E+00 0. -1.
         11    1    3    3    0    0 -0.10151333471E+02  0.23787283594E+02  0.16549336212E+02  0.30704477871E+02  0.51100000000E-03 0. -1.
        -11    1    3    3    0    0 -0.10216564107E+02 -0.12731513554E+02  0.13102339635E+02  0.20931816063E+02  0.51100000000E-03 0.  1.
        -12    1    3    3    0    0  0.20713322722E+02 -0.10410025989E+02 -0.30577167582E+02  0.38371520123E+02  0.00000000000E+00 0.  1.
</event>
<event>
 7    1  0.1999542E-015  0.9000778E+02  0.7816164E-02  0.1186339E+00
        -11   -1    0    0    0    0  0.00000000000E+00  0.00000000000E+00  0.45593999997E+02  0.45594000000E+02  0.51100000000E-03 0.  1.
         11   -1    0    0    0    0 -0.00000000000E+00 -0.00000000000E+00 -0.45593999997E+02  0.45594000000E+02  0.51100000000E-03 0. -1.
    9900012    2    1    2    0    0 -0.34075268347E+00 -0.10080088733E+01  0.51061682425E+00  0.90007778063E+02  0.90000039933E+02 0.  0.
         12    1    1    2    0    0  0.34075268347E+00  0.10080088733E+01 -0.51061682425E+00  0.11802219372E+01  0.00000000000E+00 0. -1.
         11    1    3    3    0    0 -0.34693521212E+02 -0.21018822116E+02  0.15057879624E+01  0.40591855031E+02  0.51100000000E-03 0. -1.
        -11    1    3    3    0    0  0.48369648005E+01  0.78208175000E+01  0.11846447635E+02  0.14996657517E+02  0.51100000000E-03 0.  1.
        -12    1    3    3    0    0  0.29515803728E+02  0.12189995742E+02 -0.12841618773E+02  0.34419265515E+02  0.00000000000E+00 0.  1.
</event>
<event>
 7    1  0.1999542E-015  0.9000741E+02  0.7816164E-02  0.1186340E+00
        -11   -1    0    0    0    0  0.00000000000E+00  0.00000000000E+00  0.45593999997E+02  0.45594000000E+02  0.51100000000E-03 0.  1.
         11   -1    0    0    0    0 -0.00000000000E+00 -0.00000000000E+00 -0.45593999997E+02  0.45594000000E+02  0.51100000000E-03 0. -1.
    9900012    2    1    2    0    0 -0.52485037823E-01  0.12061816984E+00  0.11732340456E+01  0.90007414743E+02  0.89999671817E+02 0.  0.
         12    1    1    2    0    0  0.52485037823E-01 -0.12061816984E+00 -0.11732340456E+01  0.11805852565E+01  0.00000000000E+00 0. -1.
         11    1    3    3    0    0  0.32680891183E+01 -0.84554787429E+01  0.53435612276E+01  0.10522793076E+02  0.51100000000E-03 0. -1.
        -11    1    3    3    0    0 -0.11451685919E+02 -0.96980775981E+01  0.33570151513E+02  0.36771577235E+02  0.51100000000E-03 0.  1.
         12    1    3    3    0    0  0.81311117630E+01  0.18274174511E+02 -0.37740478695E+02  0.42713044433E+02  0.00000000000E+00 0. -1.
</event>
<event>
 7    1  0.1999542E-015  0.9000770E+02  0.7816164E-02  0.1186339E+00
        -11   -1    0    0    0    0  0.00000000000E+00  0.00000000000E+00  0.45593999997E+02  0.45594000000E+02  0.51100000000E-03 0.  1.
         11   -1    0    0    0    0 -0.00000000000E+00 -0.00000000000E+00 -0.45593999997E+02  0.45594000000E+02  0.51100000000E-03 0. -1.
    9900012    2    1    2    0    0  0.17712207937E+00  0.11301940336E+01  0.29050623992E+00  0.90007701453E+02  0.89999962312E+02 0.  0.
         12    1    1    2    0    0 -0.17712207937E+00 -0.11301940336E+01 -0.29050623992E+00  0.11802985470E+01  0.00000000000E+00 0. -1.
         11    1    3    3    0    0 -0.16702404773E+02  0.29665652696E+02 -0.70692983334E+01  0.34770623438E+02  0.51100000000E-03 0. -1.
        -11    1    3    3    0    0 -0.10280775326E+02  0.14298447031E+01  0.10383258911E+02  0.14681650556E+02  0.51100000000E-03 0.  1.
        -12    1    3    3    0    0  0.27160302178E+02 -0.29965303366E+02 -0.30234543376E+01  0.40555427459E+02  0.00000000000E+00 0.  1.
</event>
<event>
 7    1  0.1999542E-015  0.9000772E+02  0.7816164E-02  0.1186339E+00
        -11   -1    0    0    0    0  0.00000000000E+00  0.00000000000E+00  0.45593999997E+02  0.45594000000E+02  0.51100000000E-03 0. -1.
         11   -1    0    0    0    0 -0.00000000000E+00 -0.00000000000E+00 -0.45593999997E+02  0.45594000000E+02  0.51100000000E-03 0.  1.
    9900012    2    1    2    0    0  0.47094928188E+00 -0.36180187917E+00 -0.10199833888E+01  0.90007720398E+02  0.89999981507E+02 0.  0.
         12    1    1    2    0    0 -0.47094928188E+00  0.36180187917E+00  0.10199833888E+01  0.11802796022E+01  0.00000000000E+00 0. -1.
         11    1    3    3    0    0  0.22166471601E+02  0.14087958154E+02  0.19198156698E+02  0.32532940984E+02  0.51100000000E-03 0. -1.
        -11    1    3    3    0    0  0.68665608519E+01 -0.11239884277E+01  0.11062857781E+02  0.13069040916E+02  0.51100000000E-03 0.  1.
        -12    1    3    3    0    0 -0.28562083171E+02 -0.13325771606E+02 -0.31280997868E+02  0.44405738498E+02  0.00000000000E+00 0.  1.
</event>
<event>
 7    1  0.1999542E-015  0.9000772E+02  0.7816164E-02  0.1186339E+00
        -11   -1    0    0    0    0  0.00000000000E+00  0.00000000000E+00  0.45593999997E+02  0.45594000000E+02  0.51100000000E-03 0. -1.
         11   -1    0    0    0    0 -0.00000000000E+00 -0.00000000000E+00 -0.45593999997E+02  0.45594000000E+02  0.51100000000E-03 0.  1.
    9900012    2    1    2    0    0  0.41219622403E+00 -0.11054541895E+01  0.33413159251E-01  0.90007724129E+02  0.89999985288E+02 0.  0.
         12    1    1    2    0    0 -0.41219622403E+00  0.11054541895E+01 -0.33413159251E-01  0.11802758709E+01  0.00000000000E+00 0. -1.
         11    1    3    3    0    0  0.77964636841E+01 -0.95277992791E+01  0.45803517159E+01  0.13135578677E+02  0.51100000000E-03 0. -1.
        -11    1    3    3    0    0  0.19674573529E+02  0.22070093642E+02 -0.26297144969E+02  0.39569150998E+02  0.51100000000E-03 0.  1.
         12    1    3    3    0    0 -0.27058840989E+02 -0.13647748552E+02  0.21750206413E+02  0.37302994454E+02  0.00000000000E+00 0. -1.
</event>
<event>
 7    1  0.1999542E-015  0.9000779E+02  0.7816164E-02  0.1186339E+00
        -11   -1    0    0    0    0  0.00000000000E+00  0.00000000000E+00  0.45593999997E+02  0.45594000000E+02  0.51100000000E-03 0.  1.
         11   -1    0    0    0    0 -0.00000000000E+00 -0.00000000000E+00 -0.45593999997E+02  0.45594000000E+02  0.51100000000E-03 0. -1.
    9900012    2    1    2    0    0 -0.64722036527E+00  0.98532387387E+00  0.55933545376E-01  0.90007794128E+02  0.90000056211E+02 0.  0.
         12    1    1    2    0    0  0.64722036527E+00 -0.98532387387E+00 -0.55933545376E-01  0.11802058715E+01  0.00000000000E+00 0. -1.
         11    1    3    3    0    0  0.18375484807E+02 -0.87670177515E+01 -0.30364946849E+02  0.36558843521E+02  0.51100000000E-03 0. -1.
        -11    1    3    3    0    0  0.33504527913E+00 -0.10439515915E+02 -0.19940354387E+01  0.10633528364E+02  0.51100000000E-03 0.  1.
        -12    1    3    3    0    0 -0.19357750452E+02  0.20191857540E+02  0.32414915833E+02  0.42815422244E+02  0.00000000000E+00 0.  1.
</event>
<event>
 7    1  0.1999542E-015  0.9000762E+02  0.7816164E-02  0.1186339E+00
        -11   -1    0    0    0    0  0.00000000000E+00  0.00000000000E+00  0.45593999997E+02  0.45594000000E+02  0.51100000000E-03 0.  1.
         11   -1    0    0    0    0 -0.00000000000E+00 -0.00000000000E+00 -0.45593999997E+02  0.45594000000E+02  0.51100000000E-03 0. -1.
    9900012    2    1    2    0    0 -0.70961215590E+00  0.76659775208E+00  0.54961593995E+00  0.90007619042E+02  0.89999878813E+02 0.  0.
         12    1    1    2    0    0  0.70961215590E+00 -0.76659775208E+00 -0.54961593995E+00  0.11803809583E+01  0.00000000000E+00 0. -1.
         11    1    3    3    0    0  0.80760249546E+01 -0.28362417263E+01 -0.26621824853E+01  0.89640204174E+01  0.51100000000E-03 0. -1.
        -11    1    3    3    0    0  0.27814958632E+02 -0.17166241913E+02  0.16892726278E+02  0.36792879562E+02  0.51100000000E-03 0.  1.
         12    1    3    3    0    0 -0.36600595743E+02  0.20769081392E+02 -0.13680927852E+02  0.44250719062E+02  0.00000000000E+00 0. -1.
</event>
<event>
 7    1  0.1999542E-015  0.9000751E+02  0.7816164E-02  0.1186340E+00
        -11   -1    0    0    0    0  0.00000000000E+00  0.00000000000E+00  0.45593999997E+02  0.45594000000E+02  0.51100000000E-03 0.  1.
         11   -1    0    0    0    0 -0.00000000000E+00 -0.00000000000E+00 -0.45593999997E+02  0.45594000000E+02  0.51100000000E-03 0. -1.
    9900012    2    1    2    0    0 -0.36263633526E-01 -0.10071943244E+01 -0.61466488918E+00  0.90007505026E+02  0.89999763292E+02 0.  0.
         12    1    1    2    0    0  0.36263633526E-01  0.10071943244E+01  0.61466488918E+00  0.11804949743E+01  0.00000000000E+00 0. -1.
         11    1    3    3    0    0  0.19699587138E+02  0.21969967689E+02  0.17732527566E+02  0.34426672041E+02  0.51100000000E-03 0. -1.
        -11    1    3    3    0    0  0.84324332129E+01 -0.29297714283E+01  0.80980162310E+01  0.12052690888E+02  0.51100000000E-03 0.  1.
        -12    1    3    3    0    0 -0.28168283985E+02 -0.20047390585E+02 -0.26445208686E+02  0.43528142096E+02  0.00000000000E+00 0.  1.
</event>
<event>
 7    1  0.1999542E-015  0.9000754E+02  0.7816164E-02  0.1186339E+00
        -11   -1    0    0    0    0  0.00000000000E+00  0.00000000000E+00  0.45593999997E+02  0.45594000000E+02  0.51100000000E-03 0.  1.
         11   -1    0    0    0    0 -0.00000000000E+00 -0.00000000000E+00 -0.45593999997E+02  0.45594000000E+02  0.51100000000E-03 0. -1.
    9900012    2    1    2    0    0  0.78769597066E+00 -0.53447545334E+00  0.69810687983E+00  0.90007541543E+02  0.89999800291E+02 0.  0.
         12    1    1    2    0    0 -0.78769597066E+00  0.53447545334E+00 -0.69810687983E+00  0.11804584567E+01  0.00000000000E+00 0. -1.
         11    1    3    3    0    0  0.30229086949E+02 -0.27505715221E+02 -0.24950626991E+01  0.40946152514E+02  0.51100000000E-03 0. -1.
        -11    1    3    3    0    0 -0.21204387692E+01 -0.32920366539E-01  0.98490062580E+01  0.10074734183E+02  0.51100000000E-03 0.  1.
        -12    1    3    3    0    0 -0.27320952209E+02  0.27004160134E+02 -0.66558366790E+01  0.38986654846E+02  0.00000000000E+00 0.  1.
</event>
<event>
 7    1  0.1999542E-015  0.9000778E+02  0.7816164E-02  0.1186339E+00
        -11   -1    0    0    0    0  0.00000000000E+00  0.00000000000E+00  0.45593999997E+02  0.45594000000E+02  0.51100000000E-03 0.  1.
         11   -1    0    0    0    0 -0.00000000000E+00 -0.00000000000E+00 -0.45593999997E+02  0.45594000000E+02  0.51100000000E-03 0. -1.
    9900012    2    1    2    0    0  0.51593602350E+00  0.10444068009E+01  0.18956829819E+00  0.90007783204E+02  0.90000045142E+02 0.  0.
         12    1    1    2    0    0 -0.51593602350E+00 -0.10444068009E+01 -0.18956829819E+00  0.11802167961E+01  0.00000000000E+00 0. -1.
         11    1    3    3    0    0  0.39358928906E+02  0.26113712784E+01  0.11352561939E+02  0.41046622363E+02  0.51100000000E-03 0. -1.
        -11    1    3    3    0    0 -0.45748889525E+01  0.10166351412E+02 -0.50050292891E+01  0.12220254842E+02  0.51100000000E-03 0.  1.
        -12    1    3    3    0    0 -0.34268103930E+02 -0.11733315889E+02 -0.61579643518E+01  0.36740905999E+02  0.00000000000E+00 0.  1.
</event>
<event>
 7    1  0.1999542E-015  0.9000775E+02  0.7816164E-02  0.1186339E+00
        -11   -1    0    0    0    0  0.00000000000E+00  0.00000000000E+00  0.45593999997E+02  0.45594000000E+02  0.51100000000E-03 0.  1.
         11   -1    0    0    0    0 -0.00000000000E+00 -0.00000000000E+00 -0.45593999997E+02  0.45594000000E+02  0.51100000000E-03 0. -1.
    9900012    2    1    2    0    0  0.81718763910E+00 -0.73546131441E+00  0.42927763523E+00  0.90007754996E+02  0.90000016561E+02 0.  0.
         12    1    1    2    0    0 -0.81718763910E+00  0.73546131441E+00 -0.42927763523E+00  0.11802450045E+01  0.00000000000E+00 0. -1.
         11    1    3    3    0    0 -0.52902265986E+01  0.30438576533E+01  0.77367465154E+01  0.98543804363E+01  0.51100000000E-03 0. -1.
        -11    1    3    3    0    0  0.12281409954E+02  0.36430787008E+02 -0.88198158882E+01  0.39443940283E+02  0.51100000000E-03 0.  1.
         12    1    3    3    0    0 -0.61739957166E+01 -0.40210105975E+02  0.15123470080E+01  0.40709434277E+02  0.00000000000E+00 0. -1.
</event>
<event>
 7    1  0.1999542E-015  0.9000773E+02  0.7816164E-02  0.1186339E+00
        -11   -1    0    0    0    0  0.00000000000E+00  0.00000000000E+00  0.45593999997E+02  0.45594000000E+02  0.51100000000E-03 0.  1.
         11   -1    0    0    0    0 -0.00000000000E+00 -0.00000000000E+00 -0.45593999997E+02  0.45594000000E+02  0.51100000000E-03 0. -1.
    9900012    2    1    2    0    0 -0.57412725277E+00  0.10781511035E+00  0.10255727051E+01  0.90007726483E+02  0.89999987673E+02 0.  0.
         12    1    1    2    0    0  0.57412725277E+00 -0.10781511035E+00 -0.10255727051E+01  0.11802735165E+01  0.00000000000E+00 0. -1.
         11    1    3    3    0    0  0.74026292840E+01  0.67150045114E+01  0.23244225568E+01  0.10261244875E+02  0.51100000000E-03 0. -1.
        -11    1    3    3    0    0  0.18250255082E+02 -0.29178064134E+02  0.19319362561E+02  0.39467315682E+02  0.51100000000E-03 0.  1.
         12    1    3    3    0    0 -0.26227011618E+02  0.22570874733E+02 -0.20618212412E+02  0.40279165926E+02  0.00000000000E+00 0. -1.
</event>
<event>
 7    1  0.1999542E-015  0.9000774E+02  0.7816164E-02  0.1186339E+00
        -11   -1    0    0    0    0  0.00000000000E+00  0.00000000000E+00  0.45593999997E+02  0.45594000000E+02  0.51100000000E-03 0.  1.
         11   -1    0    0    0    0 -0.00000000000E+00 -0.00000000000E+00 -0.45593999997E+02  0.45594000000E+02  0.51100000000E-03 0. -1.
    9900012    2    1    2    0    0  0.10811826869E+01  0.15614623270E+00  0.44685477823E+00  0.90007738655E+02  0.90000000006E+02 0.  0.
         12    1    1    2    0    0 -0.10811826869E+01 -0.15614623270E+00 -0.44685477823E+00  0.11802613445E+01  0.00000000000E+00 0. -1.
         11    1    3    3    0    0  0.11573509190E+02  0.14500773865E+02 -0.16819980299E+02  0.25042569660E+02  0.51100000000E-03 0. -1.
        -11    1    3    3    0    0  0.69393449855E+01 -0.21400572317E+02 -0.15405961093E+02  0.27266878108E+02  0.51100000000E-03 0.  1.
        -12    1    3    3    0    0 -0.17431671489E+02  0.70559446844E+01  0.32672796170E+02  0.37698290888E+02  0.00000000000E+00 0.  1.
</event>
<event>
 7    1  0.1999542E-015  0.9000770E+02  0.7816164E-02  0.1186339E+00
        -11   -1    0    0    0    0  0.00000000000E+00  0.00000000000E+00  0.45593999997E+02  0.45594000000E+02  0.51100000000E-03 0. -1.
         11   -1    0    0    0    0 -0.00000000000E+00 -0.00000000000E+00 -0.45593999997E+02  0.45594000000E+02  0.51100000000E-03 0.  1.
    9900012    2    1    2    0    0  0.75833102173E+00  0.31083508589E+00  0.84936008451E+00  0.90007704722E+02  0.89999965625E+02 0.  0.
         12    1    1    2    0    0 -0.75833102173E+00 -0.31083508589E+00 -0.84936008451E+00  0.11802952776E+01  0.00000000000E+00 0. -1.
         11    1    3    3    0    0  0.38979680217E+02 -0.52320314061E+01  0.12040761912E+02  0.41131126536E+02  0.51100000000E-03 0. -1.
        -11    1    3    3    0    0 -0.20132987636E+00 -0.73861129377E+01 -0.11045072688E+01  0.74709527248E+01  0.51100000000E-03 0.  1.
        -12    1    3    3    0    0 -0.38020019318E+02  0.12928979430E+02 -0.10086894558E+02  0.41405625462E+02  0.00000000000E+00 0.  1.
</event>
<event>
 7    1  0.1999542E-015  0.9000773E+02  0.7816164E-02  0.1186339E+00
        -11   -1    0    0    0    0  0.00000000000E+00  0.00000000000E+00  0.45593999997E+02  0.45594000000E+02  0.51100000000E-03 0.  1.
         11   -1    0    0    0    0 -0.00000000000E+00 -0.00000000000E+00 -0.45593999997E+02  0.45594000000E+02  0.51100000000E-03 0. -1.
    9900012    2    1    2    0    0 -0.20950844335E+00 -0.10160513593E+01  0.56283880505E+00  0.90007728136E+02  0.89999989347E+02 0.  0.
         12    1    1    2    0    0  0.20950844335E+00  0.10160513593E+01 -0.56283880505E+00  0.11802718640E+01  0.00000000000E+00 0. -1.
         11    1    3    3    0    0 -0.18617744736E+02  0.80524039216E+01 -0.27297119211E+02  0.34008739251E+02  0.51100000000E-03 0. -1.
        -11    1    3    3    0    0 -0.99472529421E+01 -0.17565508198E+01 -0.55880110699E+01  0.11543793997E+02  0.51100000000E-03 0.  1.
        -12    1    3    3    0    0  0.28355489234E+02 -0.73119044610E+01  0.33447969086E+02  0.44455194888E+02  0.00000000000E+00 0.  1.
</event>
<event>
 7    1  0.1999542E-015  0.9000801E+02  0.7816164E-02  0.1186339E+00
        -11   -1    0    0    0    0  0.00000000000E+00  0.00000000000E+00  0.45593999997E+02  0.45594000000E+02  0.51100000000E-03 0. -1.
         11   -1    0    0    0    0 -0.00000000000E+00 -0.00000000000E+00 -0.45593999997E+02  0.45594000000E+02  0.51100000000E-03 0.  1.
    9900012    2    1    2    0    0 -0.11675122323E+01 -0.16986834725E+00  0.21155935932E-01  0.90008005237E+02  0.90000270105E+02 0.  0.
         12    1    1    2    0    0  0.11675122323E+01  0.16986834725E+00 -0.21155935932E-01  0.11799947634E+01  0.00000000000E+00 0. -1.
         11    1    3    3    0    0 -0.63220659614E+01 -0.99501087663E+00  0.85633251217E+01  0.10690608124E+02  0.51100000000E-03 0. -1.
        -11    1    3    3    0    0 -0.26879499135E+02  0.16941992423E+02  0.16283327633E+02  0.35702735751E+02  0.51100000000E-03 0.  1.
         12    1    3    3    0    0  0.32034052864E+02 -0.16116849894E+02 -0.24825496819E+02  0.43614661362E+02  0.00000000000E+00 0. -1.
</event>
<event>
 7    1  0.1999542E-015  0.9000765E+02  0.7816164E-02  0.1186339E+00
        -11   -1    0    0    0    0  0.00000000000E+00  0.00000000000E+00  0.45593999997E+02  0.45594000000E+02  0.51100000000E-03 0.  1.
         11   -1    0    0    0    0 -0.00000000000E+00 -0.00000000000E+00 -0.45593999997E+02  0.45594000000E+02  0.51100000000E-03 0. -1.
    9900012    2    1    2    0    0  0.39951474854E+00 -0.10594339682E+01 -0.33349818153E+00  0.90007646915E+02  0.89999907055E+02 0.  0.
         12    1    1    2    0    0 -0.39951474854E+00  0.10594339682E+01  0.33349818153E+00  0.11803530846E+01  0.00000000000E+00 0. -1.
         11    1    3    3    0    0  0.63300395876E+01  0.83382427191E+01 -0.14256672332E+02  0.17687520999E+02  0.51100000000E-03 0. -1.
        -11    1    3    3    0    0 -0.30920574082E+02 -0.51399703209E+01  0.29103072503E+02  0.42772538221E+02  0.51100000000E-03 0.  1.
         12    1    3    3    0    0  0.24990049243E+02 -0.42577063665E+01 -0.15179898352E+02  0.29547587696E+02  0.00000000000E+00 0. -1.
</event>
<event>
 7    1  0.1999542E-015  0.9000775E+02  0.7816164E-02  0.1186339E+00
        -11   -1    0    0    0    0  0.00000000000E+00  0.00000000000E+00  0.45593999997E+02  0.45594000000E+02  0.51100000000E-03 0.  1.
         11   -1    0    0    0    0 -0.00000000000E+00 -0.00000000000E+00 -0.45593999997E+02  0.45594000000E+02  0.51100000000E-03 0. -1.
    9900012    2    1    2    0    0 -0.33445612486E+00 -0.40068270253E+00  0.10585774644E+01  0.90007748427E+02  0.90000009906E+02 0.  0.
         12    1    1    2    0    0  0.33445612486E+00  0.40068270253E+00 -0.10585774644E+01  0.11802515730E+01  0.00000000000E+00 0. -1.
         11    1    3    3    0    0 -0.62458707309E+01 -0.33583345356E+01 -0.52831525207E+01  0.88431336560E+01  0.51100000000E-03 0. -1.
        -11    1    3    3    0    0 -0.29450352820E+02 -0.12038455563E+02  0.23039620541E+02  0.39281952707E+02  0.51100000000E-03 0.  1.
         12    1    3    3    0    0  0.35361767426E+02  0.14996107396E+02 -0.16697890556E+02  0.41882662064E+02  0.00000000000E+00 0. -1.
</event>
<event>
 7    1  0.1999542E-015  0.9000833E+02  0.7816164E-02  0.1186338E+00
        -11   -1    0    0    0    0  0.00000000000E+00  0.00000000000E+00  0.45593999997E+02  0.45594000000E+02  0.51100000000E-03 0. -1.
         11   -1    0    0    0    0 -0.00000000000E+00 -0.00000000000E+00 -0.45593999997E+02  0.45594000000E+02  0.51100000000E-03 0.  1.
    9900012    2    1    2    0    0  0.59421895087E+00  0.13753878471E+00 -0.10097535163E+01  0.90008332571E+02  0.90000601759E+02 0.  0.
         12    1    1    2    0    0 -0.59421895087E+00 -0.13753878471E+00  0.10097535163E+01  0.11796674288E+01  0.00000000000E+00 0. -1.
         11    1    3    3    0    0 -0.39593992613E+01 -0.11507372157E+02 -0.76448259835E+00  0.12193477370E+02  0.51100000000E-03 0. -1.
        -11    1    3    3    0    0 -0.32386540442E+02 -0.77259892229E+01 -0.10407031415E+02  0.34883881872E+02  0.51100000000E-03 0.  1.
         12    1    3    3    0    0  0.36940158655E+02  0.19370900165E+02  0.10161760497E+02  0.42930973329E+02  0.00000000000E+00 0. -1.
</event>
<event>
 7    1  0.1999542E-015  0.9000774E+02  0.7816164E-02  0.1186339E+00
        -11   -1    0    0    0    0  0.00000000000E+00  0.00000000000E+00  0.45593999997E+02  0.45594000000E+02  0.51100000000E-03 0.  1.
         11   -1    0    0    0    0 -0.00000000000E+00 -0.00000000000E+00 -0.45593999997E+02  0.45594000000E+02  0.51100000000E-03 0. -1.
    9900012    2    1    2    0    0  0.94815949283E+00  0.44477027099E+00  0.54422363529E+00  0.90007743086E+02  0.90000004495E+02 0.  0.
         12    1    1    2    0    0 -0.94815949283E+00 -0.44477027099E+00 -0.54422363529E+00  0.11802569140E+01  0.00000000000E+00 0. -1.
         11    1    3    3    0    0 -0.42617758414E+01 -0.94355317797E+01 -0.46547448769E+01  0.11351592109E+02  0.51100000000E-03 0. -1.
        -11    1    3    3    0    0 -0.32551825912E+02  0.84006762767E+01 -0.13821555641E+02  0.36348701940E+02  0.51100000000E-03 0.  1.
         12    1    3    3    0    0  0.37761761247E+02  0.14796257740E+01  0.19020524154E+02  0.42307449036E+02  0.00000000000E+00 0. -1.
</event>
<event>
 7    1  0.1999542E-015  0.9000775E+02  0.7816164E-02  0.1186339E+00
        -11   -1    0    0    0    0  0.00000000000E+00  0.00000000000E+00  0.45593999997E+02  0.45594000000E+02  0.51100000000E-03 0. -1.
         11   -1    0    0    0    0 -0.00000000000E+00 -0.00000000000E+00 -0.45593999997E+02  0.45594000000E+02  0.51100000000E-03 0.  1.
    9900012    2    1    2    0    0  0.98801477164E+00  0.44782493090E+00 -0.46504995144E+00  0.90007749258E+02  0.90000010748E+02 0.  0.
         12    1    1    2    0    0 -0.98801477164E+00 -0.44782493090E+00  0.46504995144E+00  0.11802507424E+01  0.00000000000E+00 0. -1.
         11    1    3    3    0    0 -0.14704615882E+02 -0.21453026023E+02  0.27925733838E+02  0.38161560037E+02  0.51100000000E-03 0. -1.
        -11    1    3    3    0    0 -0.84976927001E+01 -0.16938943604E+01 -0.18075567418E+01  0.88514022034E+01  0.51100000000E-03 0.  1.
        -12    1    3    3    0    0  0.24190323354E+02  0.23594745314E+02 -0.26583227047E+02  0.42994787018E+02  0.00000000000E+00 0.  1.
</event>
<event>
 7    1  0.1999542E-015  0.9000781E+02  0.7816164E-02  0.1186339E+00
        -11   -1    0    0    0    0  0.00000000000E+00  0.00000000000E+00  0.45593999997E+02  0.45594000000E+02  0.51100000000E-03 0.  1.
         11   -1    0    0    0    0 -0.00000000000E+00 -0.00000000000E+00 -0.45593999997E+02  0.45594000000E+02  0.51100000000E-03 0. -1.
    9900012    2    1    2    0    0  0.47837277811E+00 -0.70052478679E+00 -0.82052797403E+00  0.90007812876E+02  0.90000075206E+02 0.  0.
         12    1    1    2    0    0 -0.47837277811E+00  0.70052478679E+00  0.82052797403E+00  0.11801871241E+01  0.00000000000E+00 0. -1.
         11    1    3    3    0    0  0.75899497459E+01 -0.66287332047E+00 -0.59711206872E+01  0.96799287552E+01  0.51100000000E-03 0. -1.
        -11    1    3    3    0    0  0.28962173412E+02 -0.12841784989E+02  0.21932013141E+02  0.38532221986E+02  0.51100000000E-03 0.  1.
         12    1    3    3    0    0 -0.36073750380E+02  0.12804133523E+02 -0.16781420428E+02  0.41795662135E+02  0.00000000000E+00 0. -1.
</event>
<event>
 7    1  0.1999542E-015  0.9000776E+02  0.7816164E-02  0.1186339E+00
        -11   -1    0    0    0    0  0.00000000000E+00  0.00000000000E+00  0.45593999997E+02  0.45594000000E+02  0.51100000000E-03 0.  1.
         11   -1    0    0    0    0 -0.00000000000E+00 -0.00000000000E+00 -0.45593999997E+02  0.45594000000E+02  0.51100000000E-03 0. -1.
    9900012    2    1    2    0    0 -0.64090142211E+00  0.96089817438E+00  0.24268743511E+00  0.90007755481E+02  0.90000017053E+02 0.  0.
         12    1    1    2    0    0  0.64090142211E+00 -0.96089817438E+00 -0.24268743511E+00  0.11802445194E+01  0.00000000000E+00 0. -1.
         11    1    3    3    0    0 -0.16086669793E+01  0.74789501193E+01 -0.35682773201E+01  0.84412740526E+01  0.51100000000E-03 0. -1.
        -11    1    3    3    0    0  0.45561214868E+00  0.36933498981E+02  0.83719251816E+01  0.37873210333E+02  0.51100000000E-03 0.  1.
         12    1    3    3    0    0  0.51215340852E+00 -0.43451550926E+02 -0.45609604264E+01  0.43693271095E+02  0.00000000000E+00 0. -1.
</event>
<event>
 7    1  0.1999542E-015  0.9000781E+02  0.7816164E-02  0.1186339E+00
        -11   -1    0    0    0    0  0.00000000000E+00  0.00000000000E+00  0.45593999997E+02  0.45594000000E+02  0.51100000000E-03 0.  1.
         11   -1    0    0    0    0 -0.00000000000E+00 -0.00000000000E+00 -0.45593999997E+02  0.45594000000E+02  0.51100000000E-03 0. -1.
    9900012    2    1    2    0    0  0.84887387554E+00 -0.77963858095E+00  0.25383674959E+00  0.90007806682E+02  0.90000068930E+02 0.  0.
         12    1    1    2    0    0 -0.84887387554E+00  0.77963858095E+00 -0.25383674959E+00  0.11801933185E+01  0.00000000000E+00 0. -1.
         11    1    3    3    0    0  0.41153244393E+01  0.40212904813E+01  0.68811677477E+01  0.89697905332E+01  0.51100000000E-03 0. -1.
        -11    1    3    3    0    0 -0.24434364637E+01  0.37927133738E+02 -0.41223547442E+01  0.38228675942E+02  0.51100000000E-03 0.  1.
         12    1    3    3    0    0 -0.82301410004E+00 -0.42728062801E+02 -0.25049762539E+01  0.42809340207E+02  0.00000000000E+00 0. -1.
</event>
<event>
 7    1  0.1999542E-015  0.9000773E+02  0.7816164E-02  0.1186339E+00
        -11   -1    0    0    0    0  0.00000000000E+00  0.00000000000E+00  0.45593999997E+02  0.45594000000E+02  0.51100000000E-03 0.  1.
         11   -1    0    0    0    0 -0.00000000000E+00 -0.00000000000E+00 -0.45593999997E+02  0.45594000000E+02  0.51100000000E-03 0. -1.
    9900012    2    1    2    0    0 -0.84544337640E+00 -0.80969796413E+00  0.15048408939E+00  0.90007732760E+02  0.89999994033E+02 0.  0.
         12    1    1    2    0    0  0.84544337640E+00  0.80969796413E+00 -0.15048408939E+00  0.11802672396E+01  0.00000000000E+00 0. -1.
         11    1    3    3    0    0 -0.32628530929E+02 -0.14907779916E+02 -0.12522108948E+02  0.37995606922E+02  0.51100000000E-03 0. -1.
        -11    1    3    3    0    0 -0.19688633661E+01 -0.91496616636E+01  0.36600444305E+01  0.10049311270E+02  0.51100000000E-03 0.  1.
        -12    1    3    3    0    0  0.33751950919E+02  0.23247743616E+02  0.90125486072E+01  0.41962814568E+02  0.00000000000E+00 0.  1.
</event>
<event>
 7    1  0.1999542E-015  0.9000700E+02  0.7816164E-02  0.1186341E+00
        -11   -1    0    0    0    0  0.00000000000E+00  0.00000000000E+00  0.45593999997E+02  0.45594000000E+02  0.51100000000E-03 0. -1.
         11   -1    0    0    0    0 -0.00000000000E+00 -0.00000000000E+00 -0.45593999997E+02  0.45594000000E+02  0.51100000000E-03 0.  1.
    9900012    2    1    2    0    0  0.11205007304E+01 -0.35871683804E+00 -0.10271437480E+00  0.90007004700E+02  0.89999256359E+02 0.  0.
         12    1    1    2    0    0 -0.11205007304E+01  0.35871683804E+00  0.10271437480E+00  0.11809953004E+01  0.00000000000E+00 0. -1.
         11    1    3    3    0    0  0.29376553625E+02 -0.21730262464E+02  0.59243863668E+01  0.37017354899E+02  0.51100000000E-03 0. -1.
        -11    1    3    3    0    0 -0.36711205982E+00 -0.10373402886E+02 -0.77251297589E+00  0.10408603906E+02  0.51100000000E-03 0.  1.
        -12    1    3    3    0    0 -0.27888940834E+02  0.31744948513E+02 -0.52545877657E+01  0.42581045895E+02  0.00000000000E+00 0.  1.
</event>
<event>
 7    1  0.1999542E-015  0.9000774E+02  0.7816164E-02  0.1186339E+00
        -11   -1    0    0    0    0  0.00000000000E+00  0.00000000000E+00  0.45593999997E+02  0.45594000000E+02  0.51100000000E-03 0.  1.
         11   -1    0    0    0    0 -0.00000000000E+00 -0.00000000000E+00 -0.45593999997E+02  0.45594000000E+02  0.51100000000E-03 0. -1.
    9900012    2    1    2    0    0 -0.10628739391E+01 -0.14902974694E+00  0.49101175589E+00  0.90007744341E+02  0.90000005766E+02 0.  0.
         12    1    1    2    0    0  0.10628739391E+01  0.14902974694E+00 -0.49101175589E+00  0.11802556589E+01  0.00000000000E+00 0. -1.
         11    1    3    3    0    0 -0.50301687453E+01 -0.40620223329E+01  0.63256078535E+01  0.90452163057E+01  0.51100000000E-03 0. -1.
        -11    1    3    3    0    0  0.30614548226E+02  0.73048175126E+01  0.24907952029E+02  0.40137476210E+02  0.51100000000E-03 0.  1.
         12    1    3    3    0    0 -0.26647253420E+02 -0.33918249266E+01 -0.30742548127E+02  0.40825051825E+02  0.00000000000E+00 0. -1.
</event>
<event>
 7    1  0.1999542E-015  0.9000782E+02  0.7816164E-02  0.1186339E+00
        -11   -1    0    0    0    0  0.00000000000E+00  0.00000000000E+00  0.45593999997E+02  0.45594000000E+02  0.51100000000E-03 0. -1.
         11   -1    0    0    0    0 -0.00000000000E+00 -0.00000000000E+00 -0.45593999997E+02  0.45594000000E+02  0.51100000000E-03 0.  1.
    9900012    2    1    2    0    0  0.15642877682E+00  0.11533946344E+01 -0.19503479163E+00  0.90007818779E+02  0.90000081187E+02 0.  0.
         12    1    1    2    0    0 -0.15642877682E+00 -0.11533946344E+01  0.19503479163E+00  0.11801812211E+01  0.00000000000E+00 0. -1.
         11    1    3    3    0    0 -0.39585489821E+01  0.71496086051E+01 -0.13596007812E+02  0.15863115770E+02  0.51100000000E-03 0. -1.
        -11    1    3    3    0    0 -0.34303646123E+01  0.31982865469E+02 -0.25486304525E+01  0.32267113327E+02  0.51100000000E-03 0.  1.
         12    1    3    3    0    0  0.75453423712E+01 -0.37979079440E+02  0.15949603473E+02  0.41877589682E+02  0.00000000000E+00 0. -1.
</event>
<event>
 7    1  0.1999542E-015  0.9000788E+02  0.7816164E-02  0.1186339E+00
        -11   -1    0    0    0    0  0.00000000000E+00  0.00000000000E+00  0.45593999997E+02  0.45594000000E+02  0.51100000000E-03 0. -1.
         11   -1    0    0    0    0 -0.00000000000E+00 -0.00000000000E+00 -0.45593999997E+02  0.45594000000E+02  0.51100000000E-03 0.  1.
    9900012    2    1    2    0    0  0.13865005716E+00  0.10622438988E+01  0.49506334970E+00  0.90007884048E+02  0.90000147318E+02 0.  0.
         12    1    1    2    0    0 -0.13865005716E+00 -0.10622438988E+01 -0.49506334970E+00  0.11801159516E+01  0.00000000000E+00 0. -1.
         11    1    3    3    0    0  0.85858790210E+01 -0.16570354545E+02  0.56125582844E+01  0.19488324173E+02  0.51100000000E-03 0. -1.
        -11    1    3    3    0    0  0.47273259023E+01  0.18698208401E+02 -0.33812742259E+02  0.38926496721E+02  0.51100000000E-03 0.  1.
         12    1    3    3    0    0 -0.13174554866E+02 -0.10656099572E+01  0.28695247324E+02  0.31593063155E+02  0.00000000000E+00 0. -1.
</event>
<event>
 7    1  0.1999542E-015  0.9000777E+02  0.7816164E-02  0.1186339E+00
        -11   -1    0    0    0    0  0.00000000000E+00  0.00000000000E+00  0.45593999997E+02  0.45594000000E+02  0.51100000000E-03 0.  1.
         11   -1    0    0    0    0 -0.00000000000E+00 -0.00000000000E+00 -0.45593999997E+02  0.45594000000E+02  0.51100000000E-03 0. -1.
    9900012    2    1    2    0    0  0.11140766021E+01  0.50628030615E-01 -0.38627157417E+00  0.90007773072E+02  0.90000034876E+02 0.  0.
         12    1    1    2    0    0 -0.11140766021E+01 -0.50628030615E-01  0.38627157417E+00  0.11802269281E+01  0.00000000000E+00 0. -1.
         11    1    3    3    0    0 -0.23113858426E+02 -0.96303899733E+01 -0.30822240360E+02  0.39711526833E+02  0.51100000000E-03 0. -1.
        -11    1    3    3    0    0 -0.65706250418E+01  0.54836063081E+01  0.38094615986E+01  0.93677665169E+01  0.51100000000E-03 0.  1.
        -12    1    3    3    0    0  0.30798560070E+02  0.41974116958E+01  0.26626507187E+02  0.40928479722E+02  0.00000000000E+00 0.  1.
</event>
<event>
 7    1  0.1999542E-015  0.9000763E+02  0.7816164E-02  0.1186339E+00
        -11   -1    0    0    0    0  0.00000000000E+00  0.00000000000E+00  0.45593999997E+02  0.45594000000E+02  0.51100000000E-03 0.  1.
         11   -1    0    0    0    0 -0.00000000000E+00 -0.00000000000E+00 -0.45593999997E+02  0.45594000000E+02  0.51100000000E-03 0. -1.
    9900012    2    1    2    0    0  0.10183532368E+01 -0.28246511793E+00  0.52576940251E+00  0.90007634242E+02  0.89999894214E+02 0.  0.
         12    1    1    2    0    0 -0.10183532368E+01  0.28246511793E+00 -0.52576940251E+00  0.11803657579E+01  0.00000000000E+00 0. -1.
         11    1    3    3    0    0 -0.58041522853E+01  0.79481026564E+01 -0.29457779344E+00  0.98461817943E+01  0.51100000000E-03 0. -1.
        -11    1    3    3    0    0 -0.29315520676E+01  0.26273160215E+02  0.25422623101E+02  0.36676732553E+02  0.51100000000E-03 0.  1.
         12    1    3    3    0    0  0.97540575897E+01 -0.34503727989E+02 -0.24602275905E+02  0.43484719895E+02  0.00000000000E+00 0. -1.
</event>
<event>
 7    1  0.1999542E-015  0.9000773E+02  0.7816164E-02  0.1186339E+00
        -11   -1    0    0    0    0  0.00000000000E+00  0.00000000000E+00  0.45593999997E+02  0.45594000000E+02  0.51100000000E-03 0.  1.
         11   -1    0    0    0    0 -0.00000000000E+00 -0.00000000000E+00 -0.45593999997E+02  0.45594000000E+02  0.51100000000E-03 0. -1.
    9900012    2    1    2    0    0  0.11666098244E+01  0.34672795962E-01  0.17567541049E+00  0.90007727771E+02  0.89999988977E+02 0.  0.
         12    1    1    2    0    0 -0.11666098244E+01 -0.34672795962E-01 -0.17567541049E+00  0.11802722292E+01  0.00000000000E+00 0. -1.
         11    1    3    3    0    0  0.35053343244E+02  0.11892622865E+02  0.97173829304E+00  0.37028578514E+02  0.51100000000E-03 0. -1.
        -11    1    3    3    0    0  0.83623312692E+01 -0.54611870677E+01  0.18873083781E+01  0.10164402669E+02  0.51100000000E-03 0.  1.
        -12    1    3    3    0    0 -0.42249064689E+02 -0.63967630013E+01 -0.26833712607E+01  0.42814746587E+02  0.00000000000E+00 0.  1.
</event>
<event>
 7    1  0.1999542E-015  0.9000768E+02  0.7816164E-02  0.1186339E+00
        -11   -1    0    0    0    0  0.00000000000E+00  0.00000000000E+00  0.45593999997E+02  0.45594000000E+02  0.51100000000E-03 0.  1.
         11   -1    0    0    0    0 -0.00000000000E+00 -0.00000000000E+00 -0.45593999997E+02  0.45594000000E+02  0.51100000000E-03 0. -1.
    9900012    2    1    2    0    0  0.90981310148E+00  0.60651605864E+00  0.44444315520E+00  0.90007681684E+02  0.89999942282E+02 0.  0.
         12    1    1    2    0    0 -0.90981310148E+00 -0.60651605864E+00 -0.44444315520E+00  0.11803183161E+01  0.00000000000E+00 0. -1.
         11    1    3    3    0    0  0.49429408234E+01 -0.34702493095E+01 -0.11266254217E+00  0.60405287321E+01  0.51100000000E-03 0. -1.
        -11    1    3    3    0    0  0.10867911950E+02 -0.16749127658E+02  0.35449923170E+02  0.40685892401E+02  0.51100000000E-03 0.  1.
         12    1    3    3    0    0 -0.14901039672E+02  0.20825893026E+02 -0.34892817473E+02  0.43281260550E+02  0.00000000000E+00 0. -1.
</event>
<event>
 7    1  0.1999542E-015  0.9000769E+02  0.7816164E-02  0.1186339E+00
        -11   -1    0    0    0    0  0.00000000000E+00  0.00000000000E+00  0.45593999997E+02  0.45594000000E+02  0.51100000000E-03 0.  1.
         11   -1    0    0    0    0 -0.00000000000E+00 -0.00000000000E+00 -0.45593999997E+02  0.45594000000E+02  0.51100000000E-03 0. -1.
    9900012    2    1    2    0    0  0.41562827988E+00 -0.56451087008E+00  0.94958619432E+00  0.90007689308E+02  0.89999950007E+02 0.  0.
         12    1    1    2    0    0 -0.41562827988E+00  0.56451087008E+00 -0.94958619432E+00  0.11803106921E+01  0.00000000000E+00 0. -1.
         11    1    3    3    0    0 -0.26861483346E+02  0.22551758890E+02 -0.14548503769E+02  0.37970779275E+02  0.51100000000E-03 0. -1.
        -11    1    3    3    0    0 -0.13176144397E+01 -0.28335950065E+01 -0.88288323909E+01  0.93655565836E+01  0.51100000000E-03 0.  1.
        -12    1    3    3    0    0  0.28594726066E+02 -0.20282674753E+02  0.24326922354E+02  0.42671353449E+02  0.00000000000E+00 0.  1.
</event>
<event>
 7    1  0.1999542E-015  0.9000775E+02  0.7816164E-02  0.1186339E+00
        -11   -1    0    0    0    0  0.00000000000E+00  0.00000000000E+00  0.45593999997E+02  0.45594000000E+02  0.51100000000E-03 0.  1.
         11   -1    0    0    0    0 -0.00000000000E+00 -0.00000000000E+00 -0.45593999997E+02  0.45594000000E+02  0.51100000000E-03 0. -1.
    9900012    2    1    2    0    0  0.39598793783E+00 -0.10734320063E+01  0.28970158630E+00  0.90007750142E+02  0.90000011643E+02 0.  0.
         12    1    1    2    0    0 -0.39598793783E+00  0.10734320063E+01 -0.28970158630E+00  0.11802498584E+01  0.00000000000E+00 0. -1.
         11    1    3    3    0    0 -0.21936837143E+02 -0.30506156691E+02  0.25584790256E+01  0.37661601600E+02  0.51100000000E-03 0. -1.
        -11    1    3    3    0    0 -0.87463134107E+01 -0.73108270017E+00  0.13713618388E+01  0.88833053391E+01  0.51100000000E-03 0.  1.
        -12    1    3    3    0    0  0.31079138492E+02  0.30163807385E+02 -0.36401392781E+01  0.43462843203E+02  0.00000000000E+00 0.  1.
</event>
<event>
 7    1  0.1999542E-015  0.9000768E+02  0.7816164E-02  0.1186339E+00
        -11   -1    0    0    0    0  0.00000000000E+00  0.00000000000E+00  0.45593999997E+02  0.45594000000E+02  0.51100000000E-03 0.  1.
         11   -1    0    0    0    0 -0.00000000000E+00 -0.00000000000E+00 -0.45593999997E+02  0.45594000000E+02  0.51100000000E-03 0. -1.
    9900012    2    1    2    0    0  0.10302634876E+01 -0.54571848109E+00  0.18412253741E+00  0.90007681135E+02  0.89999941726E+02 0.  0.
         12    1    1    2    0    0 -0.10302634876E+01  0.54571848109E+00 -0.18412253741E+00  0.11803188651E+01  0.00000000000E+00 0. -1.
         11    1    3    3    0    0  0.27653589618E+01 -0.81584002666E+01  0.57947967211E+01  0.10382021691E+02  0.51100000000E-03 0. -1.
        -11    1    3    3    0    0 -0.12769118722E+02 -0.34030169243E+02 -0.23813307983E+01  0.36424902859E+02  0.51100000000E-03 0.  1.
         12    1    3    3    0    0  0.11034023248E+02  0.41642851028E+02 -0.32293433854E+01  0.43200756585E+02  0.00000000000E+00 0. -1.
</event>
<event>
 7    1  0.1999542E-015  0.9000777E+02  0.7816164E-02  0.1186339E+00
        -11   -1    0    0    0    0  0.00000000000E+00  0.00000000000E+00  0.45593999997E+02  0.45594000000E+02  0.51100000000E-03 0.  1.
         11   -1    0    0    0    0 -0.00000000000E+00 -0.00000000000E+00 -0.45593999997E+02  0.45594000000E+02  0.51100000000E-03 0. -1.
    9900012    2    1    2    0    0 -0.31801947757E+00  0.33062588027E+00  0.10874302329E+01  0.90007765120E+02  0.90000026820E+02 0.  0.
         12    1    1    2    0    0  0.31801947757E+00 -0.33062588027E+00 -0.10874302329E+01  0.11802348801E+01  0.00000000000E+00 0. -1.
         11    1    3    3    0    0  0.36312488259E+02 -0.17885034150E+02 -0.16504450376E+02  0.43713477700E+02  0.51100000000E-03 0. -1.
        -11    1    3    3    0    0 -0.10173878778E+02 -0.50743370376E+00  0.22356714420E+01  0.10428975281E+02  0.51100000000E-03 0.  1.
        -12    1    3    3    0    0 -0.26456628959E+02  0.18723093734E+02  0.15356209167E+02  0.35865312139E+02  0.00000000000E+00 0.  1.
</event>
<event>
 7    1  0.1999542E-015  0.9000773E+02  0.7816164E-02  0.1186339E+00
        -11   -1    0    0    0    0  0.00000000000E+00  0.00000000000E+00  0.45593999997E+02  0.45594000000E+02  0.51100000000E-03 0. -1.
         11   -1    0    0    0    0 -0.00000000000E+00 -0.00000000000E+00 -0.45593999997E+02  0.45594000000E+02  0.51100000000E-03 0.  1.
    9900012    2    1    2    0    0 -0.14178640477E+00 -0.72334459604E+00 -0.92179817550E+00  0.90007727716E+02  0.89999988921E+02 0.  0.
         12    1    1    2    0    0  0.14178640477E+00  0.72334459604E+00  0.92179817550E+00  0.11802722845E+01  0.00000000000E+00 0. -1.
         11    1    3    3    0    0 -0.19477413689E+02  0.28104794249E+02 -0.18543266488E+02  0.38898609693E+02  0.51100000000E-03 0. -1.
        -11    1    3    3    0    0 -0.16784503125E+01 -0.42841197008E+01 -0.84299998128E+01  0.96039457603E+01  0.51100000000E-03 0.  1.
        -12    1    3    3    0    0  0.21014077597E+02 -0.24544019144E+02  0.26051468126E+02  0.41505172262E+02  0.00000000000E+00 0.  1.
</event>
<event>
 7    1  0.1999542E-015  0.9000772E+02  0.7816164E-02  0.1186339E+00
        -11   -1    0    0    0    0  0.00000000000E+00  0.00000000000E+00  0.45593999997E+02  0.45594000000E+02  0.51100000000E-03 0. -1.
         11   -1    0    0    0    0 -0.00000000000E+00 -0.00000000000E+00 -0.45593999997E+02  0.45594000000E+02  0.51100000000E-03 0.  1.
    9900012    2    1    2    0    0 -0.58734647363E+00  0.97307712686E+00 -0.31811398962E+00  0.90007723979E+02  0.89999985136E+02 0.  0.
         12    1    1    2    0    0  0.58734647363E+00 -0.97307712686E+00  0.31811398962E+00  0.11802760208E+01  0.00000000000E+00 0. -1.
         11    1    3    3    0    0  0.48431744152E+01  0.45562617910E+01 -0.75710161088E+01  0.10076514532E+02  0.51100000000E-03 0. -1.
        -11    1    3    3    0    0 -0.50027690125E+01 -0.28766000387E+02 -0.25395513769E+02  0.38696803433E+02  0.51100000000E-03 0.  1.
         12    1    3    3    0    0 -0.42775187640E+00  0.25182815723E+02  0.32648415888E+02  0.41234406015E+02  0.00000000000E+00 0. -1.
</event>
<event>
 7    1  0.1999542E-015  0.9000770E+02  0.7816164E-02  0.1186339E+00
        -11   -1    0    0    0    0  0.00000000000E+00  0.00000000000E+00  0.45593999997E+02  0.45594000000E+02  0.51100000000E-03 0.  1.
         11   -1    0    0    0    0 -0.00000000000E+00 -0.00000000000E+00 -0.45593999997E+02  0.45594000000E+02  0.51100000000E-03 0. -1.
    9900012    2    1    2    0    0  0.68104469674E+00  0.79553188043E-01 -0.96070366285E+00  0.90007702531E+02  0.89999963404E+02 0.  0.
         12    1    1    2    0    0 -0.68104469674E+00 -0.79553188043E-01  0.96070366285E+00  0.11802974695E+01  0.00000000000E+00 0. -1.
         11    1    3    3    0    0  0.36431541844E+02 -0.16113232310E+02 -0.71540147491E+01  0.40473119770E+02  0.51100000000E-03 0. -1.
        -11    1    3    3    0    0 -0.56160570879E+01 -0.43758489856E+01  0.10616224870E+02  0.12782502975E+02  0.51100000000E-03 0.  1.
        -12    1    3    3    0    0 -0.30134440059E+02  0.20568634484E+02 -0.44229137837E+01  0.36752079785E+02  0.00000000000E+00 0.  1.
</event>
<event>
 7    1  0.1999542E-015  0.9000784E+02  0.7816164E-02  0.1186339E+00
        -11   -1    0    0    0    0  0.00000000000E+00  0.00000000000E+00  0.45593999997E+02  0.45594000000E+02  0.51100000000E-03 0.  1.
         11   -1    0    0    0    0 -0.00000000000E+00 -0.00000000000E+00 -0.45593999997E+02  0.45594000000E+02  0.51100000000E-03 0. -1.
    9900012    2    1    2    0    0 -0.65582352140E+00  0.44266721714E+00  0.87563076857E+00  0.90007835605E+02  0.90000098235E+02 0.  0.
         12    1    1    2    0    0  0.65582352140E+00 -0.44266721714E+00 -0.87563076857E+00  0.11801643950E+01  0.00000000000E+00 0. -1.
         11    1    3    3    0    0 -0.12063024792E+02 -0.24349599845E+02 -0.27336979638E+02  0.38545168773E+02  0.51100000000E-03 0. -1.
        -11    1    3    3    0    0  0.29269588264E+01  0.16097806587E+02 -0.41637615404E+01  0.16883227634E+02  0.51100000000E-03 0.  1.
        -12    1    3    3    0    0  0.84802424442E+01  0.86944604745E+01  0.32376371947E+02  0.34579439199E+02  0.00000000000E+00 0.  1.
</event>
<event>
 7    1  0.1999542E-015  0.9000771E+02  0.7816164E-02  0.1186339E+00
        -11   -1    0    0    0    0  0.00000000000E+00  0.00000000000E+00  0.45593999997E+02  0.45594000000E+02  0.51100000000E-03 0.  1.
         11   -1    0    0    0    0 -0.00000000000E+00 -0.00000000000E+00 -0.45593999997E+02  0.45594000000E+02  0.51100000000E-03 0. -1.
    9900012    2    1    2    0    0  0.11830815305E+00  0.92380469632E+00  0.72503757830E+00  0.90007707059E+02  0.89999967992E+02 0.  0.
         12    1    1    2    0    0 -0.11830815305E+00 -0.92380469632E+00 -0.72503757830E+00  0.11802929407E+01  0.00000000000E+00 0. -1.
         11    1    3    3    0    0  0.19679318400E+02 -0.19953426425E+02 -0.26411327819E+02  0.38509388936E+02  0.51100000000E-03 0. -1.
        -11    1    3    3    0    0  0.76966210393E+01 -0.22505433799E+01  0.51813244176E+01  0.95472008416E+01  0.51100000000E-03 0.  1.
        -12    1    3    3    0    0 -0.27257631287E+02  0.23127774501E+02  0.21955040980E+02  0.41951117282E+02  0.00000000000E+00 0.  1.
</event>
<event>
 7    1  0.1999542E-015  0.9000768E+02  0.7816164E-02  0.1186339E+00
        -11   -1    0    0    0    0  0.00000000000E+00  0.00000000000E+00  0.45593999997E+02  0.45594000000E+02  0.51100000000E-03 0.  1.
         11   -1    0    0    0    0 -0.00000000000E+00 -0.00000000000E+00 -0.45593999997E+02  0.45594000000E+02  0.51100000000E-03 0. -1.
    9900012    2    1    2    0    0 -0.35811178739E+00  0.48757591261E+00  0.10135021385E+01  0.90007677626E+02  0.89999938170E+02 0.  0.
         12    1    1    2    0    0  0.35811178739E+00 -0.48757591261E+00 -0.10135021385E+01  0.11803223744E+01  0.00000000000E+00 0. -1.
         11    1    3    3    0    0  0.24142007978E+01  0.93199684122E+01  0.15308787822E+01  0.97485263914E+01  0.51100000000E-03 0. -1.
        -11    1    3    3    0    0  0.28202717204E+02  0.22575595017E+02  0.64678039680E+00  0.36131275555E+02  0.51100000000E-03 0.  1.
         12    1    3    3    0    0 -0.30975029790E+02 -0.31407987517E+02 -0.11641570405E+01  0.44127875679E+02  0.00000000000E+00 0. -1.
</event>
<event>
 7    1  0.1999542E-015  0.9000774E+02  0.7816164E-02  0.1186339E+00
        -11   -1    0    0    0    0  0.00000000000E+00  0.00000000000E+00  0.45593999997E+02  0.45594000000E+02  0.51100000000E-03 0. -1.
         11   -1    0    0    0    0 -0.00000000000E+00 -0.00000000000E+00 -0.45593999997E+02  0.45594000000E+02  0.51100000000E-03 0.  1.
    9900012    2    1    2    0    0 -0.62231553720E+00 -0.98159349892E+00  0.20545536578E+00  0.90007739718E+02  0.90000001083E+02 0.  0.
         12    1    1    2    0    0  0.62231553720E+00  0.98159349892E+00 -0.20545536578E+00  0.11802602816E+01  0.00000000000E+00 0. -1.
         11    1    3    3    0    0 -0.35024685436E+02  0.42708779959E+01  0.17382824645E+02  0.39333593551E+02  0.51100000000E-03 0. -1.
        -11    1    3    3    0    0 -0.86821585751E+00 -0.77677891528E+01  0.46739872473E+01  0.91070579304E+01  0.51100000000E-03 0.  1.
        -12    1    3    3    0    0  0.35270585756E+02  0.25153176580E+01 -0.21851356526E+02  0.41567088237E+02  0.00000000000E+00 0.  1.
</event>
<event>
 7    1  0.1999542E-015  0.9000793E+02  0.7816164E-02  0.1186339E+00
        -11   -1    0    0    0    0  0.00000000000E+00  0.00000000000E+00  0.45593999997E+02  0.45594000000E+02  0.51100000000E-03 0.  1.
         11   -1    0    0    0    0 -0.00000000000E+00 -0.00000000000E+00 -0.45593999997E+02  0.45594000000E+02  0.51100000000E-03 0. -1.
    9900012    2    1    2    0    0  0.61122215908E+00  0.98003790151E+00  0.24186876390E+00  0.90007929106E+02  0.90000192970E+02 0.  0.
         12    1    1    2    0    0 -0.61122215908E+00 -0.98003790151E+00 -0.24186876390E+00  0.11800708941E+01  0.00000000000E+00 0. -1.
         11    1    3    3    0    0 -0.59617287100E+01 -0.16108675330E+02 -0.11606772229E+01  0.17215655723E+02  0.51100000000E-03 0. -1.
        -11    1    3    3    0    0 -0.13703500624E+02 -0.15788406914E+02  0.20867306447E+02  0.29538182085E+02  0.51100000000E-03 0.  1.
         12    1    3    3    0    0  0.20276451494E+02  0.32877120146E+02 -0.19464760460E+02  0.43254091298E+02  0.00000000000E+00 0. -1.
</event>
<event>
 7    1  0.1999542E-015  0.9000734E+02  0.7816164E-02  0.1186340E+00
        -11   -1    0    0    0    0  0.00000000000E+00  0.00000000000E+00  0.45593999997E+02  0.45594000000E+02  0.51100000000E-03 0.  1.
         11   -1    0    0    0    0 -0.00000000000E+00 -0.00000000000E+00 -0.45593999997E+02  0.45594000000E+02  0.51100000000E-03 0. -1.
    9900012    2    1    2    0    0 -0.96397768302E+00 -0.64616399640E+00 -0.21721881665E+00  0.90007337094E+02  0.89999593143E+02 0.  0.
         12    1    1    2    0    0  0.96397768302E+00  0.64616399640E+00  0.21721881665E+00  0.11806629061E+01  0.00000000000E+00 0. -1.
         11    1    3    3    0    0 -0.60218145306E+01 -0.75258455376E+01 -0.61059258757E+01  0.11409773545E+02  0.51100000000E-03 0. -1.
        -11    1    3    3    0    0  0.16722714075E+02 -0.32383414917E+02  0.89337542582E+01  0.37525280721E+02  0.51100000000E-03 0.  1.
         12    1    3    3    0    0 -0.11664877227E+02  0.39263096459E+02 -0.30450471991E+01  0.41072282828E+02  0.00000000000E+00 0. -1.
</event>
<event>
 7    1  0.1999542E-015  0.9000775E+02  0.7816164E-02  0.1186339E+00
        -11   -1    0    0    0    0  0.00000000000E+00  0.00000000000E+00  0.45593999997E+02  0.45594000000E+02  0.51100000000E-03 0. -1.
         11   -1    0    0    0    0 -0.00000000000E+00 -0.00000000000E+00 -0.45593999997E+02  0.45594000000E+02  0.51100000000E-03 0.  1.
    9900012    2    1    2    0    0  0.69397047262E+00 -0.92150457494E+00 -0.24943110365E+00  0.90007753596E+02  0.90000015144E+02 0.  0.
         12    1    1    2    0    0 -0.69397047262E+00  0.92150457494E+00  0.24943110365E+00  0.11802464039E+01  0.00000000000E+00 0. -1.
         11    1    3    3    0    0  0.16294289901E+02 -0.52843238070E+01  0.34703108379E+02  0.38700564504E+02  0.51100000000E-03 0. -1.
        -11    1    3    3    0    0 -0.78711898506E+01  0.16722747688E+01  0.56858119371E+01  0.98529483005E+01  0.51100000000E-03 0.  1.
        -12    1    3    3    0    0 -0.77291295780E+01  0.26905444632E+01 -0.40638351420E+02  0.41454240792E+02  0.00000000000E+00 0.  1.
</event>
<event>
 7    1  0.1999542E-015  0.9000766E+02  0.7816164E-02  0.1186339E+00
        -11   -1    0    0    0    0  0.00000000000E+00  0.00000000000E+00  0.45593999997E+02  0.45594000000E+02  0.51100000000E-03 0.  1.
         11   -1    0    0    0    0 -0.00000000000E+00 -0.00000000000E+00 -0.45593999997E+02  0.45594000000E+02  0.51100000000E-03 0. -1.
    9900012    2    1    2    0    0 -0.35882622432E+00  0.41834843149E-01  0.11237024885E+01  0.90007655264E+02  0.89999915513E+02 0.  0.
         12    1    1    2    0    0  0.35882622432E+00 -0.41834843149E-01 -0.11237024885E+01  0.11803447361E+01  0.00000000000E+00 0. -1.
         11    1    3    3    0    0  0.92581138866E+00 -0.51331586548E+01  0.73769281122E+01  0.90346838980E+01  0.51100000000E-03 0. -1.
        -11    1    3    3    0    0 -0.19872503481E+02  0.21315917990E+02  0.26913147228E+02  0.39668655742E+02  0.51100000000E-03 0.  1.
         12    1    3    3    0    0  0.18587865868E+02 -0.16140924492E+02 -0.33166372852E+02  0.41304315624E+02  0.00000000000E+00 0. -1.
</event>
<event>
 7    1  0.1999542E-015  0.9000773E+02  0.7816164E-02  0.1186339E+00
        -11   -1    0    0    0    0  0.00000000000E+00  0.00000000000E+00  0.45593999997E+02  0.45594000000E+02  0.51100000000E-03 0. -1.
         11   -1    0    0    0    0 -0.00000000000E+00 -0.00000000000E+00 -0.45593999997E+02  0.45594000000E+02  0.51100000000E-03 0.  1.
    9900012    2    1    2    0    0 -0.41565707000E+00 -0.11043554837E+01 -0.25958948119E-01  0.90007726430E+02  0.89999987618E+02 0.  0.
         12    1    1    2    0    0  0.41565707000E+00  0.11043554837E+01  0.25958948119E-01  0.11802735705E+01  0.00000000000E+00 0. -1.
         11    1    3    3    0    0  0.88472907104E+01  0.31650646254E+01 -0.70063811791E+01  0.11720988204E+02  0.51100000000E-03 0. -1.
        -11    1    3    3    0    0 -0.18801014642E+01  0.30177270617E+02 -0.17918975479E+02  0.35146722833E+02  0.51100000000E-03 0.  1.
         12    1    3    3    0    0 -0.73828463162E+01 -0.34446690726E+02  0.24899397710E+02  0.43140015392E+02  0.00000000000E+00 0. -1.
</event>
<event>
 7    1  0.1999542E-015  0.9000767E+02  0.7816164E-02  0.1186339E+00
        -11   -1    0    0    0    0  0.00000000000E+00  0.00000000000E+00  0.45593999997E+02  0.45594000000E+02  0.51100000000E-03 0.  1.
         11   -1    0    0    0    0 -0.00000000000E+00 -0.00000000000E+00 -0.45593999997E+02  0.45594000000E+02  0.51100000000E-03 0. -1.
    9900012    2    1    2    0    0 -0.10942751530E+01  0.66420229789E-01 -0.43740549657E+00  0.90007672365E+02  0.89999932840E+02 0.  0.
         12    1    1    2    0    0  0.10942751530E+01 -0.66420229789E-01  0.43740549657E+00  0.11803276350E+01  0.00000000000E+00 0. -1.
         11    1    3    3    0    0 -0.19435236714E+02 -0.19068297371E+02 -0.27339827750E+02  0.38584900835E+02  0.51100000000E-03 0. -1.
        -11    1    3    3    0    0  0.23153958736E+01  0.12019257427E+02 -0.63806402186E+01  0.13803484235E+02  0.51100000000E-03 0.  1.
        -12    1    3    3    0    0  0.16025565688E+02  0.71154601729E+01  0.33283062472E+02  0.37619287295E+02  0.00000000000E+00 0.  1.
</event>
<event>
 7    1  0.1999542E-015  0.9000798E+02  0.7816164E-02  0.1186339E+00
        -11   -1    0    0    0    0  0.00000000000E+00  0.00000000000E+00  0.45593999997E+02  0.45594000000E+02  0.51100000000E-03 0. -1.
         11   -1    0    0    0    0 -0.00000000000E+00 -0.00000000000E+00 -0.45593999997E+02  0.45594000000E+02  0.51100000000E-03 0.  1.
    9900012    2    1    2    0    0 -0.94429418762E+00 -0.65473426479E+00  0.26846173320E+00  0.90007982978E+02  0.90000247553E+02 0.  0.
         12    1    1    2    0    0  0.94429418762E+00  0.65473426479E+00 -0.26846173320E+00  0.11800170221E+01  0.00000000000E+00 0. -1.
         11    1    3    3    0    0  0.16433000910E+02 -0.22997002186E+02 -0.21064951437E+02  0.35251068180E+02  0.51100000000E-03 0. -1.
        -11    1    3    3    0    0  0.10776010546E+02 -0.13901648467E+01 -0.21611894192E+01  0.11078163275E+02  0.51100000000E-03 0.  1.
        -12    1    3    3    0    0 -0.28153305644E+02  0.23732432768E+02  0.23494602590E+02  0.43678751523E+02  0.00000000000E+00 0.  1.
</event>
<event>
 7    1  0.1999542E-015  0.9000780E+02  0.7816164E-02  0.1186339E+00
        -11   -1    0    0    0    0  0.00000000000E+00  0.00000000000E+00  0.45593999997E+02  0.45594000000E+02  0.51100000000E-03 0. -1.
         11   -1    0    0    0    0 -0.00000000000E+00 -0.00000000000E+00 -0.45593999997E+02  0.45594000000E+02  0.51100000000E-03 0.  1.
    9900012    2    1    2    0    0  0.45624621226E+00  0.98948792338E+00 -0.45346969382E+00  0.90007795899E+02  0.90000058005E+02 0.  0.
         12    1    1    2    0    0 -0.45624621226E+00 -0.98948792338E+00  0.45346969382E+00  0.11802041010E+01  0.00000000000E+00 0. -1.
         11    1    3    3    0    0 -0.34346098933E+02  0.45006592466E+01  0.18775357561E+02  0.39400818486E+02  0.51100000000E-03 0. -1.
        -11    1    3    3    0    0 -0.47053162675E+01 -0.53519997253E+01 -0.15905121957E+01  0.73016184194E+01  0.51100000000E-03 0.  1.
        -12    1    3    3    0    0  0.39507661412E+02  0.18408284020E+01 -0.17638315059E+02  0.43305358994E+02  0.00000000000E+00 0.  1.
</event>
<event>
 7    1  0.2651469E-015  0.9000786E+02  0.7816164E-02  0.1186339E+00
        -11   -1    0    0    0    0  0.00000000000E+00  0.00000000000E+00  0.45593999997E+02  0.45594000000E+02  0.51100000000E-03 0.  1.
         11   -1    0    0    0    0 -0.00000000000E+00 -0.00000000000E+00 -0.45593999997E+02  0.45594000000E+02  0.51100000000E-03 0. -1.
    9900012    2    1    2    0    0  0.88314783746E+00 -0.78107074260E+00  0.52025792763E-01  0.90007860902E+02  0.90000123866E+02 0.  0.
         12    1    1    2    0    0 -0.88314783746E+00  0.78107074260E+00 -0.52025792763E-01  0.11801390981E+01  0.00000000000E+00 0. -1.
         11    1    3    3    0    0  0.19691236593E+02 -0.16059765117E+02 -0.26161564810E+02  0.36470376030E+02  0.51100000000E-03 0. -1.
        -11    1    3    3    0    0  0.22736450551E+01  0.46318802964E+00 -0.93425949146E+01  0.96264263872E+01  0.51100000000E-03 0.  1.
        -12    1    3    3    0    0 -0.21081733810E+02  0.14815506345E+02  0.35556185518E+02  0.43911058485E+02  0.00000000000E+00 0.  1.
</event>
<event>
 7    1  0.1999542E-015  0.9000773E+02  0.7816164E-02  0.1186339E+00
        -11   -1    0    0    0    0  0.00000000000E+00  0.00000000000E+00  0.45593999997E+02  0.45594000000E+02  0.51100000000E-03 0.  1.
         11   -1    0    0    0    0 -0.00000000000E+00 -0.00000000000E+00 -0.45593999997E+02  0.45594000000E+02  0.51100000000E-03 0. -1.
    9900012    2    1    2    0    0  0.10313931551E+01 -0.55458036630E+00 -0.14735996235E+00  0.90007726226E+02  0.89999987412E+02 0.  0.
         12    1    1    2    0    0 -0.10313931551E+01  0.55458036630E+00  0.14735996235E+00  0.11802737740E+01  0.00000000000E+00 0. -1.
         11    1    3    3    0    0  0.42873393312E+01  0.24233947086E+00  0.24879736826E+01  0.49628641193E+01  0.51100000000E-03 0. -1.
        -11    1    3    3    0    0  0.73562795354E+01 -0.40031681827E+02  0.11020433222E+02  0.42167527165E+02  0.51100000000E-03 0.  1.
         12    1    3    3    0    0 -0.10612225712E+02  0.39234761990E+02 -0.13655766867E+02  0.42877334942E+02  0.00000000000E+00 0. -1.
</event>
<event>
 7    1  0.1999542E-015  0.9000773E+02  0.7816164E-02  0.1186339E+00
        -11   -1    0    0    0    0  0.00000000000E+00  0.00000000000E+00  0.45593999997E+02  0.45594000000E+02  0.51100000000E-03 0.  1.
         11   -1    0    0    0    0 -0.00000000000E+00 -0.00000000000E+00 -0.45593999997E+02  0.45594000000E+02  0.51100000000E-03 0. -1.
    9900012    2    1    2    0    0  0.15956026645E-01  0.89250471695E+00  0.77215299481E+00  0.90007729051E+02  0.89999990275E+02 0.  0.
         12    1    1    2    0    0 -0.15956026645E-01 -0.89250471695E+00 -0.77215299481E+00  0.11802709485E+01  0.00000000000E+00 0. -1.
         11    1    3    3    0    0 -0.15385097156E+02  0.13420816075E+01 -0.35098573958E+02  0.38345955350E+02  0.51100000000E-03 0. -1.
        -11    1    3    3    0    0 -0.58528958792E+01  0.33052306985E+01 -0.28746088856E+01  0.73105619927E+01  0.51100000000E-03 0.  1.
        -12    1    3    3    0    0  0.21253949062E+02 -0.37548075890E+01  0.38745335839E+02  0.44351211709E+02  0.00000000000E+00 0.  1.
</event>
<event>
 7    1  0.1999542E-015  0.9000784E+02  0.7816164E-02  0.1186339E+00
        -11   -1    0    0    0    0  0.00000000000E+00  0.00000000000E+00  0.45593999997E+02  0.45594000000E+02  0.51100000000E-03 0.  1.
         11   -1    0    0    0    0 -0.00000000000E+00 -0.00000000000E+00 -0.45593999997E+02  0.45594000000E+02  0.51100000000E-03 0. -1.
    9900012    2    1    2    0    0  0.11544786394E+01  0.24474621439E+00 -0.71639749116E-02  0.90007841976E+02  0.90000104690E+02 0.  0.
         12    1    1    2    0    0 -0.11544786394E+01 -0.24474621439E+00  0.71639749116E-02  0.11801580237E+01  0.00000000000E+00 0. -1.
         11    1    3    3    0    0  0.31526827066E+01 -0.29238946544E+02 -0.29520650254E+02  0.41669223594E+02  0.51100000000E-03 0. -1.
        -11    1    3    3    0    0 -0.38585436625E+01 -0.33931541912E+01  0.58641426613E+01  0.77967957504E+01  0.51100000000E-03 0.  1.
        -12    1    3    3    0    0  0.18603395953E+01  0.32876846950E+02  0.23649343618E+02  0.40541822632E+02  0.00000000000E+00 0.  1.
</event>
<event>
 7    1  0.1999542E-015  0.9000794E+02  0.7816164E-02  0.1186339E+00
        -11   -1    0    0    0    0  0.00000000000E+00  0.00000000000E+00  0.45593999997E+02  0.45594000000E+02  0.51100000000E-03 0. -1.
         11   -1    0    0    0    0 -0.00000000000E+00 -0.00000000000E+00 -0.45593999997E+02  0.45594000000E+02  0.51100000000E-03 0.  1.
    9900012    2    1    2    0    0 -0.42815712060E+00 -0.42225388310E+00 -0.10153451077E+01  0.90007939599E+02  0.90000203602E+02 0.  0.
         12    1    1    2    0    0  0.42815712060E+00  0.42225388310E+00  0.10153451077E+01  0.11800604008E+01  0.00000000000E+00 0. -1.
         11    1    3    3    0    0 -0.93640463273E+01  0.59695839891E+01 -0.95547481982E+00  0.11146040957E+02  0.51100000000E-03 0. -1.
        -11    1    3    3    0    0 -0.16880029138E+02  0.26205239320E+02 -0.15109962228E+02  0.34640451935E+02  0.51100000000E-03 0.  1.
         12    1    3    3    0    0  0.25815918344E+02 -0.32597077192E+02  0.15050091940E+02  0.44221446707E+02  0.00000000000E+00 0. -1.
</event>
<event>
 7    1  0.1999542E-015  0.9000779E+02  0.7816164E-02  0.1186339E+00
        -11   -1    0    0    0    0  0.00000000000E+00  0.00000000000E+00  0.45593999997E+02  0.45594000000E+02  0.51100000000E-03 0.  1.
         11   -1    0    0    0    0 -0.00000000000E+00 -0.00000000000E+00 -0.45593999997E+02  0.45594000000E+02  0.51100000000E-03 0. -1.
    9900012    2    1    2    0    0 -0.33690696368E-01  0.93709614508E+00  0.71666199965E+00  0.90007792955E+02  0.90000055022E+02 0.  0.
         12    1    1    2    0    0  0.33690696368E-01 -0.93709614508E+00 -0.71666199965E+00  0.11802070453E+01  0.00000000000E+00 0. -1.
         11    1    3    3    0    0 -0.61932170695E+01 -0.10484728253E+01 -0.79703219548E+01  0.10147968529E+02  0.51100000000E-03 0. -1.
        -11    1    3    3    0    0 -0.98177895551E+01 -0.22911880050E+02 -0.24810291108E+02  0.35169500768E+02  0.51100000000E-03 0.  1.
         12    1    3    3    0    0  0.15977315928E+02  0.24897449021E+02  0.33497275062E+02  0.44690323657E+02  0.00000000000E+00 0. -1.
</event>
<event>
 7    1  0.1999542E-015  0.9000777E+02  0.7816164E-02  0.1186339E+00
        -11   -1    0    0    0    0  0.00000000000E+00  0.00000000000E+00  0.45593999997E+02  0.45594000000E+02  0.51100000000E-03 0. -1.
         11   -1    0    0    0    0 -0.00000000000E+00 -0.00000000000E+00 -0.45593999997E+02  0.45594000000E+02  0.51100000000E-03 0.  1.
    9900012    2    1    2    0    0  0.65314830162E+00  0.14621508276E+00 -0.97209311164E+00  0.90007768424E+02  0.90000030168E+02 0.  0.
         12    1    1    2    0    0 -0.65314830162E+00 -0.14621508276E+00  0.97209311164E+00  0.11802315756E+01  0.00000000000E+00 0. -1.
         11    1    3    3    0    0 -0.20535985942E+02  0.29831165546E+02  0.13191400362E+02  0.38543977483E+02  0.51100000000E-03 0. -1.
        -11    1    3    3    0    0 -0.76177748213E+01 -0.38074707894E+01  0.31050331941E+01  0.90646874429E+01  0.51100000000E-03 0.  1.
        -12    1    3    3    0    0  0.28806909065E+02 -0.25877479674E+02 -0.17268526667E+02  0.42399103498E+02  0.00000000000E+00 0.  1.
</event>
<event>
 7    1  0.1999542E-015  0.9000779E+02  0.7816164E-02  0.1186339E+00
        -11   -1    0    0    0    0  0.00000000000E+00  0.00000000000E+00  0.45593999997E+02  0.45594000000E+02  0.51100000000E-03 0.  1.
         11   -1    0    0    0    0 -0.00000000000E+00 -0.00000000000E+00 -0.45593999997E+02  0.45594000000E+02  0.51100000000E-03 0. -1.
    9900012    2    1    2    0    0  0.23175021709E+00  0.10799251647E+01 -0.41587339967E+00  0.90007789337E+02  0.90000051356E+02 0.  0.
         12    1    1    2    0    0 -0.23175021709E+00 -0.10799251647E+01  0.41587339967E+00  0.11802106630E+01  0.00000000000E+00 0. -1.
         11    1    3    3    0    0  0.87988230420E+01  0.10236056082E+01 -0.55461786436E+01  0.10451179511E+02  0.51100000000E-03 0. -1.
        -11    1    3    3    0    0 -0.31439404413E+02 -0.10575849080E+01 -0.26069162012E+02  0.40855303743E+02  0.51100000000E-03 0.  1.
         12    1    3    3    0    0  0.22872331588E+02  0.11139044645E+01  0.31199467256E+02  0.38701306083E+02  0.00000000000E+00 0. -1.
</event>
<event>
 7    1  0.1999542E-015  0.9000779E+02  0.7816164E-02  0.1186339E+00
        -11   -1    0    0    0    0  0.00000000000E+00  0.00000000000E+00  0.45593999997E+02  0.45594000000E+02  0.51100000000E-03 0. -1.
         11   -1    0    0    0    0 -0.00000000000E+00 -0.00000000000E+00 -0.45593999997E+02  0.45594000000E+02  0.51100000000E-03 0.  1.
    9900012    2    1    2    0    0  0.86377663272E+00  0.80292865207E+00 -0.45639638937E-01  0.90007793464E+02  0.90000055537E+02 0.  0.
         12    1    1    2    0    0 -0.86377663272E+00 -0.80292865207E+00  0.45639638937E-01  0.11802065362E+01  0.00000000000E+00 0. -1.
         11    1    3    3    0    0 -0.67301943489E+01 -0.63228926930E+01 -0.28495298606E+01  0.96640730890E+01  0.51100000000E-03 0. -1.
        -11    1    3    3    0    0  0.39319336411E+02 -0.13971196357E+02  0.57886351526E+01  0.42127340773E+02  0.51100000000E-03 0.  1.
         12    1    3    3    0    0 -0.31725365429E+02  0.21097017702E+02 -0.29847449309E+01  0.38216379601E+02  0.00000000000E+00 0. -1.
</event>
<event>
 7    1  0.1999542E-015  0.9000774E+02  0.7816164E-02  0.1186339E+00
        -11   -1    0    0    0    0  0.00000000000E+00  0.00000000000E+00  0.45593999997E+02  0.45594000000E+02  0.51100000000E-03 0.  1.
         11   -1    0    0    0    0 -0.00000000000E+00 -0.00000000000E+00 -0.45593999997E+02  0.45594000000E+02  0.51100000000E-03 0. -1.
    9900012    2    1    2    0    0  0.76763270109E-01  0.47819136907E+00  0.10763158587E+01  0.90007739261E+02  0.90000000619E+02 0.  0.
         12    1    1    2    0    0 -0.76763270109E-01 -0.47819136907E+00 -0.10763158587E+01  0.11802607393E+01  0.00000000000E+00 0. -1.
         11    1    3    3    0    0  0.33033463797E+01  0.19755599006E+02 -0.36447960949E+02  0.41589056818E+02  0.51100000000E-03 0. -1.
        -11    1    3    3    0    0 -0.66802498595E+01  0.30672056035E+01  0.53372449782E+01  0.90840339397E+01  0.51100000000E-03 0.  1.
        -12    1    3    3    0    0  0.34536667499E+01 -0.22344613241E+02  0.32187031829E+02  0.39334648503E+02  0.00000000000E+00 0.  1.
</event>
<event>
 7    1  0.1999542E-015  0.9000775E+02  0.7816164E-02  0.1186339E+00
        -11   -1    0    0    0    0  0.00000000000E+00  0.00000000000E+00  0.45593999997E+02  0.45594000000E+02  0.51100000000E-03 0.  1.
         11   -1    0    0    0    0 -0.00000000000E+00 -0.00000000000E+00 -0.45593999997E+02  0.45594000000E+02  0.51100000000E-03 0. -1.
    9900012    2    1    2    0    0 -0.41627782746E+00 -0.66658119356E+00  0.88054806132E+00  0.90007753159E+02  0.90000014701E+02 0.  0.
         12    1    1    2    0    0  0.41627782746E+00  0.66658119356E+00 -0.88054806132E+00  0.11802468409E+01  0.00000000000E+00 0. -1.
         11    1    3    3    0    0  0.27822678435E+00  0.57555960956E+00 -0.91493816804E+01  0.91716881980E+01  0.51100000000E-03 0. -1.
        -11    1    3    3    0    0  0.21218751122E+02  0.10678661255E+02  0.37081897019E+02  0.44037896092E+02  0.51100000000E-03 0.  1.
         12    1    3    3    0    0 -0.21913255733E+02 -0.11920802058E+02 -0.27051967278E+02  0.36798168869E+02  0.00000000000E+00 0. -1.
</event>
<event>
 7    1  0.1999542E-015  0.9000784E+02  0.7816164E-02  0.1186339E+00
        -11   -1    0    0    0    0  0.00000000000E+00  0.00000000000E+00  0.45593999997E+02  0.45594000000E+02  0.51100000000E-03 0.  1.
         11   -1    0    0    0    0 -0.00000000000E+00 -0.00000000000E+00 -0.45593999997E+02  0.45594000000E+02  0.51100000000E-03 0. -1.
    9900012    2    1    2    0    0 -0.80258206053E+00  0.35014021230E+00  0.79122259179E+00  0.90007843518E+02  0.90000106252E+02 0.  0.
         12    1    1    2    0    0  0.80258206053E+00 -0.35014021230E+00 -0.79122259179E+00  0.11801564820E+01  0.00000000000E+00 0. -1.
         11    1    3    3    0    0 -0.83357336286E+00  0.54098677146E+01 -0.75061975027E+01  0.92900223063E+01  0.51100000000E-03 0. -1.
        -11    1    3    3    0    0  0.40066159040E+02 -0.14921527600E+01  0.38265435962E+01  0.40276122657E+02  0.51100000000E-03 0.  1.
         12    1    3    3    0    0 -0.40035167738E+02 -0.35675747423E+01  0.44708764982E+01  0.40441698555E+02  0.00000000000E+00 0. -1.
</event>
<event>
 7    1  0.1999542E-015  0.9000788E+02  0.7816164E-02  0.1186339E+00
        -11   -1    0    0    0    0  0.00000000000E+00  0.00000000000E+00  0.45593999997E+02  0.45594000000E+02  0.51100000000E-03 0. -1.
         11   -1    0    0    0    0 -0.00000000000E+00 -0.00000000000E+00 -0.45593999997E+02  0.45594000000E+02  0.51100000000E-03 0.  1.
    9900012    2    1    2    0    0  0.17571794169E+00  0.99574200809E+00 -0.60852443400E+00  0.90007880969E+02  0.90000144197E+02 0.  0.
         12    1    1    2    0    0 -0.17571794169E+00 -0.99574200809E+00  0.60852443400E+00  0.11801190315E+01  0.00000000000E+00 0. -1.
         11    1    3    3    0    0 -0.55610061817E+01 -0.88999207402E+01  0.56854940199E+01  0.11935586347E+02  0.51100000000E-03 0. -1.
        -11    1    3    3    0    0 -0.29911732387E+02 -0.38046024534E+01  0.15706370669E+02  0.33998188394E+02  0.51100000000E-03 0.  1.
         12    1    3    3    0    0  0.35648456511E+02  0.13700265202E+02 -0.22000389123E+02  0.44074106227E+02  0.00000000000E+00 0. -1.
</event>
<event>
 7    1  0.1999542E-015  0.9000775E+02  0.7816164E-02  0.1186339E+00
        -11   -1    0    0    0    0  0.00000000000E+00  0.00000000000E+00  0.45593999997E+02  0.45594000000E+02  0.51100000000E-03 0.  1.
         11   -1    0    0    0    0 -0.00000000000E+00 -0.00000000000E+00 -0.45593999997E+02  0.45594000000E+02  0.51100000000E-03 0. -1.
    9900012    2    1    2    0    0 -0.26122292778E-01 -0.11515041949E+01  0.25755835950E+00  0.90007754011E+02  0.90000015564E+02 0.  0.
         12    1    1    2    0    0  0.26122292778E-01  0.11515041949E+01 -0.25755835950E+00  0.11802459886E+01  0.00000000000E+00 0. -1.
         11    1    3    3    0    0  0.22110034774E+02 -0.13345283642E+02  0.37502925973E+01  0.26096262722E+02  0.51100000000E-03 0. -1.
        -11    1    3    3    0    0 -0.18186324568E+02 -0.13756190408E+02 -0.22085385978E+02  0.31744912190E+02  0.51100000000E-03 0.  1.
         12    1    3    3    0    0 -0.39498324988E+01  0.25949969856E+02  0.18592651740E+02  0.32166579100E+02  0.00000000000E+00 0. -1.
</event>
<event>
 7    1  0.1999542E-015  0.9000778E+02  0.7816164E-02  0.1186339E+00
        -11   -1    0    0    0    0  0.00000000000E+00  0.00000000000E+00  0.45593999997E+02  0.45594000000E+02  0.51100000000E-03 0. -1.
         11   -1    0    0    0    0 -0.00000000000E+00 -0.00000000000E+00 -0.45593999997E+02  0.45594000000E+02  0.51100000000E-03 0.  1.
    9900012    2    1    2    0    0  0.75215815727E-01  0.54384716460E+00 -0.10447401398E+01  0.90007784292E+02  0.90000046245E+02 0.  0.
         12    1    1    2    0    0 -0.75215815727E-01 -0.54384716460E+00  0.10447401398E+01  0.11802157078E+01  0.00000000000E+00 0. -1.
         11    1    3    3    0    0 -0.12776328681E+02 -0.36895507699E+02  0.77846777082E+01  0.39813493570E+02  0.51100000000E-03 0. -1.
        -11    1    3    3    0    0 -0.26478387151E+01 -0.14033538674E+01 -0.78053566432E+01  0.83608638625E+01  0.51100000000E-03 0.  1.
        -12    1    3    3    0    0  0.15499383212E+02  0.38842708731E+02 -0.10240612048E+01  0.41833426860E+02  0.00000000000E+00 0.  1.
</event>
<event>
 7    1  0.1999542E-015  0.9000804E+02  0.7816164E-02  0.1186338E+00
        -11   -1    0    0    0    0  0.00000000000E+00  0.00000000000E+00  0.45593999997E+02  0.45594000000E+02  0.51100000000E-03 0. -1.
         11   -1    0    0    0    0 -0.00000000000E+00 -0.00000000000E+00 -0.45593999997E+02  0.45594000000E+02  0.51100000000E-03 0.  1.
    9900012    2    1    2    0    0 -0.86164160003E+00  0.66174263560E+00 -0.46040736082E+00  0.90008040467E+02  0.90000305800E+02 0.  0.
         12    1    1    2    0    0  0.86164160003E+00 -0.66174263560E+00  0.46040736082E+00  0.11799595334E+01  0.00000000000E+00 0. -1.
         11    1    3    3    0    0 -0.32091174408E+02  0.15819812134E+02 -0.29463987253E+01  0.35899738113E+02  0.51100000000E-03 0. -1.
        -11    1    3    3    0    0 -0.13219427802E+01  0.89831142177E+01 -0.81590008809E+01  0.12207095043E+02  0.51100000000E-03 0.  1.
        -12    1    3    3    0    0  0.32551475588E+02 -0.24141183716E+02  0.10644992245E+02  0.41901207311E+02  0.00000000000E+00 0.  1.
</event>
<event>
 7    1  0.1999542E-015  0.9000751E+02  0.7816164E-02  0.1186339E+00
        -11   -1    0    0    0    0  0.00000000000E+00  0.00000000000E+00  0.45593999997E+02  0.45594000000E+02  0.51100000000E-03 0.  1.
         11   -1    0    0    0    0 -0.00000000000E+00 -0.00000000000E+00 -0.45593999997E+02  0.45594000000E+02  0.51100000000E-03 0. -1.
    9900012    2    1    2    0    0 -0.18376146797E+00 -0.70769935676E+00  0.92679002159E+00  0.90007514337E+02  0.89999772726E+02 0.  0.
         12    1    1    2    0    0  0.18376146797E+00  0.70769935676E+00 -0.92679002159E+00  0.11804856631E+01  0.00000000000E+00 0. -1.
         11    1    3    3    0    0  0.18088222635E+02  0.15307614035E+02 -0.47076273957E+01  0.24159234290E+02  0.51100000000E-03 0. -1.
        -11    1    3    3    0    0  0.19946495251E+02 -0.13374944855E+02 -0.78012687372E+01  0.25250972592E+02  0.51100000000E-03 0.  1.
        -12    1    3    3    0    0 -0.38218479354E+02 -0.26403685363E+01  0.13435686154E+02  0.40597307455E+02  0.00000000000E+00 0.  1.
</event>
<event>
 7    1  0.1999542E-015  0.9000904E+02  0.7816164E-02  0.1186336E+00
        -11   -1    0    0    0    0  0.00000000000E+00  0.00000000000E+00  0.45593999997E+02  0.45594000000E+02  0.51100000000E-03 0. -1.
         11   -1    0    0    0    0 -0.00000000000E+00 -0.00000000000E+00 -0.45593999997E+02  0.45594000000E+02  0.51100000000E-03 0.  1.
    9900012    2    1    2    0    0 -0.88216254856E+00  0.73103108691E+00 -0.27809137711E+00  0.90009037733E+02  0.90001316222E+02 0.  0.
         12    1    1    2    0    0  0.88216254856E+00 -0.73103108691E+00  0.27809137711E+00  0.11789622666E+01  0.00000000000E+00 0. -1.
         11    1    3    3    0    0 -0.28917463803E+02  0.17763725351E+02  0.14718538571E+02  0.36991958978E+02  0.51100000000E-03 0. -1.
        -11    1    3    3    0    0 -0.47317826058E+01 -0.31101684171E+01  0.86059684215E+01  0.10301728347E+02  0.51100000000E-03 0.  1.
        -12    1    3    3    0    0  0.32767083860E+02 -0.13922525847E+02 -0.23602598370E+02  0.42715350408E+02  0.00000000000E+00 0.  1.
</event>
<event>
 7    1  0.1999542E-015  0.9000774E+02  0.7816164E-02  0.1186339E+00
        -11   -1    0    0    0    0  0.00000000000E+00  0.00000000000E+00  0.45593999997E+02  0.45594000000E+02  0.51100000000E-03 0. -1.
         11   -1    0    0    0    0 -0.00000000000E+00 -0.00000000000E+00 -0.45593999997E+02  0.45594000000E+02  0.51100000000E-03 0.  1.
    9900012    2    1    2    0    0  0.78798280648E+00 -0.87848675309E+00 -0.18743028687E-01  0.90007742748E+02  0.90000004153E+02 0.  0.
         12    1    1    2    0    0 -0.78798280648E+00  0.87848675309E+00  0.18743028687E-01  0.11802572515E+01  0.00000000000E+00 0. -1.
         11    1    3    3    0    0 -0.27668260416E+01 -0.38547451521E+01  0.38955032938E+02  0.39242948131E+02  0.51100000000E-03 0. -1.
        -11    1    3    3    0    0 -0.15578020138E+01 -0.89156401759E+01  0.65610881492E+00  0.90744622925E+01  0.51100000000E-03 0.  1.
        -12    1    3    3    0    0  0.51126108618E+01  0.11891898575E+02 -0.39629884782E+02  0.41690332325E+02  0.00000000000E+00 0.  1.
</event>
<event>
 7    1  0.1999542E-015  0.9000766E+02  0.7816164E-02  0.1186339E+00
        -11   -1    0    0    0    0  0.00000000000E+00  0.00000000000E+00  0.45593999997E+02  0.45594000000E+02  0.51100000000E-03 0.  1.
         11   -1    0    0    0    0 -0.00000000000E+00 -0.00000000000E+00 -0.45593999997E+02  0.45594000000E+02  0.51100000000E-03 0. -1.
    9900012    2    1    2    0    0 -0.69708960926E+00  0.89528996739E+00  0.32513595217E+00  0.90007664693E+02  0.89999925067E+02 0.  0.
         12    1    1    2    0    0  0.69708960926E+00 -0.89528996739E+00 -0.32513595217E+00  0.11803353068E+01  0.00000000000E+00 0. -1.
         11    1    3    3    0    0 -0.15660421244E+02 -0.14584209642E+02 -0.28423618323E+02  0.35578786422E+02  0.51100000000E-03 0. -1.
        -11    1    3    3    0    0 -0.72323429223E+01  0.13722748459E+01 -0.69263344689E+01  0.10107622462E+02  0.51100000000E-03 0.  1.
        -12    1    3    3    0    0  0.22195674557E+02  0.14107224764E+02  0.35675088744E+02  0.44321255809E+02  0.00000000000E+00 0.  1.
</event>
<event>
 7    1  0.1999542E-015  0.9000773E+02  0.7816164E-02  0.1186339E+00
        -11   -1    0    0    0    0  0.00000000000E+00  0.00000000000E+00  0.45593999997E+02  0.45594000000E+02  0.51100000000E-03 0.  1.
         11   -1    0    0    0    0 -0.00000000000E+00 -0.00000000000E+00 -0.45593999997E+02  0.45594000000E+02  0.51100000000E-03 0. -1.
    9900012    2    1    2    0    0 -0.21080156440E+00 -0.50870850168E+00  0.10439429897E+01  0.90007729436E+02  0.89999990664E+02 0.  0.
         12    1    1    2    0    0  0.21080156440E+00  0.50870850168E+00 -0.10439429897E+01  0.11802705643E+01  0.00000000000E+00 0. -1.
         11    1    3    3    0    0 -0.26088123059E+02  0.18615770560E+02 -0.14398570124E+02  0.35134824607E+02  0.51100000000E-03 0. -1.
        -11    1    3    3    0    0 -0.59273939834E+01  0.11434028727E+01 -0.83334179740E+01  0.10290151843E+02  0.51100000000E-03 0.  1.
        -12    1    3    3    0    0  0.31804715478E+02 -0.20267881934E+02  0.23775931088E+02  0.44582752986E+02  0.00000000000E+00 0.  1.
</event>
<event>
 7    1  0.1999542E-015  0.9000772E+02  0.7816164E-02  0.1186339E+00
        -11   -1    0    0    0    0  0.00000000000E+00  0.00000000000E+00  0.45593999997E+02  0.45594000000E+02  0.51100000000E-03 0. -1.
         11   -1    0    0    0    0 -0.00000000000E+00 -0.00000000000E+00 -0.45593999997E+02  0.45594000000E+02  0.51100000000E-03 0.  1.
    9900012    2    1    2    0    0  0.11546177963E+01  0.20090220258E+00  0.13986441751E+00  0.90007717828E+02  0.89999978903E+02 0.  0.
         12    1    1    2    0    0 -0.11546177963E+01 -0.20090220258E+00 -0.13986441751E+00  0.11802821721E+01  0.00000000000E+00 0. -1.
         11    1    3    3    0    0 -0.16954297504E+02  0.10899388183E+02  0.36343643787E+02  0.41558456548E+02  0.51100000000E-03 0. -1.
        -11    1    3    3    0    0  0.37937670673E+01  0.75723135486E+01 -0.61059313339E+01  0.10441024794E+02  0.51100000000E-03 0.  1.
        -12    1    3    3    0    0  0.14315148233E+02 -0.18270799529E+02 -0.30097848036E+02  0.38008236486E+02  0.00000000000E+00 0.  1.
</event>
<event>
 7    1  0.1999542E-015  0.9000834E+02  0.7816164E-02  0.1186338E+00
        -11   -1    0    0    0    0  0.00000000000E+00  0.00000000000E+00  0.45593999997E+02  0.45594000000E+02  0.51100000000E-03 0. -1.
         11   -1    0    0    0    0 -0.00000000000E+00 -0.00000000000E+00 -0.45593999997E+02  0.45594000000E+02  0.51100000000E-03 0.  1.
    9900012    2    1    2    0    0  0.68245624222E+00  0.20286415691E+00 -0.94057825499E+00  0.90008344185E+02  0.90000613526E+02 0.  0.
         12    1    1    2    0    0 -0.68245624222E+00 -0.20286415691E+00  0.94057825499E+00  0.11796558153E+01  0.00000000000E+00 0. -1.
         11    1    3    3    0    0  0.28886414346E+02 -0.12363873265E-01  0.29067770858E+02  0.40979999873E+02  0.51100000000E-03 0. -1.
        -11    1    3    3    0    0 -0.17728195784E+01  0.83421343252E+01 -0.15763335485E+02  0.17922523266E+02  0.51100000000E-03 0.  1.
        -12    1    3    3    0    0 -0.26431138525E+02 -0.81269062950E+01 -0.14245013628E+02  0.31105821046E+02  0.00000000000E+00 0.  1.
</event>
<event>
 7    1  0.1999542E-015  0.9000754E+02  0.7816164E-02  0.1186339E+00
        -11   -1    0    0    0    0  0.00000000000E+00  0.00000000000E+00  0.45593999997E+02  0.45594000000E+02  0.51100000000E-03 0. -1.
         11   -1    0    0    0    0 -0.00000000000E+00 -0.00000000000E+00 -0.45593999997E+02  0.45594000000E+02  0.51100000000E-03 0.  1.
    9900012    2    1    2    0    0  0.11576115205E+01 -0.20674335410E+00 -0.10329966204E+00  0.90007543280E+02  0.89999802051E+02 0.  0.
         12    1    1    2    0    0 -0.11576115205E+01  0.20674335410E+00  0.10329966204E+00  0.11804567197E+01  0.00000000000E+00 0. -1.
         11    1    3    3    0    0 -0.19267424156E+02 -0.40772041348E+01  0.35853878255E+02  0.40906696437E+02  0.51100000000E-03 0. -1.
        -11    1    3    3    0    0 -0.55958207275E+01  0.48303791906E+01 -0.75915374351E+01  0.10596094263E+02  0.51100000000E-03 0.  1.
        -12    1    3    3    0    0  0.26020856404E+02 -0.95991840994E+00 -0.28365640482E+02  0.38504752581E+02  0.00000000000E+00 0.  1.
</event>
<event>
 7    1  0.1999542E-015  0.9000766E+02  0.7816164E-02  0.1186339E+00
        -11   -1    0    0    0    0  0.00000000000E+00  0.00000000000E+00  0.45593999997E+02  0.45594000000E+02  0.51100000000E-03 0.  1.
         11   -1    0    0    0    0 -0.00000000000E+00 -0.00000000000E+00 -0.45593999997E+02  0.45594000000E+02  0.51100000000E-03 0. -1.
    9900012    2    1    2    0    0 -0.97655991150E+00  0.45428107114E+00 -0.48287463701E+00  0.90007657479E+02  0.89999917757E+02 0.  0.
         12    1    1    2    0    0  0.97655991150E+00 -0.45428107114E+00  0.48287463701E+00  0.11803425212E+01  0.00000000000E+00 0. -1.
         11    1    3    3    0    0  0.36666362682E+02 -0.58721604810E+01 -0.18340296040E+02  0.41415828859E+02  0.51100000000E-03 0. -1.
        -11    1    3    3    0    0 -0.64775003938E+01  0.78208783758E+01 -0.35445670766E+01  0.10755840550E+02  0.51100000000E-03 0.  1.
        -12    1    3    3    0    0 -0.31165422199E+02 -0.14944368236E+01  0.21401988479E+02  0.37835988069E+02  0.00000000000E+00 0.  1.
</event>
<event>
 7    1  0.1999542E-015  0.9000780E+02  0.7816164E-02  0.1186339E+00
        -11   -1    0    0    0    0  0.00000000000E+00  0.00000000000E+00  0.45593999997E+02  0.45594000000E+02  0.51100000000E-03 0. -1.
         11   -1    0    0    0    0 -0.00000000000E+00 -0.00000000000E+00 -0.45593999997E+02  0.45594000000E+02  0.51100000000E-03 0.  1.
    9900012    2    1    2    0    0 -0.12375799383E-01  0.17333459472E+00 -0.11673331391E+01  0.90007803110E+02  0.90000065311E+02 0.  0.
         12    1    1    2    0    0  0.12375799383E-01 -0.17333459472E+00  0.11673331391E+01  0.11801968902E+01  0.00000000000E+00 0. -1.
         11    1    3    3    0    0  0.82712476247E+01  0.19942913733E+00  0.44685163329E+01  0.94032413416E+01  0.51100000000E-03 0. -1.
        -11    1    3    3    0    0  0.32321829422E+02 -0.15420478812E+02  0.42636338786E+01  0.36064808306E+02  0.51100000000E-03 0.  1.
         12    1    3    3    0    0 -0.40605452847E+02  0.15394384269E+02 -0.98994833506E+01  0.44539753463E+02  0.00000000000E+00 0. -1.
</event>
<event>
 7    1  0.1999542E-015  0.9000773E+02  0.7816164E-02  0.1186339E+00
        -11   -1    0    0    0    0  0.00000000000E+00  0.00000000000E+00  0.45593999997E+02  0.45594000000E+02  0.51100000000E-03 0. -1.
         11   -1    0    0    0    0 -0.00000000000E+00 -0.00000000000E+00 -0.45593999997E+02  0.45594000000E+02  0.51100000000E-03 0.  1.
    9900012    2    1    2    0    0  0.66648015176E-01 -0.41856684334E+00 -0.11015441443E+01  0.90007728988E+02  0.89999990210E+02 0.  0.
         12    1    1    2    0    0 -0.66648015176E-01  0.41856684334E+00  0.11015441443E+01  0.11802710122E+01  0.00000000000E+00 0. -1.
         11    1    3    3    0    0  0.95334782123E+01 -0.79178137655E+01 -0.11119743393E+02  0.16650155406E+02  0.51100000000E-03 0. -1.
        -11    1    3    3    0    0 -0.29456098775E+02 -0.21743597854E+02  0.24818151228E+00  0.36612940294E+02  0.51100000000E-03 0.  1.
         12    1    3    3    0    0  0.19989268578E+02  0.29242844776E+02  0.97700177367E+01  0.36744633288E+02  0.00000000000E+00 0. -1.
</event>
<event>
 7    1  0.1999542E-015  0.9000768E+02  0.7816164E-02  0.1186339E+00
        -11   -1    0    0    0    0  0.00000000000E+00  0.00000000000E+00  0.45593999997E+02  0.45594000000E+02  0.51100000000E-03 0. -1.
         11   -1    0    0    0    0 -0.00000000000E+00 -0.00000000000E+00 -0.45593999997E+02  0.45594000000E+02  0.51100000000E-03 0.  1.
    9900012    2    1    2    0    0  0.98741891224E+00 -0.59272650782E+00  0.25850199219E+00  0.90007684745E+02  0.89999945384E+02 0.  0.
         12    1    1    2    0    0 -0.98741891224E+00  0.59272650782E+00 -0.25850199219E+00  0.11803152550E+01  0.00000000000E+00 0. -1.
         11    1    3    3    0    0 -0.61103510417E+01  0.73276356950E+01 -0.32695867505E+01  0.10085674619E+02  0.51100000000E-03 0. -1.
        -11    1    3    3    0    0  0.96344133948E+01  0.63224780407E+01 -0.36016010014E+02  0.37814661544E+02  0.51100000000E-03 0.  1.
         12    1    3    3    0    0 -0.25366434409E+01 -0.14242840243E+02  0.39544098757E+02  0.42107348583E+02  0.00000000000E+00 0. -1.
</event>
<event>
 7    1  0.1999542E-015  0.9000765E+02  0.7816164E-02  0.1186339E+00
        -11   -1    0    0    0    0  0.00000000000E+00  0.00000000000E+00  0.45593999997E+02  0.45594000000E+02  0.51100000000E-03 0. -1.
         11   -1    0    0    0    0 -0.00000000000E+00 -0.00000000000E+00 -0.45593999997E+02  0.45594000000E+02  0.51100000000E-03 0.  1.
    9900012    2    1    2    0    0  0.60601303884E+00  0.42173687632E+00 -0.92092635597E+00  0.90007652954E+02  0.89999913173E+02 0.  0.
         12    1    1    2    0    0 -0.60601303884E+00 -0.42173687632E+00  0.92092635597E+00  0.11803470461E+01  0.00000000000E+00 0. -1.
         11    1    3    3    0    0 -0.25511001970E+02 -0.75702483196E+01  0.30864257695E+02  0.40751960499E+02  0.51100000000E-03 0. -1.
        -11    1    3    3    0    0  0.61135344593E+01  0.13444311374E+01  0.42092463163E+01  0.75432455535E+01  0.51100000000E-03 0.  1.
        -12    1    3    3    0    0  0.20003480549E+02  0.66475540585E+01 -0.35994430368E+02  0.41712446902E+02  0.00000000000E+00 0.  1.
</event>
<event>
 7    1  0.1999542E-015  0.9000804E+02  0.7816164E-02  0.1186338E+00
        -11   -1    0    0    0    0  0.00000000000E+00  0.00000000000E+00  0.45593999997E+02  0.45594000000E+02  0.51100000000E-03 0. -1.
         11   -1    0    0    0    0 -0.00000000000E+00 -0.00000000000E+00 -0.45593999997E+02  0.45594000000E+02  0.51100000000E-03 0.  1.
    9900012    2    1    2    0    0  0.33386275770E+00  0.36176998097E+00 -0.10723674029E+01  0.90008036565E+02  0.90000301848E+02 0.  0.
         12    1    1    2    0    0 -0.33386275770E+00 -0.36176998097E+00  0.10723674029E+01  0.11799634346E+01  0.00000000000E+00 0. -1.
         11    1    3    3    0    0 -0.72188149210E+01  0.52110402465E+01  0.38071039609E+02  0.39098213342E+02  0.51100000000E-03 0. -1.
        -11    1    3    3    0    0  0.49017489557E+00 -0.75284270907E+01  0.29821654667E+01  0.81123854088E+01  0.51100000000E-03 0.  1.
        -12    1    3    3    0    0  0.70625027832E+01  0.26791568252E+01 -0.42125572479E+02  0.42797437815E+02  0.00000000000E+00 0.  1.
</event>
<event>
 7    1  0.1999542E-015  0.9000756E+02  0.7816164E-02  0.1186339E+00
        -11   -1    0    0    0    0  0.00000000000E+00  0.00000000000E+00  0.45593999997E+02  0.45594000000E+02  0.51100000000E-03 0. -1.
         11   -1    0    0    0    0 -0.00000000000E+00 -0.00000000000E+00 -0.45593999997E+02  0.45594000000E+02  0.51100000000E-03 0.  1.
    9900012    2    1    2    0    0  0.10467064606E+01  0.49790990623E+00 -0.22346880429E+00  0.90007556441E+02  0.89999815386E+02 0.  0.
         12    1    1    2    0    0 -0.10467064606E+01 -0.49790990623E+00  0.22346880429E+00  0.11804435590E+01  0.00000000000E+00 0. -1.
         11    1    3    3    0    0  0.23197791093E+02 -0.30602474366E+02 -0.57962166711E+01  0.38836131075E+02  0.51100000000E-03 0. -1.
        -11    1    3    3    0    0  0.72342621092E+01  0.27534359253E+01 -0.47179634129E+01  0.90650502859E+01  0.51100000000E-03 0.  1.
        -12    1    3    3    0    0 -0.29385346742E+02  0.28346948347E+02  0.10290711280E+02  0.42106375080E+02  0.00000000000E+00 0.  1.
</event>
<event>
 7    1  0.1999542E-015  0.9000778E+02  0.7816164E-02  0.1186339E+00
        -11   -1    0    0    0    0  0.00000000000E+00  0.00000000000E+00  0.45593999997E+02  0.45594000000E+02  0.51100000000E-03 0. -1.
         11   -1    0    0    0    0 -0.00000000000E+00 -0.00000000000E+00 -0.45593999997E+02  0.45594000000E+02  0.51100000000E-03 0.  1.
    9900012    2    1    2    0    0  0.88790962906E-01 -0.11132308671E+01  0.38176340935E+00  0.90007783876E+02  0.90000045823E+02 0.  0.
         12    1    1    2    0    0 -0.88790962906E-01  0.11132308671E+01 -0.38176340935E+00  0.11802161240E+01  0.00000000000E+00 0. -1.
         11    1    3    3    0    0  0.32842980203E+02  0.58999067566E+01 -0.18321750632E+02  0.38067792093E+02  0.51100000000E-03 0. -1.
        -11    1    3    3    0    0  0.24818186175E+01  0.45980217956E+01 -0.55447335310E+01  0.76187465028E+01  0.51100000000E-03 0.  1.
        -12    1    3    3    0    0 -0.35236007858E+02 -0.11611159419E+02  0.24248247572E+02  0.44321245280E+02  0.00000000000E+00 0.  1.
</event>
<event>
 7    1  0.1999542E-015  0.9000783E+02  0.7816164E-02  0.1186339E+00
        -11   -1    0    0    0    0  0.00000000000E+00  0.00000000000E+00  0.45593999997E+02  0.45594000000E+02  0.51100000000E-03 0.  1.
         11   -1    0    0    0    0 -0.00000000000E+00 -0.00000000000E+00 -0.45593999997E+02  0.45594000000E+02  0.51100000000E-03 0. -1.
    9900012    2    1    2    0    0  0.10714663346E+01 -0.30252291114E+00  0.39144984675E+00  0.90007833401E+02  0.90000096002E+02 0.  0.
         12    1    1    2    0    0 -0.10714663346E+01  0.30252291114E+00 -0.39144984675E+00  0.11801665986E+01  0.00000000000E+00 0. -1.
         11    1    3    3    0    0 -0.42472967757E+01 -0.82222221607E+01 -0.35311974468E+01  0.99052421893E+01  0.51100000000E-03 0. -1.
        -11    1    3    3    0    0  0.10824726862E+02 -0.27449743235E+02  0.24903520037E+02  0.38611506391E+02  0.51100000000E-03 0.  1.
         12    1    3    3    0    0 -0.55059637518E+01  0.35369442485E+02 -0.20980872743E+02  0.41491084821E+02  0.00000000000E+00 0. -1.
</event>
<event>
 7    1  0.1999542E-015  0.9000774E+02  0.7816164E-02  0.1186339E+00
        -11   -1    0    0    0    0  0.00000000000E+00  0.00000000000E+00  0.45593999997E+02  0.45594000000E+02  0.51100000000E-03 0.  1.
         11   -1    0    0    0    0 -0.00000000000E+00 -0.00000000000E+00 -0.45593999997E+02  0.45594000000E+02  0.51100000000E-03 0. -1.
    9900012    2    1    2    0    0 -0.99157550236E+00  0.28526404275E+00 -0.57308436308E+00  0.90007735946E+02  0.89999997260E+02 0.  0.
         12    1    1    2    0    0  0.99157550236E+00 -0.28526404275E+00  0.57308436308E+00  0.11802640544E+01  0.00000000000E+00 0. -1.
         11    1    3    3    0    0 -0.11808833481E+02 -0.29435781846E+00 -0.67319890994E+01  0.13596134459E+02  0.51100000000E-03 0. -1.
        -11    1    3    3    0    0  0.10515539777E+02  0.11027990887E+01  0.40605609480E+02  0.41959602764E+02  0.51100000000E-03 0.  1.
         12    1    3    3    0    0  0.30171820260E+00 -0.52317722745E+00 -0.34446704744E+02  0.34451998723E+02  0.00000000000E+00 0. -1.
</event>
<event>
 7    1  0.1999542E-015  0.9000776E+02  0.7816164E-02  0.1186339E+00
        -11   -1    0    0    0    0  0.00000000000E+00  0.00000000000E+00  0.45593999997E+02  0.45594000000E+02  0.51100000000E-03 0.  1.
         11   -1    0    0    0    0 -0.00000000000E+00 -0.00000000000E+00 -0.45593999997E+02  0.45594000000E+02  0.51100000000E-03 0. -1.
    9900012    2    1    2    0    0 -0.95338796055E+00 -0.22240996938E+00 -0.65920256553E+00  0.90007761541E+02  0.90000023193E+02 0.  0.
         12    1    1    2    0    0  0.95338796055E+00  0.22240996938E+00  0.65920256553E+00  0.11802384590E+01  0.00000000000E+00 0. -1.
         11    1    3    3    0    0  0.66474452016E+00  0.71619337262E+01  0.56139784800E+01  0.91242498109E+01  0.51100000000E-03 0. -1.
        -11    1    3    3    0    0  0.11365665168E+02  0.51969935282E+01  0.34277662761E+02  0.36484863314E+02  0.51100000000E-03 0.  1.
         12    1    3    3    0    0 -0.12983797649E+02 -0.12581337224E+02 -0.40550843807E+02  0.44398648416E+02  0.00000000000E+00 0. -1.
</event>
<event>
 7    1  0.1999542E-015  0.9000765E+02  0.7816164E-02  0.1186339E+00
        -11   -1    0    0    0    0  0.00000000000E+00  0.00000000000E+00  0.45593999997E+02  0.45594000000E+02  0.51100000000E-03 0.  1.
         11   -1    0    0    0    0 -0.00000000000E+00 -0.00000000000E+00 -0.45593999997E+02  0.45594000000E+02  0.51100000000E-03 0. -1.
    9900012    2    1    2    0    0 -0.19224589344E+00 -0.11175049745E+01 -0.32777874683E+00  0.90007654814E+02  0.89999915057E+02 0.  0.
         12    1    1    2    0    0  0.19224589344E+00  0.11175049745E+01  0.32777874683E+00  0.11803451861E+01  0.00000000000E+00 0. -1.
         11    1    3    3    0    0  0.67917237904E+01  0.40242917848E+00  0.51800979114E+01  0.85511914914E+01  0.51100000000E-03 0. -1.
        -11    1    3    3    0    0 -0.33917058217E+02 -0.24322926251E+02  0.99864367585E+01  0.42915038144E+02  0.51100000000E-03 0.  1.
         12    1    3    3    0    0  0.26933088533E+02  0.22802992098E+02 -0.15494313417E+02  0.38541425179E+02  0.00000000000E+00 0. -1.
</event>
<event>
 7    1  0.1999542E-015  0.9000774E+02  0.7816164E-02  0.1186339E+00
        -11   -1    0    0    0    0  0.00000000000E+00  0.00000000000E+00  0.45593999997E+02  0.45594000000E+02  0.51100000000E-03 0.  1.
         11   -1    0    0    0    0 -0.00000000000E+00 -0.00000000000E+00 -0.45593999997E+02  0.45594000000E+02  0.51100000000E-03 0. -1.
    9900012    2    1    2    0    0  0.49486012599E+00 -0.23371255088E+00  0.10457086403E+01  0.90007739579E+02  0.90000000942E+02 0.  0.
         12    1    1    2    0    0 -0.49486012599E+00  0.23371255088E+00 -0.10457086403E+01  0.11802604209E+01  0.00000000000E+00 0. -1.
         11    1    3    3    0    0  0.19010419605E+02 -0.17138108262E+02  0.52608077758E+01  0.26130191485E+02  0.51100000000E-03 0. -1.
        -11    1    3    3    0    0 -0.85703203551E+01 -0.18921509817E+02  0.11233716920E+02  0.23615044375E+02  0.51100000000E-03 0.  1.
         12    1    3    3    0    0 -0.99452391234E+01  0.35825905528E+02 -0.15448816055E+02  0.40262503718E+02  0.00000000000E+00 0. -1.
</event>
<event>
 7    1  0.1999542E-015  0.9000774E+02  0.7816164E-02  0.1186339E+00
        -11   -1    0    0    0    0  0.00000000000E+00  0.00000000000E+00  0.45593999997E+02  0.45594000000E+02  0.51100000000E-03 0. -1.
         11   -1    0    0    0    0 -0.00000000000E+00 -0.00000000000E+00 -0.45593999997E+02  0.45594000000E+02  0.51100000000E-03 0.  1.
    9900012    2    1    2    0    0 -0.11387537814E+01 -0.60346586221E-01 -0.30430622125E+00  0.90007744027E+02  0.90000005448E+02 0.  0.
         12    1    1    2    0    0  0.11387537814E+01  0.60346586221E-01  0.30430622125E+00  0.11802559728E+01  0.00000000000E+00 0. -1.
         11    1    3    3    0    0 -0.38946304860E+02  0.10502540107E+02 -0.20912510327E+01  0.40391723684E+02  0.51100000000E-03 0. -1.
        -11    1    3    3    0    0  0.79313043224E+00 -0.12346387363E+02 -0.12477954637E+01  0.12434602149E+02  0.51100000000E-03 0.  1.
        -12    1    3    3    0    0  0.37014420647E+02  0.17835006703E+01  0.30347402752E+01  0.37181418195E+02  0.00000000000E+00 0.  1.
</event>
<event>
 7    1  0.1999542E-015  0.9000765E+02  0.7816164E-02  0.1186339E+00
        -11   -1    0    0    0    0  0.00000000000E+00  0.00000000000E+00  0.45593999997E+02  0.45594000000E+02  0.51100000000E-03 0.  1.
         11   -1    0    0    0    0 -0.00000000000E+00 -0.00000000000E+00 -0.45593999997E+02  0.45594000000E+02  0.51100000000E-03 0. -1.
    9900012    2    1    2    0    0 -0.47395147297E+00 -0.43217917405E+00 -0.99086342886E+00  0.90007652944E+02  0.89999913163E+02 0.  0.
         12    1    1    2    0    0  0.47395147297E+00  0.43217917405E+00  0.99086342886E+00  0.11803470557E+01  0.00000000000E+00 0. -1.
         11    1    3    3    0    0 -0.72244508615E+01 -0.41410533161E+00  0.74976565730E+01  0.10420126094E+02  0.51100000000E-03 0. -1.
        -11    1    3    3    0    0  0.23274830271E+01  0.15101514946E+02  0.32371194134E+02  0.35796188915E+02  0.51100000000E-03 0.  1.
         12    1    3    3    0    0  0.44230163615E+01 -0.15119588788E+02 -0.40859714136E+02  0.43791337935E+02  0.00000000000E+00 0. -1.
</event>
<event>
 7    1  0.2022203E-015  0.9000762E+02  0.7816164E-02  0.1186339E+00
        -11   -1    0    0    0    0  0.00000000000E+00  0.00000000000E+00  0.45593999997E+02  0.45594000000E+02  0.51100000000E-03 0.  1.
         11   -1    0    0    0    0 -0.00000000000E+00 -0.00000000000E+00 -0.45593999997E+02  0.45594000000E+02  0.51100000000E-03 0. -1.
    9900012    2    1    2    0    0 -0.49820133961E+00 -0.97851283746E+00  0.43313880466E+00  0.90007618209E+02  0.89999877970E+02 0.  0.
         12    1    1    2    0    0  0.49820133961E+00  0.97851283746E+00 -0.43313880466E+00  0.11803817908E+01  0.00000000000E+00 0. -1.
         11    1    3    3    0    0  0.21755347674E+02  0.30180233718E+02 -0.67338975421E+01  0.37808557709E+02  0.51100000000E-03 0. -1.
        -11    1    3    3    0    0  0.63495754790E+01 -0.24947956193E+01 -0.65376009853E+01  0.94488804020E+01  0.51100000000E-03 0.  1.
        -12    1    3    3    0    0 -0.28603124492E+02 -0.28663950936E+02  0.13704637332E+02  0.42750180098E+02  0.00000000000E+00 0.  1.
</event>
<event>
 7    1  0.1999542E-015  0.9000754E+02  0.7816164E-02  0.1186339E+00
        -11   -1    0    0    0    0  0.00000000000E+00  0.00000000000E+00  0.45593999997E+02  0.45594000000E+02  0.51100000000E-03 0. -1.
         11   -1    0    0    0    0 -0.00000000000E+00 -0.00000000000E+00 -0.45593999997E+02  0.45594000000E+02  0.51100000000E-03 0.  1.
    9900012    2    1    2    0    0 -0.94329547873E+00  0.35627224497E+00 -0.61379176871E+00  0.90007543898E+02  0.89999802678E+02 0.  0.
         12    1    1    2    0    0  0.94329547873E+00 -0.35627224497E+00  0.61379176871E+00  0.11804561017E+01  0.00000000000E+00 0. -1.
         11    1    3    3    0    0 -0.13534425596E+02  0.21914792117E+01 -0.34155406112E+01  0.14129726653E+02  0.51100000000E-03 0. -1.
        -11    1    3    3    0    0  0.10203892199E+02 -0.62757703543E+01 -0.35385996284E+02  0.37358713078E+02  0.51100000000E-03 0.  1.
         12    1    3    3    0    0  0.23872379184E+01  0.44405633875E+01  0.38187745126E+02  0.38519104168E+02  0.00000000000E+00 0. -1.
</event>
<event>
 7    1  0.1999542E-015  0.9000774E+02  0.7816164E-02  0.1186339E+00
        -11   -1    0    0    0    0  0.00000000000E+00  0.00000000000E+00  0.45593999997E+02  0.45594000000E+02  0.51100000000E-03 0. -1.
         11   -1    0    0    0    0 -0.00000000000E+00 -0.00000000000E+00 -0.45593999997E+02  0.45594000000E+02  0.51100000000E-03 0.  1.
    9900012    2    1    2    0    0 -0.94870772131E+00  0.25592788105E-02  0.70210412534E+00  0.90007744480E+02  0.90000005907E+02 0.  0.
         12    1    1    2    0    0  0.94870772131E+00 -0.25592788105E-02 -0.70210412534E+00  0.11802555203E+01  0.00000000000E+00 0. -1.
         11    1    3    3    0    0  0.50598322989E+00  0.69359655355E+01  0.63340891274E+01  0.94066105624E+01  0.51100000000E-03 0. -1.
        -11    1    3    3    0    0 -0.32595418801E+02 -0.17928023456E+01 -0.27102033460E+02  0.42428712978E+02  0.51100000000E-03 0.  1.
         12    1    3    3    0    0  0.31140727849E+02 -0.51406039111E+01  0.21470048458E+02  0.38172420939E+02  0.00000000000E+00 0. -1.
</event>
<event>
 7    1  0.2987331E-015  0.9000780E+02  0.7816164E-02  0.1186339E+00
        -11   -1    0    0    0    0  0.00000000000E+00  0.00000000000E+00  0.45593999997E+02  0.45594000000E+02  0.51100000000E-03 0. -1.
         11   -1    0    0    0    0 -0.00000000000E+00 -0.00000000000E+00 -0.45593999997E+02  0.45594000000E+02  0.51100000000E-03 0.  1.
    9900012    2    1    2    0    0  0.43485795714E+00  0.30276990740E+00 -0.10545642410E+01  0.90007797984E+02  0.90000060118E+02 0.  0.
         12    1    1    2    0    0 -0.43485795714E+00 -0.30276990740E+00  0.10545642410E+01  0.11802020158E+01  0.00000000000E+00 0. -1.
         11    1    3    3    0    0 -0.17295117149E+02  0.32239153043E+02  0.16371648638E+02  0.40081354088E+02  0.51100000000E-03 0. -1.
        -11    1    3    3    0    0  0.70240073242E+01 -0.92650616921E+00  0.62672504651E+01  0.94590444140E+01  0.51100000000E-03 0.  1.
        -12    1    3    3    0    0  0.10705967782E+02 -0.31009876966E+02 -0.23693463344E+02  0.40467399482E+02  0.00000000000E+00 0.  1.
</event>
<event>
 7    1  0.1999542E-015  0.9000773E+02  0.7816164E-02  0.1186339E+00
        -11   -1    0    0    0    0  0.00000000000E+00  0.00000000000E+00  0.45593999997E+02  0.45594000000E+02  0.51100000000E-03 0.  1.
         11   -1    0    0    0    0 -0.00000000000E+00 -0.00000000000E+00 -0.45593999997E+02  0.45594000000E+02  0.51100000000E-03 0. -1.
    9900012    2    1    2    0    0 -0.67406032327E+00  0.78426567398E+00 -0.56886472311E+00  0.90007730099E+02  0.89999991336E+02 0.  0.
         12    1    1    2    0    0  0.67406032327E+00 -0.78426567398E+00  0.56886472311E+00  0.11802699013E+01  0.00000000000E+00 0. -1.
         11    1    3    3    0    0  0.27083329929E+01  0.88706338174E+00  0.80111171416E+01  0.85029375607E+01  0.51100000000E-03 0. -1.
        -11    1    3    3    0    0 -0.18623323131E+02  0.66404123915E+01  0.32011430084E+02  0.37625189667E+02  0.51100000000E-03 0.  1.
         12    1    3    3    0    0  0.15240929815E+02 -0.67432100992E+01 -0.40591411949E+02  0.43879602871E+02  0.00000000000E+00 0. -1.
</event>
<event>
 7    1  0.2447518E-015  0.9000770E+02  0.7816164E-02  0.1186339E+00
        -11   -1    0    0    0    0  0.00000000000E+00  0.00000000000E+00  0.45593999997E+02  0.45594000000E+02  0.51100000000E-03 0. -1.
         11   -1    0    0    0    0 -0.00000000000E+00 -0.00000000000E+00 -0.45593999997E+02  0.45594000000E+02  0.51100000000E-03 0.  1.
    9900012    2    1    2    0    0  0.58955831166E+00  0.15283925342E+00 -0.10110228724E+01  0.90007700848E+02  0.89999961699E+02 0.  0.
         12    1    1    2    0    0 -0.58955831166E+00 -0.15283925342E+00  0.10110228724E+01  0.11802991522E+01  0.00000000000E+00 0. -1.
         11    1    3    3    0    0  0.17282328829E+02 -0.30551695249E+02  0.19175522478E+02  0.39997320347E+02  0.51100000000E-03 0. -1.
        -11    1    3    3    0    0 -0.81767177050E+01 -0.24190802641E+01  0.25990925063E+01  0.89143672725E+01  0.51100000000E-03 0.  1.
        -12    1    3    3    0    0 -0.85160528125E+01  0.33123614767E+02 -0.22785637857E+02  0.41096013228E+02  0.00000000000E+00 0.  1.
</event>
<event>
 7    1  0.1999542E-015  0.9000775E+02  0.7816164E-02  0.1186339E+00
        -11   -1    0    0    0    0  0.00000000000E+00  0.00000000000E+00  0.45593999997E+02  0.45594000000E+02  0.51100000000E-03 0. -1.
         11   -1    0    0    0    0 -0.00000000000E+00 -0.00000000000E+00 -0.45593999997E+02  0.45594000000E+02  0.51100000000E-03 0.  1.
    9900012    2    1    2    0    0  0.60928087972E+00  0.84692155167E+00 -0.55181597953E+00  0.90007745714E+02  0.90000007157E+02 0.  0.
         12    1    1    2    0    0 -0.60928087972E+00 -0.84692155167E+00  0.55181597953E+00  0.11802542863E+01  0.00000000000E+00 0. -1.
         11    1    3    3    0    0  0.31580357866E+02 -0.10670330878E+02 -0.17422496771E+02  0.37612741964E+02  0.51100000000E-03 0. -1.
        -11    1    3    3    0    0  0.58260488220E+01 -0.64154385734E+01  0.32112253465E+01  0.92418972864E+01  0.51100000000E-03 0.  1.
        -12    1    3    3    0    0 -0.36797125809E+02  0.17932691003E+02  0.13659455445E+02  0.43153106464E+02  0.00000000000E+00 0.  1.
</event>
<event>
 7    1  0.2226133E-015  0.9000779E+02  0.7816164E-02  0.1186339E+00
        -11   -1    0    0    0    0  0.00000000000E+00  0.00000000000E+00  0.45593999997E+02  0.45594000000E+02  0.51100000000E-03 0. -1.
         11   -1    0    0    0    0 -0.00000000000E+00 -0.00000000000E+00 -0.45593999997E+02  0.45594000000E+02  0.51100000000E-03 0.  1.
    9900012    2    1    2    0    0 -0.61735873156E+00  0.57026655995E+00 -0.82859483409E+00  0.90007785972E+02  0.90000047947E+02 0.  0.
         12    1    1    2    0    0  0.61735873156E+00 -0.57026655995E+00  0.82859483409E+00  0.11802140280E+01  0.00000000000E+00 0. -1.
         11    1    3    3    0    0  0.30552947516E+02  0.21167008844E+02  0.11317138066E+02  0.38853603173E+02  0.51100000000E-03 0. -1.
        -11    1    3    3    0    0  0.52234041644E+01 -0.66199928239E+01  0.35217724112E+01  0.91384428230E+01  0.51100000000E-03 0.  1.
        -12    1    3    3    0    0 -0.36393710412E+02 -0.13976749460E+02 -0.15667505312E+02  0.42015739975E+02  0.00000000000E+00 0.  1.
</event>
<event>
 7    1  0.1999542E-015  0.9000772E+02  0.7816164E-02  0.1186339E+00
        -11   -1    0    0    0    0  0.00000000000E+00  0.00000000000E+00  0.45593999997E+02  0.45594000000E+02  0.51100000000E-03 0. -1.
         11   -1    0    0    0    0 -0.00000000000E+00 -0.00000000000E+00 -0.45593999997E+02  0.45594000000E+02  0.51100000000E-03 0.  1.
    9900012    2    1    2    0    0  0.58570315513E+00  0.39921465676E+00 -0.94373124401E+00  0.90007724952E+02  0.89999986121E+02 0.  0.
         12    1    1    2    0    0 -0.58570315513E+00 -0.39921465676E+00  0.94373124401E+00  0.11802750480E+01  0.00000000000E+00 0. -1.
         11    1    3    3    0    0  0.39658935778E+01 -0.46366139126E+00 -0.90005711839E+01  0.98465006807E+01  0.51100000000E-03 0. -1.
        -11    1    3    3    0    0  0.32508650034E+02 -0.48151297909E+01 -0.16032946691E+02  0.36565737813E+02  0.51100000000E-03 0.  1.
         12    1    3    3    0    0 -0.35888840457E+02  0.56780058389E+01  0.24089786631E+02  0.43595486459E+02  0.00000000000E+00 0. -1.
</event>
<event>
 7    1  0.1999542E-015  0.9000769E+02  0.7816164E-02  0.1186339E+00
        -11   -1    0    0    0    0  0.00000000000E+00  0.00000000000E+00  0.45593999997E+02  0.45594000000E+02  0.51100000000E-03 0.  1.
         11   -1    0    0    0    0 -0.00000000000E+00 -0.00000000000E+00 -0.45593999997E+02  0.45594000000E+02  0.51100000000E-03 0. -1.
    9900012    2    1    2    0    0  0.74897397848E+00  0.36915307692E+00  0.83420513059E+00  0.90007688933E+02  0.89999949627E+02 0.  0.
         12    1    1    2    0    0 -0.74897397848E+00 -0.36915307692E+00 -0.83420513059E+00  0.11803110669E+01  0.00000000000E+00 0. -1.
         11    1    3    3    0    0 -0.79546314849E+01  0.15003199495E+01  0.47679441548E+01  0.93947013649E+01  0.51100000000E-03 0. -1.
        -11    1    3    3    0    0 -0.21394860217E+02 -0.25445233265E+02  0.16215762067E+02  0.36988523616E+02  0.51100000000E-03 0.  1.
         12    1    3    3    0    0  0.30098465681E+02  0.24314066393E+02 -0.20149501091E+02  0.43624463952E+02  0.00000000000E+00 0. -1.
</event>
<event>
 7    1  0.1999542E-015  0.9000778E+02  0.7816164E-02  0.1186339E+00
        -11   -1    0    0    0    0  0.00000000000E+00  0.00000000000E+00  0.45593999997E+02  0.45594000000E+02  0.51100000000E-03 0.  1.
         11   -1    0    0    0    0 -0.00000000000E+00 -0.00000000000E+00 -0.45593999997E+02  0.45594000000E+02  0.51100000000E-03 0. -1.
    9900012    2    1    2    0    0 -0.51908275403E+00  0.71923219787E+00  0.77857498295E+00  0.90007779316E+02  0.90000041202E+02 0.  0.
         12    1    1    2    0    0  0.51908275403E+00 -0.71923219787E+00 -0.77857498295E+00  0.11802206845E+01  0.00000000000E+00 0. -1.
         11    1    3    3    0    0 -0.38574913395E+01 -0.15333674788E+01  0.27215484741E+02  0.27530239105E+02  0.51100000000E-03 0. -1.
        -11    1    3    3    0    0 -0.25762856849E+01 -0.92702122705E+01  0.15689615570E+02  0.18404839593E+02  0.51100000000E-03 0.  1.
         12    1    3    3    0    0  0.59146942704E+01  0.11522811947E+02 -0.42126525328E+02  0.44072700617E+02  0.00000000000E+00 0. -1.
</event>
<event>
 7    1  0.1999542E-015  0.9000778E+02  0.7816164E-02  0.1186339E+00
        -11   -1    0    0    0    0  0.00000000000E+00  0.00000000000E+00  0.45593999997E+02  0.45594000000E+02  0.51100000000E-03 0. -1.
         11   -1    0    0    0    0 -0.00000000000E+00 -0.00000000000E+00 -0.45593999997E+02  0.45594000000E+02  0.51100000000E-03 0.  1.
    9900012    2    1    2    0    0 -0.72240922835E+00  0.50959365878E+00 -0.78189992277E+00  0.90007776174E+02  0.90000038019E+02 0.  0.
         12    1    1    2    0    0  0.72240922835E+00 -0.50959365878E+00  0.78189992277E+00  0.11802238260E+01  0.00000000000E+00 0. -1.
         11    1    3    3    0    0  0.27314506809E+01 -0.67177377752E+01 -0.57045428993E+01  0.92266263385E+01  0.51100000000E-03 0. -1.
        -11    1    3    3    0    0 -0.15644749784E+02 -0.13331332498E+02 -0.31262820880E+02  0.37414523806E+02  0.51100000000E-03 0.  1.
         12    1    3    3    0    0  0.12190889874E+02  0.20558663932E+02  0.36185463857E+02  0.43366626029E+02  0.00000000000E+00 0. -1.
</event>
<event>
 7    1  0.1999542E-015  0.9000793E+02  0.7816164E-02  0.1186339E+00
        -11   -1    0    0    0    0  0.00000000000E+00  0.00000000000E+00  0.45593999997E+02  0.45594000000E+02  0.51100000000E-03 0. -1.
         11   -1    0    0    0    0 -0.00000000000E+00 -0.00000000000E+00 -0.45593999997E+02  0.45594000000E+02  0.51100000000E-03 0.  1.
    9900012    2    1    2    0    0 -0.11404306478E+01  0.11278060019E+00 -0.28151765082E+00  0.90007934869E+02  0.90000198809E+02 0.  0.
         12    1    1    2    0    0  0.11404306478E+01 -0.11278060019E+00  0.28151765082E+00  0.11800651313E+01  0.00000000000E+00 0. -1.
         11    1    3    3    0    0 -0.12118273432E+02 -0.30056977479E+02  0.37334465017E+01  0.32622278725E+02  0.51100000000E-03 0. -1.
        -11    1    3    3    0    0  0.15888094819E+01  0.66906557708E+01  0.20829998760E+02  0.21935770760E+02  0.51100000000E-03 0.  1.
        -12    1    3    3    0    0  0.93890333023E+01  0.23479102309E+02 -0.24844962913E+02  0.35449885384E+02  0.00000000000E+00 0.  1.
</event>
<event>
 7    1  0.1999542E-015  0.9000742E+02  0.7816164E-02  0.1186340E+00
        -11   -1    0    0    0    0  0.00000000000E+00  0.00000000000E+00  0.45593999997E+02  0.45594000000E+02  0.51100000000E-03 0. -1.
         11   -1    0    0    0    0 -0.00000000000E+00 -0.00000000000E+00 -0.45593999997E+02  0.45594000000E+02  0.51100000000E-03 0.  1.
    9900012    2    1    2    0    0 -0.10072616764E+00  0.75337078229E+00 -0.90335885987E+00  0.90007419411E+02  0.89999676547E+02 0.  0.
         12    1    1    2    0    0  0.10072616764E+00 -0.75337078229E+00  0.90335885987E+00  0.11805805886E+01  0.00000000000E+00 0. -1.
         11    1    3    3    0    0  0.89313668439E+01  0.19490497764E+02  0.43159774986E+01  0.21869533119E+02  0.51100000000E-03 0. -1.
        -11    1    3    3    0    0  0.20042605033E+02 -0.17426411358E+02 -0.22048380990E+02  0.34518356477E+02  0.51100000000E-03 0.  1.
         12    1    3    3    0    0 -0.29074698045E+02 -0.13107156243E+01  0.16829044631E+02  0.33619529816E+02  0.00000000000E+00 0. -1.
</event>
<event>
 7    1  0.1999542E-015  0.9000740E+02  0.7816164E-02  0.1186340E+00
        -11   -1    0    0    0    0  0.00000000000E+00  0.00000000000E+00  0.45593999997E+02  0.45594000000E+02  0.51100000000E-03 0. -1.
         11   -1    0    0    0    0 -0.00000000000E+00 -0.00000000000E+00 -0.45593999997E+02  0.45594000000E+02  0.51100000000E-03 0.  1.
    9900012    2    1    2    0    0  0.92141102670E-01 -0.33666890864E+00 -0.11278200913E+01  0.90007400959E+02  0.89999657851E+02 0.  0.
         12    1    1    2    0    0 -0.92141102670E-01  0.33666890864E+00  0.11278200913E+01  0.11805990408E+01  0.00000000000E+00 0. -1.
         11    1    3    3    0    0 -0.36970724229E+02 -0.79496804104E+01 -0.15480390597E+02  0.40861649036E+02  0.51100000000E-03 0. -1.
        -11    1    3    3    0    0  0.55629108777E+01 -0.67361364129E+01 -0.43962290411E+01  0.97799969964E+01  0.51100000000E-03 0.  1.
        -12    1    3    3    0    0  0.31499954454E+02  0.14349147915E+02  0.18748799547E+02  0.39365754927E+02  0.00000000000E+00 0.  1.
</event>
<event>
 7    1  0.1999542E-015  0.9000781E+02  0.7816164E-02  0.1186339E+00
        -11   -1    0    0    0    0  0.00000000000E+00  0.00000000000E+00  0.45593999997E+02  0.45594000000E+02  0.51100000000E-03 0.  1.
         11   -1    0    0    0    0 -0.00000000000E+00 -0.00000000000E+00 -0.45593999997E+02  0.45594000000E+02  0.51100000000E-03 0. -1.
    9900012    2    1    2    0    0 -0.62602230166E+00 -0.78917081603E+00 -0.61494965174E+00  0.90007806129E+02  0.90000068370E+02 0.  0.
         12    1    1    2    0    0  0.62602230166E+00  0.78917081603E+00  0.61494965174E+00  0.11801938710E+01  0.00000000000E+00 0. -1.
         11    1    3    3    0    0 -0.38509911225E+02 -0.72381147729E+01 -0.17795291844E+02  0.43035752348E+02  0.51100000000E-03 0. -1.
        -11    1    3    3    0    0 -0.10704416628E+01  0.43391293673E+00  0.58456832185E+01  0.59587027398E+01  0.51100000000E-03 0.  1.
        -12    1    3    3    0    0  0.38954330587E+02  0.60150310201E+01  0.11334658974E+02  0.41013351042E+02  0.00000000000E+00 0.  1.
</event>
<event>
 7    1  0.1999542E-015  0.9000777E+02  0.7816164E-02  0.1186339E+00
        -11   -1    0    0    0    0  0.00000000000E+00  0.00000000000E+00  0.45593999997E+02  0.45594000000E+02  0.51100000000E-03 0.  1.
         11   -1    0    0    0    0 -0.00000000000E+00 -0.00000000000E+00 -0.45593999997E+02  0.45594000000E+02  0.51100000000E-03 0. -1.
    9900012    2    1    2    0    0 -0.13309106420E+00  0.11491938259E+01 -0.23362035229E+00  0.90007771992E+02  0.90000033783E+02 0.  0.
         12    1    1    2    0    0  0.13309106420E+00 -0.11491938259E+01  0.23362035229E+00  0.11802280076E+01  0.00000000000E+00 0. -1.
         11    1    3    3    0    0 -0.83507096871E+01  0.91144853853E+01 -0.30428332114E+02  0.32843440618E+02  0.51100000000E-03 0. -1.
        -11    1    3    3    0    0  0.10669505865E+01  0.16172514108E+02 -0.19613264455E+01  0.16325911853E+02  0.51100000000E-03 0.  1.
        -12    1    3    3    0    0  0.71506680364E+01 -0.24137805667E+02  0.32156038208E+02  0.40838419522E+02  0.00000000000E+00 0.  1.
</event>
<event>
 7    1  0.1999542E-015  0.9000773E+02  0.7816164E-02  0.1186339E+00
        -11   -1    0    0    0    0  0.00000000000E+00  0.00000000000E+00  0.45593999997E+02  0.45594000000E+02  0.51100000000E-03 0.  1.
         11   -1    0    0    0    0 -0.00000000000E+00 -0.00000000000E+00 -0.45593999997E+02  0.45594000000E+02  0.51100000000E-03 0. -1.
    9900012    2    1    2    0    0  0.98229394086E+00  0.46591939295E+00  0.45939590043E+00  0.90007734411E+02  0.89999995705E+02 0.  0.
         12    1    1    2    0    0 -0.98229394086E+00 -0.46591939295E+00 -0.45939590043E+00  0.11802655889E+01  0.00000000000E+00 0. -1.
         11    1    3    3    0    0 -0.89546460844E+00 -0.12377799612E+02 -0.43078969531E+00  0.12417622965E+02  0.51100000000E-03 0. -1.
        -11    1    3    3    0    0  0.15874396545E+02 -0.28948243842E+02  0.47187806432E+01  0.33350624855E+02  0.51100000000E-03 0.  1.
         12    1    3    3    0    0 -0.13996637996E+02  0.41791962847E+02 -0.38285950474E+01  0.44239486591E+02  0.00000000000E+00 0. -1.
</event>
<event>
 7    1  0.1999542E-015  0.9000772E+02  0.7816164E-02  0.1186339E+00
        -11   -1    0    0    0    0  0.00000000000E+00  0.00000000000E+00  0.45593999997E+02  0.45594000000E+02  0.51100000000E-03 0.  1.
         11   -1    0    0    0    0 -0.00000000000E+00 -0.00000000000E+00 -0.45593999997E+02  0.45594000000E+02  0.51100000000E-03 0. -1.
    9900012    2    1    2    0    0  0.52337172898E+00 -0.28945424337E+00  0.10175213250E+01  0.90007724027E+02  0.89999985184E+02 0.  0.
         12    1    1    2    0    0 -0.52337172898E+00  0.28945424337E+00 -0.10175213250E+01  0.11802759730E+01  0.00000000000E+00 0. -1.
         11    1    3    3    0    0 -0.86234537475E+01  0.12372152106E+02 -0.31408229314E+02  0.34841225167E+02  0.51100000000E-03 0. -1.
        -11    1    3    3    0    0  0.12863717164E+02 -0.15164763428E+02 -0.24211432603E+01  0.20032653445E+02  0.51100000000E-03 0.  1.
        -12    1    3    3    0    0 -0.37168916879E+01  0.25031570787E+01  0.34846893899E+02  0.35133845414E+02  0.00000000000E+00 0.  1.
</event>
<event>
 7    1  0.1999542E-015  0.9000791E+02  0.7816164E-02  0.1186339E+00
        -11   -1    0    0    0    0  0.00000000000E+00  0.00000000000E+00  0.45593999997E+02  0.45594000000E+02  0.51100000000E-03 0. -1.
         11   -1    0    0    0    0 -0.00000000000E+00 -0.00000000000E+00 -0.45593999997E+02  0.45594000000E+02  0.51100000000E-03 0.  1.
    9900012    2    1    2    0    0 -0.10484596927E+00 -0.92443392822E+00 -0.72598174826E+00  0.90007906672E+02  0.90000170240E+02 0.  0.
         12    1    1    2    0    0  0.10484596927E+00  0.92443392822E+00  0.72598174826E+00  0.11800933284E+01  0.00000000000E+00 0. -1.
         11    1    3    3    0    0  0.25580516197E+02 -0.10782774944E+02  0.11253047696E+02  0.29954334029E+02  0.51100000000E-03 0. -1.
        -11    1    3    3    0    0  0.48002407181E+01 -0.14057967045E+02  0.75494411466E+01  0.16663217285E+02  0.51100000000E-03 0.  1.
        -12    1    3    3    0    0 -0.30485602884E+02  0.23916308061E+02 -0.19528470591E+02  0.43390355358E+02  0.00000000000E+00 0.  1.
</event>
<event>
 7    1  0.1999542E-015  0.9000770E+02  0.7816164E-02  0.1186339E+00
        -11   -1    0    0    0    0  0.00000000000E+00  0.00000000000E+00  0.45593999997E+02  0.45594000000E+02  0.51100000000E-03 0. -1.
         11   -1    0    0    0    0 -0.00000000000E+00 -0.00000000000E+00 -0.45593999997E+02  0.45594000000E+02  0.51100000000E-03 0.  1.
    9900012    2    1    2    0    0  0.42646801434E+00  0.12907963669E+00 -0.10929666694E+01  0.90007698064E+02  0.89999958878E+02 0.  0.
         12    1    1    2    0    0 -0.42646801434E+00 -0.12907963669E+00  0.10929666694E+01  0.11803019361E+01  0.00000000000E+00 0. -1.
         11    1    3    3    0    0  0.35670445000E+02  0.11065480252E+02 -0.40789737427E+01  0.37569449380E+02  0.51100000000E-03 0. -1.
        -11    1    3    3    0    0  0.47677368855E+01 -0.67895328926E+01  0.84510339014E+01  0.11842679012E+02  0.51100000000E-03 0.  1.
        -12    1    3    3    0    0 -0.40011713871E+02 -0.41468677226E+01 -0.54650268281E+01  0.40595569672E+02  0.00000000000E+00 0.  1.
</event>
<event>
 7    1  0.1999542E-015  0.9000777E+02  0.7816164E-02  0.1186339E+00
        -11   -1    0    0    0    0  0.00000000000E+00  0.00000000000E+00  0.45593999997E+02  0.45594000000E+02  0.51100000000E-03 0. -1.
         11   -1    0    0    0    0 -0.00000000000E+00 -0.00000000000E+00 -0.45593999997E+02  0.45594000000E+02  0.51100000000E-03 0.  1.
    9900012    2    1    2    0    0 -0.11429086128E+01  0.13664870478E+00  0.26084597358E+00  0.90007765452E+02  0.90000027156E+02 0.  0.
         12    1    1    2    0    0  0.11429086128E+01 -0.13664870478E+00 -0.26084597358E+00  0.11802345477E+01  0.00000000000E+00 0. -1.
         11    1    3    3    0    0  0.23711951944E+01 -0.29017848023E+02  0.71268608843E+01  0.29974159152E+02  0.51100000000E-03 0. -1.
        -11    1    3    3    0    0  0.62656798630E+01 -0.13913571387E+02 -0.40071635504E+01  0.15776678132E+02  0.51100000000E-03 0.  1.
        -12    1    3    3    0    0 -0.97797836701E+01  0.43068068115E+02 -0.28588513604E+01  0.44256928168E+02  0.00000000000E+00 0.  1.
</event>
<event>
 7    1  0.1999542E-015  0.9000744E+02  0.7816164E-02  0.1186340E+00
        -11   -1    0    0    0    0  0.00000000000E+00  0.00000000000E+00  0.45593999997E+02  0.45594000000E+02  0.51100000000E-03 0. -1.
         11   -1    0    0    0    0 -0.00000000000E+00 -0.00000000000E+00 -0.45593999997E+02  0.45594000000E+02  0.51100000000E-03 0.  1.
    9900012    2    1    2    0    0 -0.47150151563E+00  0.39708179351E+00 -0.10068493898E+01  0.90007435168E+02  0.89999692511E+02 0.  0.
         12    1    1    2    0    0  0.47150151563E+00 -0.39708179351E+00  0.10068493898E+01  0.11805648325E+01  0.00000000000E+00 0. -1.
         11    1    3    3    0    0  0.54165749477E+01  0.85413503986E+01 -0.36256252035E+01  0.10744259359E+02  0.51100000000E-03 0. -1.
        -11    1    3    3    0    0  0.82504366347E+00 -0.41931585215E+02 -0.90268646458E+01  0.42900149432E+02  0.51100000000E-03 0.  1.
         12    1    3    3    0    0 -0.67131201268E+01  0.33787316610E+02  0.11645640460E+02  0.36363026377E+02  0.00000000000E+00 0. -1.
</event>
<event>
 7    1  0.1999542E-015  0.9000789E+02  0.7816164E-02  0.1186339E+00
        -11   -1    0    0    0    0  0.00000000000E+00  0.00000000000E+00  0.45593999997E+02  0.45594000000E+02  0.51100000000E-03 0. -1.
         11   -1    0    0    0    0 -0.00000000000E+00 -0.00000000000E+00 -0.45593999997E+02  0.45594000000E+02  0.51100000000E-03 0.  1.
    9900012    2    1    2    0    0  0.17469561313E+00 -0.80296975792E+00 -0.84698276665E+00  0.90007890346E+02  0.90000153698E+02 0.  0.
         12    1    1    2    0    0 -0.17469561313E+00  0.80296975792E+00  0.84698276665E+00  0.11801096544E+01  0.00000000000E+00 0. -1.
         11    1    3    3    0    0 -0.30095092966E+01 -0.74591444711E+01  0.60619335459E+01  0.10071892624E+02  0.51100000000E-03 0. -1.
        -11    1    3    3    0    0 -0.14430643459E+02 -0.25358586504E+02 -0.25668608060E+02  0.38861019288E+02  0.51100000000E-03 0.  1.
         12    1    3    3    0    0  0.17614848368E+02  0.32014761217E+02  0.18759691748E+02  0.41074978433E+02  0.00000000000E+00 0. -1.
</event>
<event>
 7    1  0.1999542E-015  0.9000764E+02  0.7816164E-02  0.1186339E+00
        -11   -1    0    0    0    0  0.00000000000E+00  0.00000000000E+00  0.45593999997E+02  0.45594000000E+02  0.51100000000E-03 0.  1.
         11   -1    0    0    0    0 -0.00000000000E+00 -0.00000000000E+00 -0.45593999997E+02  0.45594000000E+02  0.51100000000E-03 0. -1.
    9900012    2    1    2    0    0  0.64500876693E+00  0.13949985243E+00  0.97865024778E+00  0.90007638688E+02  0.89999898719E+02 0.  0.
         12    1    1    2    0    0 -0.64500876693E+00 -0.13949985243E+00 -0.97865024778E+00  0.11803613115E+01  0.00000000000E+00 0. -1.
         11    1    3    3    0    0 -0.99132044113E+01 -0.68114643993E+01 -0.40775676668E+02  0.42512627265E+02  0.51100000000E-03 0. -1.
        -11    1    3    3    0    0 -0.42997114869E+01  0.52373986905E+01  0.74429879613E+01  0.10065581651E+02  0.51100000000E-03 0.  1.
        -12    1    3    3    0    0  0.14857924665E+02  0.17135655612E+01  0.34311338954E+02  0.37429429773E+02  0.00000000000E+00 0.  1.
</event>
<event>
 7    1  0.1999542E-015  0.9000806E+02  0.7816164E-02  0.1186338E+00
        -11   -1    0    0    0    0  0.00000000000E+00  0.00000000000E+00  0.45593999997E+02  0.45594000000E+02  0.51100000000E-03 0. -1.
         11   -1    0    0    0    0 -0.00000000000E+00 -0.00000000000E+00 -0.45593999997E+02  0.45594000000E+02  0.51100000000E-03 0.  1.
    9900012    2    1    2    0    0 -0.17180239059E+00 -0.75702488949E+00 -0.88862264529E+00  0.90008062311E+02  0.90000327933E+02 0.  0.
         12    1    1    2    0    0  0.17180239059E+00  0.75702488949E+00  0.88862264529E+00  0.11799376892E+01  0.00000000000E+00 0. -1.
         11    1    3    3    0    0  0.43231769908E+01 -0.67671983454E+00 -0.62375268387E+01  0.76193536703E+01  0.51100000000E-03 0. -1.
        -11    1    3    3    0    0  0.11465047501E+02  0.38655417399E+02  0.25298809139E+01  0.40399120117E+02  0.51100000000E-03 0.  1.
         12    1    3    3    0    0 -0.15960026883E+02 -0.38735722454E+02  0.28190232795E+01  0.41989588524E+02  0.00000000000E+00 0. -1.
</event>
<event>
 7    1  0.1999542E-015  0.9000768E+02  0.7816164E-02  0.1186339E+00
        -11   -1    0    0    0    0  0.00000000000E+00  0.00000000000E+00  0.45593999997E+02  0.45594000000E+02  0.51100000000E-03 0. -1.
         11   -1    0    0    0    0 -0.00000000000E+00 -0.00000000000E+00 -0.45593999997E+02  0.45594000000E+02  0.51100000000E-03 0.  1.
    9900012    2    1    2    0    0 -0.71408948381E+00 -0.42356918778E+00  0.83893535161E+00  0.90007683444E+02  0.89999944066E+02 0.  0.
         12    1    1    2    0    0  0.71408948381E+00  0.42356918778E+00 -0.83893535161E+00  0.11803165558E+01  0.00000000000E+00 0. -1.
         11    1    3    3    0    0 -0.60890637140E+01 -0.90191174866E+00 -0.68114428461E+01  0.91807350263E+01  0.51100000000E-03 0. -1.
        -11    1    3    3    0    0 -0.34190893748E+02 -0.97068588948E+01 -0.90715574151E+01  0.36681514133E+02  0.51100000000E-03 0.  1.
         12    1    3    3    0    0  0.39565867978E+02  0.10185201456E+02  0.16721935613E+02  0.44145434285E+02  0.00000000000E+00 0. -1.
</event>
<event>
 7    1  0.1999542E-015  0.9000772E+02  0.7816164E-02  0.1186339E+00
        -11   -1    0    0    0    0  0.00000000000E+00  0.00000000000E+00  0.45593999997E+02  0.45594000000E+02  0.51100000000E-03 0.  1.
         11   -1    0    0    0    0 -0.00000000000E+00 -0.00000000000E+00 -0.45593999997E+02  0.45594000000E+02  0.51100000000E-03 0. -1.
    9900012    2    1    2    0    0 -0.62614128451E+00 -0.88303911092E+00  0.47037492256E+00  0.90007718869E+02  0.89999979958E+02 0.  0.
         12    1    1    2    0    0  0.62614128451E+00  0.88303911092E+00 -0.47037492256E+00  0.11802811306E+01  0.00000000000E+00 0. -1.
         11    1    3    3    0    0 -0.41390463554E+01 -0.60197180600E+01 -0.83558511301E+01  0.11099052150E+02  0.51100000000E-03 0. -1.
        -11    1    3    3    0    0  0.12759492600E+02 -0.34971588066E+02  0.52181968653E+01  0.37590506808E+02  0.51100000000E-03 0.  1.
         12    1    3    3    0    0 -0.92465875289E+01  0.40108267015E+02  0.36080291873E+01  0.41318159912E+02  0.00000000000E+00 0. -1.
</event>
<event>
 7    1  0.1999542E-015  0.9000769E+02  0.7816164E-02  0.1186339E+00
        -11   -1    0    0    0    0  0.00000000000E+00  0.00000000000E+00  0.45593999997E+02  0.45594000000E+02  0.51100000000E-03 0. -1.
         11   -1    0    0    0    0 -0.00000000000E+00 -0.00000000000E+00 -0.45593999997E+02  0.45594000000E+02  0.51100000000E-03 0.  1.
    9900012    2    1    2    0    0  0.76428152596E+00 -0.17528724521E+00  0.88219896461E+00  0.90007692039E+02  0.89999952774E+02 0.  0.
         12    1    1    2    0    0 -0.76428152596E+00  0.17528724521E+00 -0.88219896461E+00  0.11803079608E+01  0.00000000000E+00 0. -1.
         11    1    3    3    0    0  0.83790354919E+00 -0.41804651828E+01 -0.67638383426E+01  0.79954912850E+01  0.51100000000E-03 0. -1.
        -11    1    3    3    0    0  0.25691897662E+02  0.16670932723E+02 -0.24274255916E+02  0.39079829885E+02  0.51100000000E-03 0.  1.
         12    1    3    3    0    0 -0.25765519685E+02 -0.12665754785E+02  0.31920293224E+02  0.42932370869E+02  0.00000000000E+00 0. -1.
</event>
<event>
 7    1  0.1999542E-015  0.9000769E+02  0.7816164E-02  0.1186339E+00
        -11   -1    0    0    0    0  0.00000000000E+00  0.00000000000E+00  0.45593999997E+02  0.45594000000E+02  0.51100000000E-03 0.  1.
         11   -1    0    0    0    0 -0.00000000000E+00 -0.00000000000E+00 -0.45593999997E+02  0.45594000000E+02  0.51100000000E-03 0. -1.
    9900012    2    1    2    0    0 -0.41732584344E+00  0.60684270336E+00  0.92234363341E+00  0.90007687878E+02  0.89999948558E+02 0.  0.
         12    1    1    2    0    0  0.41732584344E+00 -0.60684270336E+00 -0.92234363341E+00  0.11803121216E+01  0.00000000000E+00 0. -1.
         11    1    3    3    0    0 -0.28500041422E+02  0.12020250784E+02 -0.24290251515E+02  0.39328807621E+02  0.51100000000E-03 0. -1.
        -11    1    3    3    0    0  0.67874195476E+01  0.30333484672E+01 -0.64748037934E+01  0.98586688484E+01  0.51100000000E-03 0.  1.
        -12    1    3    3    0    0  0.21295296031E+02 -0.14446756547E+02  0.31687398941E+02  0.40820211409E+02  0.00000000000E+00 0.  1.
</event>
<event>
 7    1  0.1999542E-015  0.9000668E+02  0.7816164E-02  0.1186341E+00
        -11   -1    0    0    0    0  0.00000000000E+00  0.00000000000E+00  0.45593999997E+02  0.45594000000E+02  0.51100000000E-03 0.  1.
         11   -1    0    0    0    0 -0.00000000000E+00 -0.00000000000E+00 -0.45593999997E+02  0.45594000000E+02  0.51100000000E-03 0. -1.
    9900012    2    1    2    0    0  0.25597046971E+00  0.37308155855E+00  0.10912357675E+01  0.90006684534E+02  0.89998931963E+02 0.  0.
         12    1    1    2    0    0 -0.25597046971E+00 -0.37308155855E+00 -0.10912357675E+01  0.11813154663E+01  0.00000000000E+00 0. -1.
         11    1    3    3    0    0  0.13945942214E+02 -0.99273233220E+01 -0.36032151660E+02  0.39891816280E+02  0.51100000000E-03 0. -1.
        -11    1    3    3    0    0 -0.83093014196E+01 -0.43461987865E+01 -0.49333329535E+00  0.93902775239E+01  0.51100000000E-03 0.  1.
        -12    1    3    3    0    0 -0.53806703248E+01  0.14646603667E+02  0.37616720723E+02  0.40724590730E+02  0.00000000000E+00 0.  1.
</event>
<event>
 7    1  0.1999542E-015  0.9000792E+02  0.7816164E-02  0.1186339E+00
        -11   -1    0    0    0    0  0.00000000000E+00  0.00000000000E+00  0.45593999997E+02  0.45594000000E+02  0.51100000000E-03 0.  1.
         11   -1    0    0    0    0 -0.00000000000E+00 -0.00000000000E+00 -0.45593999997E+02  0.45594000000E+02  0.51100000000E-03 0. -1.
    9900012    2    1    2    0    0 -0.43251386585E+00  0.95348506435E-01  0.10938154270E+01  0.90007918744E+02  0.90000182471E+02 0.  0.
         12    1    1    2    0    0  0.43251386585E+00 -0.95348506435E-01 -0.10938154270E+01  0.11800812557E+01  0.00000000000E+00 0. -1.
         11    1    3    3    0    0 -0.28379308134E+02 -0.22482549741E+02 -0.13222834040E+02  0.38544695009E+02  0.51100000000E-03 0. -1.
        -11    1    3    3    0    0 -0.52624397832E+00  0.75252664724E+01 -0.89693427513E+01  0.11719883867E+02  0.51100000000E-03 0.  1.
        -12    1    3    3    0    0  0.28473038246E+02  0.15052631775E+02  0.23285992218E+02  0.39743339869E+02  0.00000000000E+00 0.  1.
</event>
<event>
 7    1  0.1999542E-015  0.9000750E+02  0.7816164E-02  0.1186340E+00
        -11   -1    0    0    0    0  0.00000000000E+00  0.00000000000E+00  0.45593999997E+02  0.45594000000E+02  0.51100000000E-03 0.  1.
         11   -1    0    0    0    0 -0.00000000000E+00 -0.00000000000E+00 -0.45593999997E+02  0.45594000000E+02  0.51100000000E-03 0. -1.
    9900012    2    1    2    0    0  0.78816293124E+00  0.86773535813E+00 -0.13936827282E+00  0.90007496305E+02  0.89999754456E+02 0.  0.
         12    1    1    2    0    0 -0.78816293124E+00 -0.86773535813E+00  0.13936827282E+00  0.11805036948E+01  0.00000000000E+00 0. -1.
         11    1    3    3    0    0 -0.11931436003E+02 -0.30669157245E+02 -0.12563744809E+02  0.35225048689E+02  0.51100000000E-03 0. -1.
        -11    1    3    3    0    0  0.78622798722E+01 -0.92402045786E+01  0.46182499923E+01  0.12981720175E+02  0.51100000000E-03 0.  1.
        -12    1    3    3    0    0  0.48573190620E+01  0.40777097182E+02  0.78061265439E+01  0.41800727442E+02  0.00000000000E+00 0.  1.
</event>
<event>
 7    1  0.1999542E-015  0.9000776E+02  0.7816164E-02  0.1186339E+00
        -11   -1    0    0    0    0  0.00000000000E+00  0.00000000000E+00  0.45593999997E+02  0.45594000000E+02  0.51100000000E-03 0. -1.
         11   -1    0    0    0    0 -0.00000000000E+00 -0.00000000000E+00 -0.45593999997E+02  0.45594000000E+02  0.51100000000E-03 0.  1.
    9900012    2    1    2    0    0 -0.83291519707E+00 -0.74721690379E+00 -0.37535902658E+00  0.90007756285E+02  0.90000017868E+02 0.  0.
         12    1    1    2    0    0  0.83291519707E+00  0.74721690379E+00  0.37535902658E+00  0.11802437145E+01  0.00000000000E+00 0. -1.
         11    1    3    3    0    0 -0.93591201503E+01  0.21210131319E+01 -0.52732184421E+01  0.10949824642E+02  0.51100000000E-03 0. -1.
        -11    1    3    3    0    0  0.83297476958E+01  0.16465057947E+02 -0.32263735751E+02  0.37167613251E+02  0.51100000000E-03 0.  1.
         12    1    3    3    0    0  0.19645725737E+00 -0.19333287983E+02  0.37161595167E+02  0.41890318392E+02  0.00000000000E+00 0. -1.
</event>
<event>
 7    1  0.1999542E-015  0.9000775E+02  0.7816164E-02  0.1186339E+00
        -11   -1    0    0    0    0  0.00000000000E+00  0.00000000000E+00  0.45593999997E+02  0.45594000000E+02  0.51100000000E-03 0. -1.
         11   -1    0    0    0    0 -0.00000000000E+00 -0.00000000000E+00 -0.45593999997E+02  0.45594000000E+02  0.51100000000E-03 0.  1.
    9900012    2    1    2    0    0 -0.10801327552E+00  0.11060901099E+01  0.39736181138E+00  0.90007746380E+02  0.90000007832E+02 0.  0.
         12    1    1    2    0    0  0.10801327552E+00 -0.11060901099E+01 -0.39736181138E+00  0.11802536203E+01  0.00000000000E+00 0. -1.
         11    1    3    3    0    0  0.12935452995E+02  0.50348540406E+00  0.11990000925E+01  0.13000655492E+02  0.51100000000E-03 0. -1.
        -11    1    3    3    0    0 -0.22752962420E+02 -0.29797641044E+02  0.16206975509E+02  0.40844372514E+02  0.51100000000E-03 0.  1.
         12    1    3    3    0    0  0.97094961492E+01  0.30400245749E+02 -0.17008613790E+02  0.36162718374E+02  0.00000000000E+00 0. -1.
</event>
<event>
 7    1  0.1999542E-015  0.9000780E+02  0.7816164E-02  0.1186339E+00
        -11   -1    0    0    0    0  0.00000000000E+00  0.00000000000E+00  0.45593999997E+02  0.45594000000E+02  0.51100000000E-03 0.  1.
         11   -1    0    0    0    0 -0.00000000000E+00 -0.00000000000E+00 -0.45593999997E+02  0.45594000000E+02  0.51100000000E-03 0. -1.
    9900012    2    1    2    0    0  0.11145482165E+01 -0.10871667972E+00  0.37261810343E+00  0.90007796079E+02  0.90000058188E+02 0.  0.
         12    1    1    2    0    0 -0.11145482165E+01  0.10871667972E+00 -0.37261810343E+00  0.11802039207E+01  0.00000000000E+00 0. -1.
         11    1    3    3    0    0  0.13282559220E+02 -0.26782863402E+02 -0.21878987939E+02  0.37046433903E+02  0.51100000000E-03 0. -1.
        -11    1    3    3    0    0  0.10390553574E+02  0.19475389208E+00 -0.19647480165E+01  0.10576472365E+02  0.51100000000E-03 0.  1.
        -12    1    3    3    0    0 -0.22558564577E+02  0.26479392830E+02  0.24216354059E+02  0.42384889812E+02  0.00000000000E+00 0.  1.
</event>
<event>
 7    1  0.1999542E-015  0.9000773E+02  0.7816164E-02  0.1186339E+00
        -11   -1    0    0    0    0  0.00000000000E+00  0.00000000000E+00  0.45593999997E+02  0.45594000000E+02  0.51100000000E-03 0.  1.
         11   -1    0    0    0    0 -0.00000000000E+00 -0.00000000000E+00 -0.45593999997E+02  0.45594000000E+02  0.51100000000E-03 0. -1.
    9900012    2    1    2    0    0  0.11079204362E+01 -0.20703626984E-02  0.40686076477E+00  0.90007734072E+02  0.89999995362E+02 0.  0.
         12    1    1    2    0    0 -0.11079204362E+01  0.20703626984E-02 -0.40686076477E+00  0.11802659282E+01  0.00000000000E+00 0. -1.
         11    1    3    3    0    0  0.29513700911E+02  0.26214836238E+02 -0.10207368303E+02  0.40773355864E+02  0.51100000000E-03 0. -1.
        -11    1    3    3    0    0  0.42299597059E+01 -0.10621077410E+02  0.55583648869E+01  0.12712012623E+02  0.51100000000E-03 0.  1.
        -12    1    3    3    0    0 -0.32635740181E+02 -0.15595829191E+02  0.50558641811E+01  0.36522365585E+02  0.00000000000E+00 0.  1.
</event>
<event>
 7    1  0.1999542E-015  0.9000774E+02  0.7816164E-02  0.1186339E+00
        -11   -1    0    0    0    0  0.00000000000E+00  0.00000000000E+00  0.45593999997E+02  0.45594000000E+02  0.51100000000E-03 0.  1.
         11   -1    0    0    0    0 -0.00000000000E+00 -0.00000000000E+00 -0.45593999997E+02  0.45594000000E+02  0.51100000000E-03 0. -1.
    9900012    2    1    2    0    0  0.83327405202E-01  0.10157273156E+01 -0.59529653632E+00  0.90007735876E+02  0.89999997190E+02 0.  0.
         12    1    1    2    0    0 -0.83327405202E-01 -0.10157273156E+01  0.59529653632E+00  0.11802641239E+01  0.00000000000E+00 0. -1.
         11    1    3    3    0    0  0.80068249107E+01 -0.19916967529E+01  0.45738853630E+01  0.94337971507E+01  0.51100000000E-03 0. -1.
        -11    1    3    3    0    0  0.25525616424E+02  0.17631719733E+02  0.19381923472E+02  0.36579961623E+02  0.51100000000E-03 0.  1.
         12    1    3    3    0    0 -0.33449113929E+02 -0.14624295665E+02 -0.24551105372E+02  0.43993977103E+02  0.00000000000E+00 0. -1.
</event>
<event>
 7    1  0.1999542E-015  0.9000774E+02  0.7816164E-02  0.1186339E+00
        -11   -1    0    0    0    0  0.00000000000E+00  0.00000000000E+00  0.45593999997E+02  0.45594000000E+02  0.51100000000E-03 0.  1.
         11   -1    0    0    0    0 -0.00000000000E+00 -0.00000000000E+00 -0.45593999997E+02  0.45594000000E+02  0.51100000000E-03 0. -1.
    9900012    2    1    2    0    0 -0.35561253248E+00  0.22584895371E+00  0.11025204551E+01  0.90007737581E+02  0.89999998917E+02 0.  0.
         12    1    1    2    0    0  0.35561253248E+00 -0.22584895371E+00 -0.11025204551E+01  0.11802624187E+01  0.00000000000E+00 0. -1.
         11    1    3    3    0    0  0.55083883008E+01  0.19957466997E+02 -0.26028135504E+02  0.33258181981E+02  0.51100000000E-03 0. -1.
        -11    1    3    3    0    0  0.75431829751E+01 -0.25854522482E+00 -0.10123070889E+02  0.12627074859E+02  0.51100000000E-03 0.  1.
        -12    1    3    3    0    0 -0.13407183808E+02 -0.19473072819E+02  0.37253726848E+02  0.44122480741E+02  0.00000000000E+00 0.  1.
</event>
<event>
 7    1  0.1999542E-015  0.9000775E+02  0.7816164E-02  0.1186339E+00
        -11   -1    0    0    0    0  0.00000000000E+00  0.00000000000E+00  0.45593999997E+02  0.45594000000E+02  0.51100000000E-03 0. -1.
         11   -1    0    0    0    0 -0.00000000000E+00 -0.00000000000E+00 -0.45593999997E+02  0.45594000000E+02  0.51100000000E-03 0.  1.
    9900012    2    1    2    0    0 -0.91858986164E+00  0.63080581011E+00 -0.38894041085E+00  0.90007746660E+02  0.90000008116E+02 0.  0.
         12    1    1    2    0    0  0.91858986164E+00 -0.63080581011E+00  0.38894041085E+00  0.11802533403E+01  0.00000000000E+00 0. -1.
         11    1    3    3    0    0  0.48889423699E+01  0.95461164561E+01 -0.49179402911E+01  0.11798992917E+02  0.51100000000E-03 0. -1.
        -11    1    3    3    0    0  0.21016642213E+02 -0.39621381956E+01 -0.28334259380E+02  0.35499690757E+02  0.51100000000E-03 0.  1.
         12    1    3    3    0    0 -0.26824174444E+02 -0.49531724504E+01  0.32863259260E+02  0.42709062986E+02  0.00000000000E+00 0. -1.
</event>
<event>
 7    1  0.1999542E-015  0.9000769E+02  0.7816164E-02  0.1186339E+00
        -11   -1    0    0    0    0  0.00000000000E+00  0.00000000000E+00  0.45593999997E+02  0.45594000000E+02  0.51100000000E-03 0. -1.
         11   -1    0    0    0    0 -0.00000000000E+00 -0.00000000000E+00 -0.45593999997E+02  0.45594000000E+02  0.51100000000E-03 0.  1.
    9900012    2    1    2    0    0 -0.90498018249E+00 -0.36263999938E+00  0.66530344491E+00  0.90007692594E+02  0.89999953336E+02 0.  0.
         12    1    1    2    0    0  0.90498018249E+00  0.36263999938E+00 -0.66530344491E+00  0.11803074064E+01  0.00000000000E+00 0. -1.
         11    1    3    3    0    0 -0.12367078531E+02 -0.21308215853E+02  0.33106354707E+02  0.41267607351E+02  0.51100000000E-03 0. -1.
        -11    1    3    3    0    0 -0.69290618087E+01 -0.17547215049E+01 -0.68870416448E+01  0.99258394096E+01  0.51100000000E-03 0.  1.
        -12    1    3    3    0    0  0.18391160157E+02  0.22700297359E+02 -0.25554009617E+02  0.38814245833E+02  0.00000000000E+00 0.  1.
</event>
<event>
 7    1  0.1999542E-015  0.9000781E+02  0.7816164E-02  0.1186339E+00
        -11   -1    0    0    0    0  0.00000000000E+00  0.00000000000E+00  0.45593999997E+02  0.45594000000E+02  0.51100000000E-03 0.  1.
         11   -1    0    0    0    0 -0.00000000000E+00 -0.00000000000E+00 -0.45593999997E+02  0.45594000000E+02  0.51100000000E-03 0. -1.
    9900012    2    1    2    0    0  0.11001958449E+01 -0.42657326007E+00  0.21290449325E-01  0.90007809792E+02  0.90000072081E+02 0.  0.
         12    1    1    2    0    0 -0.11001958449E+01  0.42657326007E+00 -0.21290449325E-01  0.11801902078E+01  0.00000000000E+00 0. -1.
         11    1    3    3    0    0  0.14691486319E+01  0.16492384701E+01 -0.10113535953E+02  0.10351907794E+02  0.51100000000E-03 0. -1.
        -11    1    3    3    0    0  0.26246556810E+01 -0.31116486349E+02 -0.20486771591E+02  0.37347454406E+02  0.51100000000E-03 0.  1.
         12    1    3    3    0    0 -0.29936084679E+01  0.29040674618E+02  0.30621597994E+02  0.42308447592E+02  0.00000000000E+00 0. -1.
</event>
<event>
 7    1  0.1999542E-015  0.9000779E+02  0.7816164E-02  0.1186339E+00
        -11   -1    0    0    0    0  0.00000000000E+00  0.00000000000E+00  0.45593999997E+02  0.45594000000E+02  0.51100000000E-03 0.  1.
         11   -1    0    0    0    0 -0.00000000000E+00 -0.00000000000E+00 -0.45593999997E+02  0.45594000000E+02  0.51100000000E-03 0. -1.
    9900012    2    1    2    0    0 -0.15337945250E+00  0.87488604701E+00  0.77714091558E+00  0.90007788640E+02  0.90000050650E+02 0.  0.
         12    1    1    2    0    0  0.15337945250E+00 -0.87488604701E+00 -0.77714091558E+00  0.11802113600E+01  0.00000000000E+00 0. -1.
         11    1    3    3    0    0  0.22344287779E+02 -0.22258271654E+02 -0.18733041220E+02  0.36682757353E+02  0.51100000000E-03 0. -1.
        -11    1    3    3    0    0  0.12960438520E+00 -0.50776343611E+01 -0.68828585457E+01  0.85541165542E+01  0.51100000000E-03 0.  1.
        -12    1    3    3    0    0 -0.22627271617E+02  0.28210792063E+02  0.26393040681E+02  0.44770914733E+02  0.00000000000E+00 0.  1.
</event>
<event>
 7    1  0.1999542E-015  0.9000767E+02  0.7816164E-02  0.1186339E+00
        -11   -1    0    0    0    0  0.00000000000E+00  0.00000000000E+00  0.45593999997E+02  0.45594000000E+02  0.51100000000E-03 0. -1.
         11   -1    0    0    0    0 -0.00000000000E+00 -0.00000000000E+00 -0.45593999997E+02  0.45594000000E+02  0.51100000000E-03 0.  1.
    9900012    2    1    2    0    0  0.24234624239E+00 -0.11343774988E+01 -0.21824101825E+00  0.90007672438E+02  0.89999932914E+02 0.  0.
         12    1    1    2    0    0 -0.24234624239E+00  0.11343774988E+01  0.21824101825E+00  0.11803275617E+01  0.00000000000E+00 0. -1.
         11    1    3    3    0    0  0.18052954500E+01  0.15373429729E+02  0.19846471741E+00  0.15480336618E+02  0.51100000000E-03 0. -1.
        -11    1    3    3    0    0 -0.18991248204E+02  0.19617128714E+02 -0.15827178724E+02  0.31559449202E+02  0.51100000000E-03 0.  1.
         12    1    3    3    0    0  0.17428298996E+02 -0.36124935942E+02  0.15410472989E+02  0.42967886618E+02  0.00000000000E+00 0. -1.
</event>
<event>
 7    1  0.1999542E-015  0.9000757E+02  0.7816164E-02  0.1186339E+00
        -11   -1    0    0    0    0  0.00000000000E+00  0.00000000000E+00  0.45593999997E+02  0.45594000000E+02  0.51100000000E-03 0. -1.
         11   -1    0    0    0    0 -0.00000000000E+00 -0.00000000000E+00 -0.45593999997E+02  0.45594000000E+02  0.51100000000E-03 0.  1.
    9900012    2    1    2    0    0 -0.69052602502E+00  0.13626005963E+00 -0.94764579364E+00  0.90007565527E+02  0.89999824592E+02 0.  0.
         12    1    1    2    0    0  0.69052602502E+00 -0.13626005963E+00  0.94764579364E+00  0.11804344731E+01  0.00000000000E+00 0. -1.
         11    1    3    3    0    0 -0.92016962687E+01  0.20373690151E+01  0.29164254366E+01  0.98654763855E+01  0.51100000000E-03 0. -1.
        -11    1    3    3    0    0  0.90315362046E+01 -0.37663920741E+02 -0.16650052274E+02  0.42158792829E+02  0.51100000000E-03 0.  1.
         12    1    3    3    0    0 -0.52036596098E+00  0.35762811786E+02  0.12785981043E+02  0.37983296313E+02  0.00000000000E+00 0. -1.
</event>
<event>
 7    1  0.1999542E-015  0.9000759E+02  0.7816164E-02  0.1186339E+00
        -11   -1    0    0    0    0  0.00000000000E+00  0.00000000000E+00  0.45593999997E+02  0.45594000000E+02  0.51100000000E-03 0.  1.
         11   -1    0    0    0    0 -0.00000000000E+00 -0.00000000000E+00 -0.45593999997E+02  0.45594000000E+02  0.51100000000E-03 0. -1.
    9900012    2    1    2    0    0  0.10938393159E+01 -0.42501569468E+00  0.12741944596E+00  0.90007593924E+02  0.89999853363E+02 0.  0.
         12    1    1    2    0    0 -0.10938393159E+01  0.42501569468E+00 -0.12741944596E+00  0.11804060763E+01  0.00000000000E+00 0. -1.
         11    1    3    3    0    0 -0.35143883159E+01 -0.84157135857E+01  0.15417227392E+01  0.92494361805E+01  0.51100000000E-03 0. -1.
        -11    1    3    3    0    0  0.38789802650E+02  0.19159429729E+02 -0.85416021869E+01  0.44098656503E+02  0.51100000000E-03 0.  1.
         12    1    3    3    0    0 -0.34181575019E+02 -0.11168731838E+02  0.71272988937E+01  0.36659501240E+02  0.00000000000E+00 0. -1.
</event>
<event>
 7    1  0.1999542E-015  0.9000788E+02  0.7816164E-02  0.1186339E+00
        -11   -1    0    0    0    0  0.00000000000E+00  0.00000000000E+00  0.45593999997E+02  0.45594000000E+02  0.51100000000E-03 0. -1.
         11   -1    0    0    0    0 -0.00000000000E+00 -0.00000000000E+00 -0.45593999997E+02  0.45594000000E+02  0.51100000000E-03 0.  1.
    9900012    2    1    2    0    0  0.67757333900E+00  0.83803564711E+00 -0.48091036229E+00  0.90007879603E+02  0.90000142813E+02 0.  0.
         12    1    1    2    0    0 -0.67757333900E+00 -0.83803564711E+00  0.48091036229E+00  0.11801203973E+01  0.00000000000E+00 0. -1.
         11    1    3    3    0    0 -0.13111629375E+02  0.26813066582E+01  0.28672351597E+01  0.13686682140E+02  0.51100000000E-03 0. -1.
        -11    1    3    3    0    0 -0.27063214093E+02 -0.73448400869E+01 -0.17126163965E+02  0.32858328097E+02  0.51100000000E-03 0.  1.
         12    1    3    3    0    0  0.40852416807E+02  0.55015690758E+01  0.13778018443E+02  0.43462869366E+02  0.00000000000E+00 0. -1.
</event>
<event>
 7    1  0.1999542E-015  0.9000778E+02  0.7816164E-02  0.1186339E+00
        -11   -1    0    0    0    0  0.00000000000E+00  0.00000000000E+00  0.45593999997E+02  0.45594000000E+02  0.51100000000E-03 0.  1.
         11   -1    0    0    0    0 -0.00000000000E+00 -0.00000000000E+00 -0.45593999997E+02  0.45594000000E+02  0.51100000000E-03 0. -1.
    9900012    2    1    2    0    0  0.46841263086E+00 -0.38016219555E+00  0.10143907986E+01  0.90007778673E+02  0.90000040552E+02 0.  0.
         12    1    1    2    0    0 -0.46841263086E+00  0.38016219555E+00 -0.10143907986E+01  0.11802213267E+01  0.00000000000E+00 0. -1.
         11    1    3    3    0    0 -0.35724699463E+02 -0.70603510707E+01  0.34940621702E+01  0.36582935635E+02  0.51100000000E-03 0. -1.
        -11    1    3    3    0    0 -0.61796990208E+01 -0.65122930197E+01 -0.19550950268E-01  0.89776958549E+01  0.51100000000E-03 0.  1.
        -12    1    3    3    0    0  0.42372811114E+02  0.13192481895E+02 -0.24601204214E+01  0.44447147184E+02  0.00000000000E+00 0.  1.
</event>
<event>
 7    1  0.1999542E-015  0.9000776E+02  0.7816164E-02  0.1186339E+00
        -11   -1    0    0    0    0  0.00000000000E+00  0.00000000000E+00  0.45593999997E+02  0.45594000000E+02  0.51100000000E-03 0.  1.
         11   -1    0    0    0    0 -0.00000000000E+00 -0.00000000000E+00 -0.45593999997E+02  0.45594000000E+02  0.51100000000E-03 0. -1.
    9900012    2    1    2    0    0 -0.11374509267E+01 -0.17065719231E+00  0.26466069168E+00  0.90007761139E+02  0.90000022786E+02 0.  0.
         12    1    1    2    0    0  0.11374509267E+01  0.17065719231E+00 -0.26466069168E+00  0.11802388613E+01  0.00000000000E+00 0. -1.
         11    1    3    3    0    0  0.82446905426E+01 -0.30630396712E+02 -0.28524011929E+02  0.42659294200E+02  0.51100000000E-03 0. -1.
        -11    1    3    3    0    0 -0.70616632386E+01  0.65827751022E-01  0.63606417130E+01  0.95041666784E+01  0.51100000000E-03 0.  1.
        -12    1    3    3    0    0 -0.23204782307E+01  0.30393911768E+02  0.22428030908E+02  0.37844300260E+02  0.00000000000E+00 0.  1.
</event>
<event>
 7    1  0.1999542E-015  0.9000771E+02  0.7816164E-02  0.1186339E+00
        -11   -1    0    0    0    0  0.00000000000E+00  0.00000000000E+00  0.45593999997E+02  0.45594000000E+02  0.51100000000E-03 0.  1.
         11   -1    0    0    0    0 -0.00000000000E+00 -0.00000000000E+00 -0.45593999997E+02  0.45594000000E+02  0.51100000000E-03 0. -1.
    9900012    2    1    2    0    0  0.13124354130E+00 -0.69885741840E+00  0.94204426944E+00  0.90007714457E+02  0.89999975487E+02 0.  0.
         12    1    1    2    0    0 -0.13124354130E+00  0.69885741840E+00 -0.94204426944E+00  0.11802855434E+01  0.00000000000E+00 0. -1.
         11    1    3    3    0    0  0.25175185459E+02  0.15738560348E+02 -0.61139096149E+01  0.30312903783E+02  0.51100000000E-03 0. -1.
        -11    1    3    3    0    0 -0.18960159916E+01 -0.15220907150E+02 -0.19262799779E+02  0.24623694822E+02  0.51100000000E-03 0.  1.
        -12    1    3    3    0    0 -0.23147925926E+02 -0.12165106167E+01  0.26318753663E+02  0.35071115852E+02  0.00000000000E+00 0.  1.
</event>
<event>
 7    1  0.1999542E-015  0.9000752E+02  0.7816164E-02  0.1186339E+00
        -11   -1    0    0    0    0  0.00000000000E+00  0.00000000000E+00  0.45593999997E+02  0.45594000000E+02  0.51100000000E-03 0. -1.
         11   -1    0    0    0    0 -0.00000000000E+00 -0.00000000000E+00 -0.45593999997E+02  0.45594000000E+02  0.51100000000E-03 0.  1.
    9900012    2    1    2    0    0 -0.11943152687E+00  0.11279929999E+01  0.32695798444E+00  0.90007519750E+02  0.89999778210E+02 0.  0.
         12    1    1    2    0    0  0.11943152687E+00 -0.11279929999E+01 -0.32695798444E+00  0.11804802502E+01  0.00000000000E+00 0. -1.
         11    1    3    3    0    0  0.14838779469E+02  0.22458102366E+02  0.22280885293E+02  0.34942718665E+02  0.51100000000E-03 0. -1.
        -11    1    3    3    0    0 -0.33070733224E+01  0.38496446135E+01  0.10923629312E+02  0.12045006236E+02  0.51100000000E-03 0.  1.
        -12    1    3    3    0    0 -0.11651137673E+02 -0.25179753979E+02 -0.32877556621E+02  0.43019794849E+02  0.00000000000E+00 0.  1.
</event>
<event>
 7    1  0.1999542E-015  0.9000773E+02  0.7816164E-02  0.1186339E+00
        -11   -1    0    0    0    0  0.00000000000E+00  0.00000000000E+00  0.45593999997E+02  0.45594000000E+02  0.51100000000E-03 0. -1.
         11   -1    0    0    0    0 -0.00000000000E+00 -0.00000000000E+00 -0.45593999997E+02  0.45594000000E+02  0.51100000000E-03 0.  1.
    9900012    2    1    2    0    0  0.16044868912E+00  0.59566490796E+00 -0.10062223277E+01  0.90007727219E+02  0.89999988418E+02 0.  0.
         12    1    1    2    0    0 -0.16044868912E+00 -0.59566490796E+00  0.10062223277E+01  0.11802727808E+01  0.00000000000E+00 0. -1.
         11    1    3    3    0    0  0.10460837525E+02  0.12992761055E+02 -0.60878836162E+01  0.17756781486E+02  0.51100000000E-03 0. -1.
        -11    1    3    3    0    0 -0.18882293367E+02  0.22717019438E+02 -0.12474122463E+02  0.32065678012E+02  0.51100000000E-03 0.  1.
         12    1    3    3    0    0  0.85819045307E+01 -0.35114115584E+02  0.17555783751E+02  0.40185267721E+02  0.00000000000E+00 0. -1.
</event>
<event>
 7    1  0.1999542E-015  0.9000778E+02  0.7816164E-02  0.1186339E+00
        -11   -1    0    0    0    0  0.00000000000E+00  0.00000000000E+00  0.45593999997E+02  0.45594000000E+02  0.51100000000E-03 0.  1.
         11   -1    0    0    0    0 -0.00000000000E+00 -0.00000000000E+00 -0.45593999997E+02  0.45594000000E+02  0.51100000000E-03 0. -1.
    9900012    2    1    2    0    0 -0.67640877968E+00 -0.28428303350E+00  0.92443256342E+00  0.90007779154E+02  0.90000041039E+02 0.  0.
         12    1    1    2    0    0  0.67640877968E+00  0.28428303350E+00 -0.92443256342E+00  0.11802208457E+01  0.00000000000E+00 0. -1.
         11    1    3    3    0    0 -0.37139680705E+02  0.19375847569E+01 -0.47389655247E+01  0.37490904391E+02  0.51100000000E-03 0. -1.
        -11    1    3    3    0    0 -0.18713613945E+01  0.72621675156E+01 -0.77751887081E+01  0.10802528880E+02  0.51100000000E-03 0.  1.
        -12    1    3    3    0    0  0.38334633319E+02 -0.94840353060E+01  0.13438586796E+02  0.41714345884E+02  0.00000000000E+00 0.  1.
</event>
<event>
 7    1  0.2771651E-015  0.9000771E+02  0.7816164E-02  0.1186339E+00
        -11   -1    0    0    0    0  0.00000000000E+00  0.00000000000E+00  0.45593999997E+02  0.45594000000E+02  0.51100000000E-03 0.  1.
         11   -1    0    0    0    0 -0.00000000000E+00 -0.00000000000E+00 -0.45593999997E+02  0.45594000000E+02  0.51100000000E-03 0. -1.
    9900012    2    1    2    0    0  0.10925395236E+01 -0.14334328250E+00  0.42296540119E+00  0.90007707817E+02  0.89999968760E+02 0.  0.
         12    1    1    2    0    0 -0.10925395236E+01  0.14334328250E+00 -0.42296540119E+00  0.11802921833E+01  0.00000000000E+00 0. -1.
         11    1    3    3    0    0  0.99200277080E+01 -0.97065817101E+01 -0.38944414579E+02  0.41343586024E+02  0.51100000000E-03 0. -1.
        -11    1    3    3    0    0 -0.60617211246E+01 -0.63029487908E+01  0.36356166964E+01  0.94704453684E+01  0.51100000000E-03 0.  1.
        -12    1    3    3    0    0 -0.27657670599E+01  0.15866187218E+02  0.35731763283E+02  0.39193676424E+02  0.00000000000E+00 0.  1.
</event>
<event>
 7    1  0.1999542E-015  0.9000773E+02  0.7816164E-02  0.1186339E+00
        -11   -1    0    0    0    0  0.00000000000E+00  0.00000000000E+00  0.45593999997E+02  0.45594000000E+02  0.51100000000E-03 0. -1.
         11   -1    0    0    0    0 -0.00000000000E+00 -0.00000000000E+00 -0.45593999997E+02  0.45594000000E+02  0.51100000000E-03 0.  1.
    9900012    2    1    2    0    0 -0.89151379795E+00 -0.29544574686E+00 -0.71481031936E+00  0.90007729339E+02  0.89999990566E+02 0.  0.
         12    1    1    2    0    0  0.89151379795E+00  0.29544574686E+00  0.71481031936E+00  0.11802706613E+01  0.00000000000E+00 0. -1.
         11    1    3    3    0    0 -0.26227860737E+02  0.24616775066E+02  0.14582196064E+02  0.38814001801E+02  0.51100000000E-03 0. -1.
        -11    1    3    3    0    0  0.63419722004E+01  0.79127671269E+01 -0.71395582033E+01  0.12401846096E+02  0.51100000000E-03 0.  1.
        -12    1    3    3    0    0  0.18994374738E+02 -0.32824987940E+02 -0.81574481803E+01  0.38791881442E+02  0.00000000000E+00 0.  1.
</event>
<event>
 7    1  0.1999542E-015  0.9000742E+02  0.7816164E-02  0.1186340E+00
        -11   -1    0    0    0    0  0.00000000000E+00  0.00000000000E+00  0.45593999997E+02  0.45594000000E+02  0.51100000000E-03 0.  1.
         11   -1    0    0    0    0 -0.00000000000E+00 -0.00000000000E+00 -0.45593999997E+02  0.45594000000E+02  0.51100000000E-03 0. -1.
    9900012    2    1    2    0    0 -0.75214555171E+00 -0.77482589261E+00 -0.47716776190E+00  0.90007420834E+02  0.89999677988E+02 0.  0.
         12    1    1    2    0    0  0.75214555171E+00  0.77482589261E+00  0.47716776190E+00  0.11805791663E+01  0.00000000000E+00 0. -1.
         11    1    3    3    0    0 -0.29529375645E+02  0.46912725543E+01 -0.28601496892E+02  0.41376777169E+02  0.51100000000E-03 0. -1.
        -11    1    3    3    0    0  0.54904046334E+01 -0.24816240216E+01 -0.51372949239E+01  0.79180048130E+01  0.51100000000E-03 0.  1.
        -12    1    3    3    0    0  0.23286825460E+02 -0.29844744253E+01  0.33261624054E+02  0.40712638852E+02  0.00000000000E+00 0.  1.
</event>
<event>
 7    1  0.1999542E-015  0.9000767E+02  0.7816164E-02  0.1186339E+00
        -11   -1    0    0    0    0  0.00000000000E+00  0.00000000000E+00  0.45593999997E+02  0.45594000000E+02  0.51100000000E-03 0. -1.
         11   -1    0    0    0    0 -0.00000000000E+00 -0.00000000000E+00 -0.45593999997E+02  0.45594000000E+02  0.51100000000E-03 0.  1.
    9900012    2    1    2    0    0  0.63374359809E+00  0.99454948198E+00  0.49215682407E-01  0.90007668774E+02  0.89999929202E+02 0.  0.
         12    1    1    2    0    0 -0.63374359809E+00 -0.99454948198E+00 -0.49215682407E-01  0.11803312262E+01  0.00000000000E+00 0. -1.
         11    1    3    3    0    0  0.30526746243E+01  0.15848615066E+02  0.12524450725E+01  0.16188453935E+02  0.51100000000E-03 0. -1.
        -11    1    3    3    0    0  0.62092496102E+01  0.20924669498E+02 -0.22459008834E+02  0.31317784922E+02  0.51100000000E-03 0.  1.
         12    1    3    3    0    0 -0.86281806364E+01 -0.35778735083E+02  0.21255779444E+02  0.42501429917E+02  0.00000000000E+00 0. -1.
</event>
<event>
 7    1  0.1999542E-015  0.9000795E+02  0.7816164E-02  0.1186339E+00
        -11   -1    0    0    0    0  0.00000000000E+00  0.00000000000E+00  0.45593999997E+02  0.45594000000E+02  0.51100000000E-03 0. -1.
         11   -1    0    0    0    0 -0.00000000000E+00 -0.00000000000E+00 -0.45593999997E+02  0.45594000000E+02  0.51100000000E-03 0.  1.
    9900012    2    1    2    0    0  0.98568845316E+00  0.63564613373E+00  0.12999579615E+00  0.90007946340E+02  0.90000210431E+02 0.  0.
         12    1    1    2    0    0 -0.98568845316E+00 -0.63564613373E+00 -0.12999579615E+00  0.11800536602E+01  0.00000000000E+00 0. -1.
         11    1    3    3    0    0 -0.11031173811E+02 -0.50625968199E+00 -0.43617045982E+01  0.11872976113E+02  0.51100000000E-03 0. -1.
        -11    1    3    3    0    0  0.39581422829E+02 -0.16049324498E+02 -0.77688949531E+01  0.43412274521E+02  0.51100000000E-03 0.  1.
         12    1    3    3    0    0 -0.27564560565E+02  0.17191230314E+02  0.12260595347E+02  0.34722695706E+02  0.00000000000E+00 0. -1.
</event>
<event>
 7    1  0.1999542E-015  0.9000776E+02  0.7816164E-02  0.1186339E+00
        -11   -1    0    0    0    0  0.00000000000E+00  0.00000000000E+00  0.45593999997E+02  0.45594000000E+02  0.51100000000E-03 0. -1.
         11   -1    0    0    0    0 -0.00000000000E+00 -0.00000000000E+00 -0.45593999997E+02  0.45594000000E+02  0.51100000000E-03 0.  1.
    9900012    2    1    2    0    0  0.85399596367E+00 -0.45761427087E+00 -0.67397978071E+00  0.90007759062E+02  0.90000020682E+02 0.  0.
         12    1    1    2    0    0 -0.85399596367E+00  0.45761427087E+00  0.67397978071E+00  0.11802409380E+01  0.00000000000E+00 0. -1.
         11    1    3    3    0    0  0.45832804833E+01 -0.95694610226E+01  0.25609020155E+01  0.10915093387E+02  0.51100000000E-03 0. -1.
        -11    1    3    3    0    0 -0.39188652257E+02 -0.43645818019E+01  0.64180238640E+01  0.39949856954E+02  0.51100000000E-03 0.  1.
         12    1    3    3    0    0  0.35459367738E+02  0.13476428554E+02 -0.96529056602E+01  0.39142808721E+02  0.00000000000E+00 0. -1.
</event>
<event>
 7    1  0.1999542E-015  0.9000781E+02  0.7816164E-02  0.1186339E+00
        -11   -1    0    0    0    0  0.00000000000E+00  0.00000000000E+00  0.45593999997E+02  0.45594000000E+02  0.51100000000E-03 0. -1.
         11   -1    0    0    0    0 -0.00000000000E+00 -0.00000000000E+00 -0.45593999997E+02  0.45594000000E+02  0.51100000000E-03 0.  1.
    9900012    2    1    2    0    0 -0.42780392428E+00  0.84650073280E+00  0.70232558432E+00  0.90007813187E+02  0.90000075521E+02 0.  0.
         12    1    1    2    0    0  0.42780392428E+00 -0.84650073280E+00 -0.70232558432E+00  0.11801868135E+01  0.00000000000E+00 0. -1.
         11    1    3    3    0    0 -0.95773596598E+01  0.38937675721E+01 -0.30880983488E+00  0.10343239712E+02  0.51100000000E-03 0. -1.
        -11    1    3    3    0    0 -0.34330593327E+02 -0.82724000605E+01 -0.42022903521E+01  0.35562360515E+02  0.51100000000E-03 0.  1.
         12    1    3    3    0    0  0.43480149062E+02  0.52251332212E+01  0.52134257713E+01  0.44102212960E+02  0.00000000000E+00 0. -1.
</event>
<event>
 7    1  0.1999542E-015  0.9000755E+02  0.7816164E-02  0.1186339E+00
        -11   -1    0    0    0    0  0.00000000000E+00  0.00000000000E+00  0.45593999997E+02  0.45594000000E+02  0.51100000000E-03 0.  1.
         11   -1    0    0    0    0 -0.00000000000E+00 -0.00000000000E+00 -0.45593999997E+02  0.45594000000E+02  0.51100000000E-03 0. -1.
    9900012    2    1    2    0    0 -0.31931622585E+00 -0.65814370868E+00  0.92647177698E+00  0.90007548414E+02  0.89999807253E+02 0.  0.
         12    1    1    2    0    0  0.31931622585E+00  0.65814370868E+00 -0.92647177698E+00  0.11804515860E+01  0.00000000000E+00 0. -1.
         11    1    3    3    0    0 -0.81512905333E+01 -0.36466982479E+01 -0.31823820039E+01  0.94799525816E+01  0.51100000000E-03 0. -1.
        -11    1    3    3    0    0 -0.24662725836E+02 -0.17209380005E+02  0.22997197113E+02  0.37858735863E+02  0.51100000000E-03 0.  1.
         12    1    3    3    0    0  0.32494700143E+02  0.20197934544E+02 -0.18888343332E+02  0.42668859969E+02  0.00000000000E+00 0. -1.
</event>
<event>
 7    1  0.1999542E-015  0.9000770E+02  0.7816164E-02  0.1186339E+00
        -11   -1    0    0    0    0  0.00000000000E+00  0.00000000000E+00  0.45593999997E+02  0.45594000000E+02  0.51100000000E-03 0. -1.
         11   -1    0    0    0    0 -0.00000000000E+00 -0.00000000000E+00 -0.45593999997E+02  0.45594000000E+02  0.51100000000E-03 0.  1.
    9900012    2    1    2    0    0  0.81107563501E+00 -0.75328733770E+00  0.40966928123E+00  0.90007697319E+02  0.89999958124E+02 0.  0.
         12    1    1    2    0    0 -0.81107563501E+00  0.75328733770E+00 -0.40966928123E+00  0.11803026810E+01  0.00000000000E+00 0. -1.
         11    1    3    3    0    0  0.12627419253E+02  0.25957403681E+02 -0.29785794001E+02  0.41478091174E+02  0.51100000000E-03 0. -1.
        -11    1    3    3    0    0  0.25356379166E+01 -0.90532510706E+01 -0.14912710343E+01  0.95191756025E+01  0.51100000000E-03 0.  1.
        -12    1    3    3    0    0 -0.14351981535E+02 -0.17657439948E+02  0.31686734317E+02  0.39010430543E+02  0.00000000000E+00 0.  1.
</event>
<event>
 7    1  0.1999542E-015  0.9000777E+02  0.7816164E-02  0.1186339E+00
        -11   -1    0    0    0    0  0.00000000000E+00  0.00000000000E+00  0.45593999997E+02  0.45594000000E+02  0.51100000000E-03 0.  1.
         11   -1    0    0    0    0 -0.00000000000E+00 -0.00000000000E+00 -0.45593999997E+02  0.45594000000E+02  0.51100000000E-03 0. -1.
    9900012    2    1    2    0    0 -0.85448071855E+00  0.26702897948E+00 -0.76909813470E+00  0.90007765398E+02  0.90000027102E+02 0.  0.
         12    1    1    2    0    0  0.85448071855E+00 -0.26702897948E+00  0.76909813470E+00  0.11802346017E+01  0.00000000000E+00 0. -1.
         11    1    3    3    0    0  0.61387540605E+01 -0.77296545720E+01 -0.27906631664E+02  0.29600877559E+02  0.51100000000E-03 0. -1.
        -11    1    3    3    0    0  0.59541221993E+01 -0.21156946485E+02  0.12791223488E+02  0.25429969609E+02  0.51100000000E-03 0.  1.
        -12    1    3    3    0    0 -0.12947356978E+02  0.29153630037E+02  0.14346310041E+02  0.34976918229E+02  0.00000000000E+00 0.  1.
</event>
<event>
 7    1  0.1999542E-015  0.9000783E+02  0.7816164E-02  0.1186339E+00
        -11   -1    0    0    0    0  0.00000000000E+00  0.00000000000E+00  0.45593999997E+02  0.45594000000E+02  0.51100000000E-03 0.  1.
         11   -1    0    0    0    0 -0.00000000000E+00 -0.00000000000E+00 -0.45593999997E+02  0.45594000000E+02  0.51100000000E-03 0. -1.
    9900012    2    1    2    0    0 -0.45556930218E+00 -0.10825201635E+01 -0.11583666943E+00  0.90007825679E+02  0.90000088178E+02 0.  0.
         12    1    1    2    0    0  0.45556930218E+00  0.10825201635E+01  0.11583666943E+00  0.11801743208E+01  0.00000000000E+00 0. -1.
         11    1    3    3    0    0 -0.10285761130E+02  0.18287822068E+02  0.24798628441E+02  0.32484046712E+02  0.51100000000E-03 0. -1.
        -11    1    3    3    0    0 -0.38161028921E+01 -0.33319791446E+01  0.13111549654E+02  0.14056224987E+02  0.51100000000E-03 0.  1.
        -12    1    3    3    0    0  0.13646294720E+02 -0.16038363087E+02 -0.38026014764E+02  0.43467553979E+02  0.00000000000E+00 0.  1.
</event>
<event>
 7    1  0.1999542E-015  0.9000765E+02  0.7816164E-02  0.1186339E+00
        -11   -1    0    0    0    0  0.00000000000E+00  0.00000000000E+00  0.45593999997E+02  0.45594000000E+02  0.51100000000E-03 0.  1.
         11   -1    0    0    0    0 -0.00000000000E+00 -0.00000000000E+00 -0.45593999997E+02  0.45594000000E+02  0.51100000000E-03 0. -1.
    9900012    2    1    2    0    0 -0.44742076513E+00 -0.20572136052E+00  0.10727170249E+01  0.90007649021E+02  0.89999909188E+02 0.  0.
         12    1    1    2    0    0  0.44742076513E+00  0.20572136052E+00 -0.10727170249E+01  0.11803509794E+01  0.00000000000E+00 0. -1.
         11    1    3    3    0    0  0.44637520294E+01 -0.44937311938E+01 -0.56478608110E+01  0.84862850661E+01  0.51100000000E-03 0. -1.
        -11    1    3    3    0    0 -0.32333936361E+02 -0.85797692715E+01 -0.21789285488E+02  0.39923286986E+02  0.51100000000E-03 0.  1.
         12    1    3    3    0    0  0.27422763567E+02  0.12867779105E+02  0.28509863324E+02  0.41598076969E+02  0.00000000000E+00 0. -1.
</event>
<event>
 7    1  0.1999542E-015  0.9000760E+02  0.7816164E-02  0.1186339E+00
        -11   -1    0    0    0    0  0.00000000000E+00  0.00000000000E+00  0.45593999997E+02  0.45594000000E+02  0.51100000000E-03 0.  1.
         11   -1    0    0    0    0 -0.00000000000E+00 -0.00000000000E+00 -0.45593999997E+02  0.45594000000E+02  0.51100000000E-03 0. -1.
    9900012    2    1    2    0    0  0.64310372692E+00 -0.95264383552E+00  0.26878030855E+00  0.90007595182E+02  0.89999854638E+02 0.  0.
         12    1    1    2    0    0 -0.64310372692E+00  0.95264383552E+00 -0.26878030855E+00  0.11804048184E+01  0.00000000000E+00 0. -1.
         11    1    3    3    0    0  0.40263848476E+02  0.66829953494E+01 -0.10952287480E+02  0.42258638434E+02  0.51100000000E-03 0. -1.
        -11    1    3    3    0    0 -0.71744418275E+00 -0.50692715114E+01  0.67990468066E+01  0.85111266910E+01  0.51100000000E-03 0.  1.
        -12    1    3    3    0    0 -0.38903300567E+02 -0.25663676734E+01  0.44220209823E+01  0.39237830057E+02  0.00000000000E+00 0.  1.
</event>
<event>
 7    1  0.1999542E-015  0.9000781E+02  0.7816164E-02  0.1186339E+00
        -11   -1    0    0    0    0  0.00000000000E+00  0.00000000000E+00  0.45593999997E+02  0.45594000000E+02  0.51100000000E-03 0. -1.
         11   -1    0    0    0    0 -0.00000000000E+00 -0.00000000000E+00 -0.45593999997E+02  0.45594000000E+02  0.51100000000E-03 0.  1.
    9900012    2    1    2    0    0 -0.90575427841E-01  0.80924042988E+00 -0.85426915969E+00  0.90007809431E+02  0.90000071716E+02 0.  0.
         12    1    1    2    0    0  0.90575427841E-01 -0.80924042988E+00  0.85426915969E+00  0.11801905688E+01  0.00000000000E+00 0. -1.
         11    1    3    3    0    0 -0.25364692579E+02  0.26418594166E+02 -0.13328416220E+02  0.38973791534E+02  0.51100000000E-03 0. -1.
        -11    1    3    3    0    0  0.59170022781E+01 -0.42058106781E+01 -0.11443925310E+02  0.13552239157E+02  0.51100000000E-03 0.  1.
        -12    1    3    3    0    0  0.19357114873E+02 -0.21403543058E+02  0.23918072370E+02  0.37481778740E+02  0.00000000000E+00 0.  1.
</event>
<event>
 7    1  0.1999542E-015  0.9000772E+02  0.7816164E-02  0.1186339E+00
        -11   -1    0    0    0    0  0.00000000000E+00  0.00000000000E+00  0.45593999997E+02  0.45594000000E+02  0.51100000000E-03 0. -1.
         11   -1    0    0    0    0 -0.00000000000E+00 -0.00000000000E+00 -0.45593999997E+02  0.45594000000E+02  0.51100000000E-03 0.  1.
    9900012    2    1    2    0    0  0.58789995797E+00 -0.94844331073E+00  0.38455733736E+00  0.90007722312E+02  0.89999983447E+02 0.  0.
         12    1    1    2    0    0 -0.58789995797E+00  0.94844331073E+00 -0.38455733736E+00  0.11802776877E+01  0.00000000000E+00 0. -1.
         11    1    3    3    0    0  0.46457795613E+01 -0.33290803329E-01 -0.23069068690E+01  0.51871182339E+01  0.51100000000E-03 0. -1.
        -11    1    3    3    0    0  0.33947690261E+02 -0.34775266720E+01 -0.20898185176E+02  0.40015909458E+02  0.51100000000E-03 0.  1.
         12    1    3    3    0    0 -0.38005569864E+02  0.25623741646E+01  0.23589649383E+02  0.44804694621E+02  0.00000000000E+00 0. -1.
</event>
<event>
 7    1  0.1999542E-015  0.9000776E+02  0.7816164E-02  0.1186339E+00
        -11   -1    0    0    0    0  0.00000000000E+00  0.00000000000E+00  0.45593999997E+02  0.45594000000E+02  0.51100000000E-03 0.  1.
         11   -1    0    0    0    0 -0.00000000000E+00 -0.00000000000E+00 -0.45593999997E+02  0.45594000000E+02  0.51100000000E-03 0. -1.
    9900012    2    1    2    0    0  0.11125970842E+01 -0.36474268880E+00  0.14852290140E+00  0.90007759112E+02  0.90000020733E+02 0.  0.
         12    1    1    2    0    0 -0.11125970842E+01  0.36474268880E+00 -0.14852290140E+00  0.11802408877E+01  0.00000000000E+00 0. -1.
         11    1    3    3    0    0  0.45082436375E+01 -0.63626925242E+01 -0.58081618677E+01  0.97233153499E+01  0.51100000000E-03 0. -1.
        -11    1    3    3    0    0  0.93887724825E+01 -0.24088745672E+01  0.40955648504E+02  0.42087015457E+02  0.51100000000E-03 0.  1.
         12    1    3    3    0    0 -0.12784419036E+02  0.84068244026E+01 -0.34998963735E+02  0.38197428305E+02  0.00000000000E+00 0. -1.
</event>
<event>
 7    1  0.1999542E-015  0.9000776E+02  0.7816164E-02  0.1186339E+00
        -11   -1    0    0    0    0  0.00000000000E+00  0.00000000000E+00  0.45593999997E+02  0.45594000000E+02  0.51100000000E-03 0.  1.
         11   -1    0    0    0    0 -0.00000000000E+00 -0.00000000000E+00 -0.45593999997E+02  0.45594000000E+02  0.51100000000E-03 0. -1.
    9900012    2    1    2    0    0 -0.52072261766E-01  0.44937164644E+00  0.10900991152E+01  0.90007761686E+02  0.90000023340E+02 0.  0.
         12    1    1    2    0    0  0.52072261766E-01 -0.44937164644E+00 -0.10900991152E+01  0.11802383141E+01  0.00000000000E+00 0. -1.
         11    1    3    3    0    0  0.21243677866E+02 -0.18186885678E+02 -0.18654814365E+02  0.33616346607E+02  0.51100000000E-03 0. -1.
        -11    1    3    3    0    0  0.11031761193E+02 -0.28837508207E+01 -0.24478815062E+01  0.11662242406E+02  0.51100000000E-03 0.  1.
        -12    1    3    3    0    0 -0.32327511320E+02  0.21520008145E+02  0.22192794987E+02  0.44729172673E+02  0.00000000000E+00 0.  1.
</event>
<event>
 7    1  0.1999542E-015  0.9000774E+02  0.7816164E-02  0.1186339E+00
        -11   -1    0    0    0    0  0.00000000000E+00  0.00000000000E+00  0.45593999997E+02  0.45594000000E+02  0.51100000000E-03 0. -1.
         11   -1    0    0    0    0 -0.00000000000E+00 -0.00000000000E+00 -0.45593999997E+02  0.45594000000E+02  0.51100000000E-03 0.  1.
    9900012    2    1    2    0    0 -0.37458100686E+00  0.75508488806E+00  0.82617104090E+00  0.90007736170E+02  0.89999997488E+02 0.  0.
         12    1    1    2    0    0  0.37458100686E+00 -0.75508488806E+00 -0.82617104090E+00  0.11802638297E+01  0.00000000000E+00 0. -1.
         11    1    3    3    0    0 -0.69220195625E+01  0.70221438208E+01  0.35829484296E+01  0.10491061833E+02  0.51100000000E-03 0. -1.
        -11    1    3    3    0    0 -0.11462489741E+02 -0.13526828916E+02 -0.36503747542E+02  0.40581859943E+02  0.51100000000E-03 0.  1.
         12    1    3    3    0    0  0.18009928296E+02  0.72597699831E+01  0.33746970153E+02  0.38934814395E+02  0.00000000000E+00 0. -1.
</event>
<event>
 7    1  0.1999542E-015  0.9000787E+02  0.7816164E-02  0.1186339E+00
        -11   -1    0    0    0    0  0.00000000000E+00  0.00000000000E+00  0.45593999997E+02  0.45594000000E+02  0.51100000000E-03 0. -1.
         11   -1    0    0    0    0 -0.00000000000E+00 -0.00000000000E+00 -0.45593999997E+02  0.45594000000E+02  0.51100000000E-03 0.  1.
    9900012    2    1    2    0    0  0.10909206002E+01 -0.44943396130E+00 -0.24549767426E-01  0.90007872324E+02  0.90000135438E+02 0.  0.
         12    1    1    2    0    0 -0.10909206002E+01  0.44943396130E+00  0.24549767426E-01  0.11801276764E+01  0.00000000000E+00 0. -1.
         11    1    3    3    0    0 -0.15910661971E+02  0.35088749339E+02 -0.12866995490E+02  0.40619318898E+02  0.51100000000E-03 0. -1.
        -11    1    3    3    0    0 -0.12989716960E+01  0.15258928349E+01  0.74351787052E+01  0.77004908318E+01  0.51100000000E-03 0.  1.
        -12    1    3    3    0    0  0.18300554268E+02 -0.37064076135E+02  0.54072670177E+01  0.41688062594E+02  0.00000000000E+00 0.  1.
</event>
<event>
 7    1  0.1999542E-015  0.9000790E+02  0.7816164E-02  0.1186339E+00
        -11   -1    0    0    0    0  0.00000000000E+00  0.00000000000E+00  0.45593999997E+02  0.45594000000E+02  0.51100000000E-03 0.  1.
         11   -1    0    0    0    0 -0.00000000000E+00 -0.00000000000E+00 -0.45593999997E+02  0.45594000000E+02  0.51100000000E-03 0. -1.
    9900012    2    1    2    0    0 -0.10873398967E+01  0.25274430776E+00  0.38269593660E+00  0.90007896650E+02  0.90000160086E+02 0.  0.
         12    1    1    2    0    0  0.10873398967E+01 -0.25274430776E+00 -0.38269593660E+00  0.11801033497E+01  0.00000000000E+00 0. -1.
         11    1    3    3    0    0 -0.84152639446E+00 -0.83611447883E+01  0.66991621904E+01  0.10746891791E+02  0.51100000000E-03 0. -1.
        -11    1    3    3    0    0  0.19086963669E+02 -0.30059261931E+02 -0.54059880166E+01  0.36015220624E+02  0.51100000000E-03 0.  1.
         12    1    3    3    0    0 -0.19332777171E+02  0.38673151027E+02 -0.91047823727E+00  0.43245784235E+02  0.00000000000E+00 0. -1.
</event>
<event>
 7    1  0.1999542E-015  0.9000770E+02  0.7816164E-02  0.1186339E+00
        -11   -1    0    0    0    0  0.00000000000E+00  0.00000000000E+00  0.45593999997E+02  0.45594000000E+02  0.51100000000E-03 0. -1.
         11   -1    0    0    0    0 -0.00000000000E+00 -0.00000000000E+00 -0.45593999997E+02  0.45594000000E+02  0.51100000000E-03 0.  1.
    9900012    2    1    2    0    0 -0.93289666901E+00 -0.70655047350E+00 -0.15363883211E+00  0.90007697218E+02  0.89999958021E+02 0.  0.
         12    1    1    2    0    0  0.93289666901E+00  0.70655047350E+00  0.15363883211E+00  0.11803027821E+01  0.00000000000E+00 0. -1.
         11    1    3    3    0    0 -0.37235414120E+02  0.12148953187E+02  0.92139060216E+00  0.39178081744E+02  0.51100000000E-03 0. -1.
        -11    1    3    3    0    0  0.16666866254E+01  0.68418694819E+01  0.72686068928E+01  0.10120359121E+02  0.51100000000E-03 0.  1.
        -12    1    3    3    0    0  0.34635830825E+02 -0.19697373143E+02 -0.83436363271E+01  0.40709256353E+02  0.00000000000E+00 0.  1.
</event>
<event>
 7    1  0.1999542E-015  0.9000786E+02  0.7816164E-02  0.1186339E+00
        -11   -1    0    0    0    0  0.00000000000E+00  0.00000000000E+00  0.45593999997E+02  0.45594000000E+02  0.51100000000E-03 0.  1.
         11   -1    0    0    0    0 -0.00000000000E+00 -0.00000000000E+00 -0.45593999997E+02  0.45594000000E+02  0.51100000000E-03 0. -1.
    9900012    2    1    2    0    0 -0.65318977939E+00 -0.58087250279E+00  0.79288855096E+00  0.90007855091E+02  0.90000117978E+02 0.  0.
         12    1    1    2    0    0  0.65318977939E+00  0.58087250279E+00 -0.79288855096E+00  0.11801449092E+01  0.00000000000E+00 0. -1.
         11    1    3    3    0    0 -0.16148013111E+02 -0.51071803404E+01 -0.38729149186E+02  0.42270422466E+02  0.51100000000E-03 0. -1.
        -11    1    3    3    0    0 -0.52610333916E+01  0.24018523673E+01  0.67661683299E+01  0.89010337192E+01  0.51100000000E-03 0.  1.
        -12    1    3    3    0    0  0.20755856723E+02  0.21244554703E+01  0.32755869408E+02  0.38836398906E+02  0.00000000000E+00 0.  1.
</event>
<event>
 7    1  0.1999542E-015  0.9000767E+02  0.7816164E-02  0.1186339E+00
        -11   -1    0    0    0    0  0.00000000000E+00  0.00000000000E+00  0.45593999997E+02  0.45594000000E+02  0.51100000000E-03 0.  1.
         11   -1    0    0    0    0 -0.00000000000E+00 -0.00000000000E+00 -0.45593999997E+02  0.45594000000E+02  0.51100000000E-03 0. -1.
    9900012    2    1    2    0    0 -0.33156416815E+00  0.24397861261E+00  0.11062151826E+01  0.90007672761E+02  0.89999933241E+02 0.  0.
         12    1    1    2    0    0  0.33156416815E+00 -0.24397861261E+00 -0.11062151826E+01  0.11803272390E+01  0.00000000000E+00 0. -1.
         11    1    3    3    0    0  0.50876288100E+01  0.62915125833E+01 -0.37926544772E+01  0.89359569011E+01  0.51100000000E-03 0. -1.
        -11    1    3    3    0    0 -0.30035830182E+02  0.58612720793E+01 -0.25751555858E+02  0.39995602689E+02  0.51100000000E-03 0.  1.
         12    1    3    3    0    0  0.24616637204E+02 -0.11908806050E+02  0.30650425518E+02  0.41076113170E+02  0.00000000000E+00 0. -1.
</event>
<event>
 7    1  0.1999542E-015  0.9000771E+02  0.7816164E-02  0.1186339E+00
        -11   -1    0    0    0    0  0.00000000000E+00  0.00000000000E+00  0.45593999997E+02  0.45594000000E+02  0.51100000000E-03 0.  1.
         11   -1    0    0    0    0 -0.00000000000E+00 -0.00000000000E+00 -0.45593999997E+02  0.45594000000E+02  0.51100000000E-03 0. -1.
    9900012    2    1    2    0    0  0.13717368170E-01  0.97573743240E+00 -0.66395612579E+00  0.90007707900E+02  0.89999968845E+02 0.  0.
         12    1    1    2    0    0 -0.13717368170E-01 -0.97573743240E+00  0.66395612579E+00  0.11802920995E+01  0.00000000000E+00 0. -1.
         11    1    3    3    0    0 -0.60910338356E+00  0.82749681551E+01  0.40462694129E+01  0.92313813334E+01  0.51100000000E-03 0. -1.
        -11    1    3    3    0    0  0.41289311844E+01 -0.36970125491E+01  0.37681857804E+02  0.38087246977E+02  0.51100000000E-03 0.  1.
         12    1    3    3    0    0 -0.35061104327E+01 -0.36022181736E+01 -0.42392083342E+02  0.42689079590E+02  0.00000000000E+00 0. -1.
</event>
<event>
 7    1  0.1999542E-015  0.9000807E+02  0.7816164E-02  0.1186338E+00
        -11   -1    0    0    0    0  0.00000000000E+00  0.00000000000E+00  0.45593999997E+02  0.45594000000E+02  0.51100000000E-03 0.  1.
         11   -1    0    0    0    0 -0.00000000000E+00 -0.00000000000E+00 -0.45593999997E+02  0.45594000000E+02  0.51100000000E-03 0. -1.
    9900012    2    1    2    0    0 -0.37380860159E+00  0.99748912414E-01  0.11147011902E+01  0.90008067180E+02  0.90000332866E+02 0.  0.
         12    1    1    2    0    0  0.37380860159E+00 -0.99748912414E-01 -0.11147011902E+01  0.11799328200E+01  0.00000000000E+00 0. -1.
         11    1    3    3    0    0  0.82166536253E+01  0.27896687327E+01 -0.12960022808E+01  0.87735551864E+01  0.51100000000E-03 0. -1.
        -11    1    3    3    0    0  0.21607829210E+02 -0.21240268814E+02  0.24936191250E+02  0.39241061871E+02  0.51100000000E-03 0.  1.
         12    1    3    3    0    0 -0.30198291437E+02  0.18550348994E+02 -0.22525487779E+02  0.41993450122E+02  0.00000000000E+00 0. -1.
</event>
<event>
 7    1  0.2083194E-015  0.9000770E+02  0.7816164E-02  0.1186339E+00
        -11   -1    0    0    0    0  0.00000000000E+00  0.00000000000E+00  0.45593999997E+02  0.45594000000E+02  0.51100000000E-03 0.  1.
         11   -1    0    0    0    0 -0.00000000000E+00 -0.00000000000E+00 -0.45593999997E+02  0.45594000000E+02  0.51100000000E-03 0. -1.
    9900012    2    1    2    0    0  0.54409241582E+00  0.80761190248E+00  0.66695589656E+00  0.90007701855E+02  0.89999962720E+02 0.  0.
         12    1    1    2    0    0 -0.54409241582E+00 -0.80761190248E+00 -0.66695589656E+00  0.11802981445E+01  0.00000000000E+00 0. -1.
         11    1    3    3    0    0  0.27075397776E+02  0.23234724512E+02 -0.21051519349E+02  0.41425789734E+02  0.51100000000E-03 0. -1.
        -11    1    3    3    0    0 -0.12396411371E+01  0.39171793288E+01  0.90299027815E+01  0.99206929469E+01  0.51100000000E-03 0.  1.
        -12    1    3    3    0    0 -0.25291664223E+02 -0.26344291938E+02  0.12688572464E+02  0.38661219175E+02  0.00000000000E+00 0.  1.
</event>
<event>
 7    1  0.1999542E-015  0.9000779E+02  0.7816164E-02  0.1186339E+00
        -11   -1    0    0    0    0  0.00000000000E+00  0.00000000000E+00  0.45593999997E+02  0.45594000000E+02  0.51100000000E-03 0.  1.
         11   -1    0    0    0    0 -0.00000000000E+00 -0.00000000000E+00 -0.45593999997E+02  0.45594000000E+02  0.51100000000E-03 0. -1.
    9900012    2    1    2    0    0  0.34697994871E+00 -0.40480910310E+00 -0.10529197920E+01  0.90007785789E+02  0.90000047762E+02 0.  0.
         12    1    1    2    0    0 -0.34697994871E+00  0.40480910310E+00  0.10529197920E+01  0.11802142107E+01  0.00000000000E+00 0. -1.
         11    1    3    3    0    0 -0.32389469196E+02  0.22287627331E+02 -0.95856473443E+01  0.40468514701E+02  0.51100000000E-03 0. -1.
        -11    1    3    3    0    0 -0.14796689790E+01 -0.46122413408E+01 -0.64280929541E+01  0.80487620017E+01  0.51100000000E-03 0.  1.
        -12    1    3    3    0    0  0.34216118123E+02 -0.18080195093E+02  0.14960820506E+02  0.41490509087E+02  0.00000000000E+00 0.  1.
</event>
<event>
 7    1  0.1999542E-015  0.9000775E+02  0.7816164E-02  0.1186339E+00
        -11   -1    0    0    0    0  0.00000000000E+00  0.00000000000E+00  0.45593999997E+02  0.45594000000E+02  0.51100000000E-03 0. -1.
         11   -1    0    0    0    0 -0.00000000000E+00 -0.00000000000E+00 -0.45593999997E+02  0.45594000000E+02  0.51100000000E-03 0.  1.
    9900012    2    1    2    0    0 -0.72339628794E+00 -0.76586249250E+00 -0.53210388676E+00  0.90007753376E+02  0.90000014921E+02 0.  0.
         12    1    1    2    0    0  0.72339628794E+00  0.76586249250E+00  0.53210388676E+00  0.11802466239E+01  0.00000000000E+00 0. -1.
         11    1    3    3    0    0 -0.21100698388E+02  0.11088452006E+02  0.11844893331E+02  0.26617564476E+02  0.51100000000E-03 0.  1.
        -11    1    3    3    0    0  0.29283639350E+02  0.45684161069E+01  0.12595114269E+02  0.32203087787E+02  0.51100000000E-03 0. -1.
         12    1    3    3    0    0 -0.89063372507E+01 -0.16422730606E+02 -0.24972111486E+02  0.31187101113E+02  0.00000000000E+00 0. -1.
</event>
<event>
 7    1  0.1999542E-015  0.9000793E+02  0.7816164E-02  0.1186339E+00
        -11   -1    0    0    0    0  0.00000000000E+00  0.00000000000E+00  0.45593999997E+02  0.45594000000E+02  0.51100000000E-03 0.  1.
         11   -1    0    0    0    0 -0.00000000000E+00 -0.00000000000E+00 -0.45593999997E+02  0.45594000000E+02  0.51100000000E-03 0. -1.
    9900012    2    1    2    0    0  0.64698244312E+00 -0.72152384631E+00  0.67334494461E+00  0.90007925275E+02  0.90000189088E+02 0.  0.
         12    1    1    2    0    0 -0.64698244312E+00  0.72152384631E+00 -0.67334494461E+00  0.11800747251E+01  0.00000000000E+00 0. -1.
         11    1    3    3    0    0 -0.80012091979E+01 -0.56449765572E+01  0.46264084508E+00  0.98030171770E+01  0.51100000000E-03 0. -1.
        -11    1    3    3    0    0  0.36456158184E+02 -0.73418210928E+00 -0.23368852798E+02  0.43309280464E+02  0.51100000000E-03 0.  1.
         12    1    3    3    0    0 -0.27807966543E+02  0.56576348202E+01  0.23579556898E+02  0.36895627634E+02  0.00000000000E+00 0. -1.
</event>
<event>
 7    1  0.1999542E-015  0.9000753E+02  0.7816164E-02  0.1186339E+00
        -11   -1    0    0    0    0  0.00000000000E+00  0.00000000000E+00  0.45593999997E+02  0.45594000000E+02  0.51100000000E-03 0.  1.
         11   -1    0    0    0    0 -0.00000000000E+00 -0.00000000000E+00 -0.45593999997E+02  0.45594000000E+02  0.51100000000E-03 0. -1.
    9900012    2    1    2    0    0  0.37514410334E+00 -0.10922230242E+01 -0.24458412997E+00  0.90007531606E+02  0.89999790223E+02 0.  0.
         12    1    1    2    0    0 -0.37514410334E+00  0.10922230242E+01  0.24458412997E+00  0.11804683941E+01  0.00000000000E+00 0. -1.
         11    1    3    3    0    0  0.53896499467E+01  0.60227108104E+01 -0.53099623602E+01  0.96704225648E+01  0.51100000000E-03 0. -1.
        -11    1    3    3    0    0  0.29001568863E+02 -0.21761148245E+02  0.18793882428E+02  0.40839301982E+02  0.51100000000E-03 0.  1.
         12    1    3    3    0    0 -0.34016074706E+02  0.14646214410E+02 -0.13728504198E+02  0.39497807059E+02  0.00000000000E+00 0. -1.
</event>
<event>
 7    1  0.1999542E-015  0.9000778E+02  0.7816164E-02  0.1186339E+00
        -11   -1    0    0    0    0  0.00000000000E+00  0.00000000000E+00  0.45593999997E+02  0.45594000000E+02  0.51100000000E-03 0.  1.
         11   -1    0    0    0    0 -0.00000000000E+00 -0.00000000000E+00 -0.45593999997E+02  0.45594000000E+02  0.51100000000E-03 0. -1.
    9900012    2    1    2    0    0 -0.20011594250E+00 -0.11240016690E+01  0.29917320060E+00  0.90007775129E+02  0.90000036961E+02 0.  0.
         12    1    1    2    0    0  0.20011594250E+00  0.11240016690E+01 -0.29917320060E+00  0.11802248711E+01  0.00000000000E+00 0. -1.
         11    1    3    3    0    0  0.33699677266E+01  0.13839060726E+02  0.20044211402E+02  0.24589564763E+02  0.51100000000E-03 0. -1.
        -11    1    3    3    0    0 -0.19209454626E+02 -0.26518718476E+02  0.58610189706E+01  0.33265554561E+02  0.51100000000E-03 0.  1.
         12    1    3    3    0    0  0.15639370957E+02  0.11555656081E+02 -0.25606057172E+02  0.32152655804E+02  0.00000000000E+00 0. -1.
</event>
<event>
 7    1  0.1999542E-015  0.9000776E+02  0.7816164E-02  0.1186339E+00
        -11   -1    0    0    0    0  0.00000000000E+00  0.00000000000E+00  0.45593999997E+02  0.45594000000E+02  0.51100000000E-03 0. -1.
         11   -1    0    0    0    0 -0.00000000000E+00 -0.00000000000E+00 -0.45593999997E+02  0.45594000000E+02  0.51100000000E-03 0.  1.
    9900012    2    1    2    0    0  0.22386065453E+00  0.11150751466E+01 -0.31539019863E+00  0.90007755469E+02  0.90000017041E+02 0.  0.
         12    1    1    2    0    0 -0.22386065453E+00 -0.11150751466E+01  0.31539019863E+00  0.11802445308E+01  0.00000000000E+00 0. -1.
         11    1    3    3    0    0  0.64786163777E+01  0.66454145751E+01  0.70879275601E+00  0.93078672357E+01  0.51100000000E-03 0. -1.
        -11    1    3    3    0    0 -0.15384374699E+01  0.37432373876E+02 -0.10632948783E+01  0.37479060822E+02  0.51100000000E-03 0.  1.
         12    1    3    3    0    0 -0.47163182532E+01 -0.42962713305E+02  0.39111923646E-01  0.43220827411E+02  0.00000000000E+00 0. -1.
</event>
<event>
 7    1  0.1999542E-015  0.9000776E+02  0.7816164E-02  0.1186339E+00
        -11   -1    0    0    0    0  0.00000000000E+00  0.00000000000E+00  0.45593999997E+02  0.45594000000E+02  0.51100000000E-03 0. -1.
         11   -1    0    0    0    0 -0.00000000000E+00 -0.00000000000E+00 -0.45593999997E+02  0.45594000000E+02  0.51100000000E-03 0.  1.
    9900012    2    1    2    0    0 -0.11780659677E+01  0.45861823973E-01 -0.54954771678E-01  0.90007761567E+02  0.90000023220E+02 0.  0.
         12    1    1    2    0    0  0.11780659677E+01 -0.45861823973E-01  0.54954771678E-01  0.11802384328E+01  0.00000000000E+00 0. -1.
         11    1    3    3    0    0  0.63078219190E+01  0.24592944461E+01  0.39370133133E+01  0.78317827232E+01  0.51100000000E-03 0. -1.
        -11    1    3    3    0    0  0.32512139752E+02  0.76204431142E+01 -0.18846777994E+02  0.38344640115E+02  0.51100000000E-03 0.  1.
         12    1    3    3    0    0 -0.39998027639E+02 -0.10033875736E+02  0.14854809909E+02  0.43831338729E+02  0.00000000000E+00 0. -1.
</event>
<event>
 7    1  0.1999542E-015  0.9000774E+02  0.7816164E-02  0.1186339E+00
        -11   -1    0    0    0    0  0.00000000000E+00  0.00000000000E+00  0.45593999997E+02  0.45594000000E+02  0.51100000000E-03 0.  1.
         11   -1    0    0    0    0 -0.00000000000E+00 -0.00000000000E+00 -0.45593999997E+02  0.45594000000E+02  0.51100000000E-03 0. -1.
    9900012    2    1    2    0    0 -0.91078391935E+00 -0.71233200926E+00  0.23679296837E+00  0.90007739372E+02  0.90000000732E+02 0.  0.
         12    1    1    2    0    0  0.91078391935E+00  0.71233200926E+00 -0.23679296837E+00  0.11802606276E+01  0.00000000000E+00 0. -1.
         11    1    3    3    0    0 -0.33112948351E+02 -0.97225579160E+01  0.23117514159E+02  0.41538114329E+02  0.51100000000E-03 0. -1.
        -11    1    3    3    0    0  0.42230194417E+01  0.77211041411E+01  0.39834782088E+01  0.96600953031E+01  0.51100000000E-03 0.  1.
        -12    1    3    3    0    0  0.27979144989E+02  0.12891217656E+01 -0.26864199399E+02  0.38809529740E+02  0.00000000000E+00 0.  1.
</event>
<event>
 7    1  0.1999542E-015  0.9000773E+02  0.7816164E-02  0.1186339E+00
        -11   -1    0    0    0    0  0.00000000000E+00  0.00000000000E+00  0.45593999997E+02  0.45594000000E+02  0.51100000000E-03 0. -1.
         11   -1    0    0    0    0 -0.00000000000E+00 -0.00000000000E+00 -0.45593999997E+02  0.45594000000E+02  0.51100000000E-03 0.  1.
    9900012    2    1    2    0    0  0.87736746673E+00  0.77761888122E+00 -0.13631056086E+00  0.90007726572E+02  0.89999987763E+02 0.  0.
         12    1    1    2    0    0 -0.87736746673E+00 -0.77761888122E+00  0.13631056086E+00  0.11802734281E+01  0.00000000000E+00 0. -1.
         11    1    3    3    0    0  0.20367707396E+01 -0.21934755643E+01  0.46010021120E+01  0.54889881392E+01  0.51100000000E-03 0. -1.
        -11    1    3    3    0    0  0.38481404796E+02  0.16447099293E+02 -0.76757719772E+01  0.42546951312E+02  0.51100000000E-03 0.  1.
         12    1    3    3    0    0 -0.39640808069E+02 -0.13476004848E+02  0.29384593043E+01  0.41971787121E+02  0.00000000000E+00 0. -1.
</event>
<event>
 7    1  0.1999542E-015  0.9000769E+02  0.7816164E-02  0.1186339E+00
        -11   -1    0    0    0    0  0.00000000000E+00  0.00000000000E+00  0.45593999997E+02  0.45594000000E+02  0.51100000000E-03 0. -1.
         11   -1    0    0    0    0 -0.00000000000E+00 -0.00000000000E+00 -0.45593999997E+02  0.45594000000E+02  0.51100000000E-03 0.  1.
    9900012    2    1    2    0    0 -0.12967114596E+00 -0.10347698561E+01 -0.55277956711E+00  0.90007691349E+02  0.89999952075E+02 0.  0.
         12    1    1    2    0    0  0.12967114596E+00  0.10347698561E+01  0.55277956711E+00  0.11803086507E+01  0.00000000000E+00 0. -1.
         11    1    3    3    0    0  0.18512954377E+02  0.19436193222E+01  0.31792619082E+02  0.36841250850E+02  0.51100000000E-03 0. -1.
        -11    1    3    3    0    0  0.55360176921E+01  0.63434070756E+01  0.33460689442E+01  0.90599383471E+01  0.51100000000E-03 0.  1.
        -12    1    3    3    0    0 -0.24178643215E+02 -0.93217962538E+01 -0.35691467593E+02  0.44106502152E+02  0.00000000000E+00 0.  1.
</event>
<event>
 7    1  0.1999542E-015  0.9000776E+02  0.7816164E-02  0.1186339E+00
        -11   -1    0    0    0    0  0.00000000000E+00  0.00000000000E+00  0.45593999997E+02  0.45594000000E+02  0.51100000000E-03 0. -1.
         11   -1    0    0    0    0 -0.00000000000E+00 -0.00000000000E+00 -0.45593999997E+02  0.45594000000E+02  0.51100000000E-03 0.  1.
    9900012    2    1    2    0    0 -0.76146818253E+00 -0.44768131160E+00 -0.78275609845E+00  0.90007762965E+02  0.90000024636E+02 0.  0.
         12    1    1    2    0    0  0.76146818253E+00  0.44768131160E+00  0.78275609845E+00  0.11802370353E+01  0.00000000000E+00 0. -1.
         11    1    3    3    0    0  0.30254383275E+02 -0.21315834104E+02 -0.21337041891E+02  0.42719572186E+02  0.51100000000E-03 0. -1.
        -11    1    3    3    0    0 -0.46282813538E+00  0.20362665487E+01  0.95104135400E+01  0.97369685890E+01  0.51100000000E-03 0.  1.
        -12    1    3    3    0    0 -0.30553023322E+02  0.18831886243E+02  0.11043872253E+02  0.37551222189E+02  0.00000000000E+00 0.  1.
</event>
<event>
 7    1  0.1999542E-015  0.9000782E+02  0.7816164E-02  0.1186339E+00
        -11   -1    0    0    0    0  0.00000000000E+00  0.00000000000E+00  0.45593999997E+02  0.45594000000E+02  0.51100000000E-03 0.  1.
         11   -1    0    0    0    0 -0.00000000000E+00 -0.00000000000E+00 -0.45593999997E+02  0.45594000000E+02  0.51100000000E-03 0. -1.
    9900012    2    1    2    0    0 -0.11071531267E+01  0.98106769337E-01  0.39674408166E+00  0.90007822534E+02  0.90000084992E+02 0.  0.
         12    1    1    2    0    0  0.11071531267E+01 -0.98106769337E-01 -0.39674408166E+00  0.11801774656E+01  0.00000000000E+00 0. -1.
         11    1    3    3    0    0  0.41056756994E+02 -0.17257077441E+01 -0.44625260705E+01  0.41334604162E+02  0.51100000000E-03 0. -1.
        -11    1    3    3    0    0 -0.44055571990E+01 -0.59637438797E+01  0.68147991902E+01  0.10070584072E+02  0.51100000000E-03 0.  1.
        -12    1    3    3    0    0 -0.37758352921E+02  0.77875583932E+01 -0.19555290380E+01  0.38602634300E+02  0.00000000000E+00 0.  1.
</event>
<event>
 7    1  0.1999542E-015  0.9000771E+02  0.7816164E-02  0.1186339E+00
        -11   -1    0    0    0    0  0.00000000000E+00  0.00000000000E+00  0.45593999997E+02  0.45594000000E+02  0.51100000000E-03 0.  1.
         11   -1    0    0    0    0 -0.00000000000E+00 -0.00000000000E+00 -0.45593999997E+02  0.45594000000E+02  0.51100000000E-03 0. -1.
    9900012    2    1    2    0    0  0.64029878087E+00  0.94485582142E+00 -0.30058495779E+00  0.90007709202E+02  0.89999970163E+02 0.  0.
         12    1    1    2    0    0 -0.64029878087E+00 -0.94485582142E+00  0.30058495779E+00  0.11802907984E+01  0.00000000000E+00 0. -1.
         11    1    3    3    0    0 -0.10033291666E+01  0.10717447785E+02 -0.35378894069E+02  0.36980217715E+02  0.51100000000E-03 0. -1.
        -11    1    3    3    0    0  0.16277945726E+02 -0.97203141154E+01  0.50460088109E+01  0.19619333035E+02  0.51100000000E-03 0.  1.
        -12    1    3    3    0    0 -0.14634317779E+02 -0.52277848530E-01  0.30032300300E+02  0.33408158452E+02  0.00000000000E+00 0.  1.
</event>
<event>
 7    1  0.1999542E-015  0.9000777E+02  0.7816164E-02  0.1186339E+00
        -11   -1    0    0    0    0  0.00000000000E+00  0.00000000000E+00  0.45593999997E+02  0.45594000000E+02  0.51100000000E-03 0.  1.
         11   -1    0    0    0    0 -0.00000000000E+00 -0.00000000000E+00 -0.45593999997E+02  0.45594000000E+02  0.51100000000E-03 0. -1.
    9900012    2    1    2    0    0  0.16687501596E+00  0.92387365277E+00 -0.71523025579E+00  0.90007769465E+02  0.90000031222E+02 0.  0.
         12    1    1    2    0    0 -0.16687501596E+00 -0.92387365277E+00  0.71523025579E+00  0.11802305351E+01  0.00000000000E+00 0. -1.
         11    1    3    3    0    0  0.14391105752E+02  0.11816754302E+02  0.14002293660E+02  0.23298150893E+02  0.51100000000E-03 0. -1.
        -11    1    3    3    0    0  0.77043929375E+01 -0.29498771189E+02  0.62460219516E+01  0.31121503220E+02  0.51100000000E-03 0.  1.
         12    1    3    3    0    0 -0.21928623674E+02  0.18605890539E+02 -0.20963545868E+02  0.35588115352E+02  0.00000000000E+00 0. -1.
</event>
<event>
 7    1  0.1999542E-015  0.9000768E+02  0.7816164E-02  0.1186339E+00
        -11   -1    0    0    0    0  0.00000000000E+00  0.00000000000E+00  0.45593999997E+02  0.45594000000E+02  0.51100000000E-03 0.  1.
         11   -1    0    0    0    0 -0.00000000000E+00 -0.00000000000E+00 -0.45593999997E+02  0.45594000000E+02  0.51100000000E-03 0. -1.
    9900012    2    1    2    0    0 -0.38502553198E+00 -0.79333828054E+00  0.78455180363E+00  0.90007681475E+02  0.89999942071E+02 0.  0.
         12    1    1    2    0    0  0.38502553198E+00  0.79333828054E+00 -0.78455180363E+00  0.11803185249E+01  0.00000000000E+00 0. -1.
         11    1    3    3    0    0 -0.29408808530E+02  0.10999582088E+02  0.19629663480E+02  0.37029616713E+02  0.51100000000E-03 0. -1.
        -11    1    3    3    0    0 -0.88087120497E+01  0.18616714485E+01 -0.12999488384E+01  0.90966529998E+01  0.51100000000E-03 0.  1.
        -12    1    3    3    0    0  0.37832495048E+02 -0.13654591817E+02 -0.17545162838E+02  0.43881411762E+02  0.00000000000E+00 0.  1.
</event>
<event>
 7    1  0.1999542E-015  0.9000777E+02  0.7816164E-02  0.1186339E+00
        -11   -1    0    0    0    0  0.00000000000E+00  0.00000000000E+00  0.45593999997E+02  0.45594000000E+02  0.51100000000E-03 0. -1.
         11   -1    0    0    0    0 -0.00000000000E+00 -0.00000000000E+00 -0.45593999997E+02  0.45594000000E+02  0.51100000000E-03 0.  1.
    9900012    2    1    2    0    0  0.93103011750E-01 -0.37191866972E+00 -0.11162210800E+01  0.90007770714E+02  0.90000032488E+02 0.  0.
         12    1    1    2    0    0 -0.93103011750E-01  0.37191866972E+00  0.11162210800E+01  0.11802292858E+01  0.00000000000E+00 0. -1.
         11    1    3    3    0    0  0.33943736722E+01  0.44224690065E+01 -0.10300610182E+02  0.11712496537E+02  0.51100000000E-03 0. -1.
        -11    1    3    3    0    0  0.33243859412E+02  0.13753332089E+02 -0.12751902584E+01  0.35999089469E+02  0.51100000000E-03 0.  1.
         12    1    3    3    0    0 -0.36545130072E+02 -0.18547719765E+02  0.10459579360E+02  0.42296184708E+02  0.00000000000E+00 0. -1.
</event>
<event>
 7    1  0.1999542E-015  0.9000771E+02  0.7816164E-02  0.1186339E+00
        -11   -1    0    0    0    0  0.00000000000E+00  0.00000000000E+00  0.45593999997E+02  0.45594000000E+02  0.51100000000E-03 0.  1.
         11   -1    0    0    0    0 -0.00000000000E+00 -0.00000000000E+00 -0.45593999997E+02  0.45594000000E+02  0.51100000000E-03 0. -1.
    9900012    2    1    2    0    0 -0.91998164699E-01 -0.45300057897E+00  0.10860056892E+01  0.90007711246E+02  0.89999972234E+02 0.  0.
         12    1    1    2    0    0  0.91998164699E-01  0.45300057897E+00 -0.10860056892E+01  0.11802887544E+01  0.00000000000E+00 0. -1.
         11    1    3    3    0    0 -0.85964065729E+00  0.91671174843E+01 -0.28209140423E+01  0.96297757671E+01  0.51100000000E-03 0. -1.
        -11    1    3    3    0    0 -0.29282173607E+02  0.89116030501E+01  0.24764971574E+02  0.39372149768E+02  0.51100000000E-03 0.  1.
         12    1    3    3    0    0  0.30049816099E+02 -0.18531721113E+02 -0.20858051843E+02  0.41005785710E+02  0.00000000000E+00 0. -1.
</event>
<event>
 7    1  0.1999542E-015  0.9000772E+02  0.7816164E-02  0.1186339E+00
        -11   -1    0    0    0    0  0.00000000000E+00  0.00000000000E+00  0.45593999997E+02  0.45594000000E+02  0.51100000000E-03 0.  1.
         11   -1    0    0    0    0 -0.00000000000E+00 -0.00000000000E+00 -0.45593999997E+02  0.45594000000E+02  0.51100000000E-03 0. -1.
    9900012    2    1    2    0    0 -0.49793027673E+00 -0.67639220759E+00  0.82923401501E+00  0.90007716123E+02  0.89999977176E+02 0.  0.
         12    1    1    2    0    0  0.49793027673E+00  0.67639220759E+00 -0.82923401501E+00  0.11802838771E+01  0.00000000000E+00 0. -1.
         11    1    3    3    0    0 -0.35803004343E+02 -0.10611332047E+02 -0.21799513987E+02  0.43239730551E+02  0.51100000000E-03 0. -1.
        -11    1    3    3    0    0  0.17909397959E+01  0.70640501946E+01  0.37629516116E+01  0.82017117479E+01  0.51100000000E-03 0.  1.
        -12    1    3    3    0    0  0.33514134270E+02  0.28708896450E+01  0.18865796390E+02  0.38566273824E+02  0.00000000000E+00 0.  1.
</event>
<event>
 7    1  0.1999542E-015  0.9000772E+02  0.7816164E-02  0.1186339E+00
        -11   -1    0    0    0    0  0.00000000000E+00  0.00000000000E+00  0.45593999997E+02  0.45594000000E+02  0.51100000000E-03 0.  1.
         11   -1    0    0    0    0 -0.00000000000E+00 -0.00000000000E+00 -0.45593999997E+02  0.45594000000E+02  0.51100000000E-03 0. -1.
    9900012    2    1    2    0    0 -0.44912885932E+00  0.40531129052E+00  0.10134452514E+01  0.90007718147E+02  0.89999979227E+02 0.  0.
         12    1    1    2    0    0  0.44912885932E+00 -0.40531129052E+00 -0.10134452514E+01  0.11802818528E+01  0.00000000000E+00 0. -1.
         11    1    3    3    0    0 -0.30501441625E+02  0.19816405831E+02  0.12475182892E+02  0.38453323259E+02  0.51100000000E-03 0. -1.
        -11    1    3    3    0    0 -0.20896917598E+01  0.49218613219E+01 -0.98507611354E+01  0.11208435472E+02  0.51100000000E-03 0.  1.
        -12    1    3    3    0    0  0.32142004525E+02 -0.24332955862E+02 -0.16109765056E+01  0.40345959416E+02  0.00000000000E+00 0.  1.
</event>
<event>
 7    1  0.3572323E-015  0.9000776E+02  0.7816164E-02  0.1186339E+00
        -11   -1    0    0    0    0  0.00000000000E+00  0.00000000000E+00  0.45593999997E+02  0.45594000000E+02  0.51100000000E-03 0. -1.
         11   -1    0    0    0    0 -0.00000000000E+00 -0.00000000000E+00 -0.45593999997E+02  0.45594000000E+02  0.51100000000E-03 0.  1.
    9900012    2    1    2    0    0  0.69883265665E-01  0.39154248515E+00 -0.11112093043E+01  0.90007756251E+02  0.90000017834E+02 0.  0.
         12    1    1    2    0    0 -0.69883265665E-01 -0.39154248515E+00  0.11112093043E+01  0.11802437488E+01  0.00000000000E+00 0. -1.
         11    1    3    3    0    0 -0.84667468728E+01  0.21069354278E+01  0.36979487554E+02  0.37994834906E+02  0.51100000000E-03 0. -1.
        -11    1    3    3    0    0 -0.92810471192E+01 -0.13494033024E+01  0.61778331311E+00  0.93989563987E+01  0.51100000000E-03 0.  1.
        -12    1    3    3    0    0  0.17817677258E+02 -0.36598964026E+00 -0.38708480172E+02  0.42613964947E+02  0.00000000000E+00 0.  1.
</event>
<event>
 7    1  0.1999542E-015  0.9000779E+02  0.7816164E-02  0.1186339E+00
        -11   -1    0    0    0    0  0.00000000000E+00  0.00000000000E+00  0.45593999997E+02  0.45594000000E+02  0.51100000000E-03 0.  1.
         11   -1    0    0    0    0 -0.00000000000E+00 -0.00000000000E+00 -0.45593999997E+02  0.45594000000E+02  0.51100000000E-03 0. -1.
    9900012    2    1    2    0    0  0.78115297165E+00  0.30592474205E+00  0.83012405783E+00  0.90007789907E+02  0.90000051933E+02 0.  0.
         12    1    1    2    0    0 -0.78115297165E+00 -0.30592474205E+00 -0.83012405783E+00  0.11802100933E+01  0.00000000000E+00 0. -1.
         11    1    3    3    0    0 -0.13446258054E+02  0.98091800230E+01 -0.30784235815E+02  0.34995586056E+02  0.51100000000E-03 0. -1.
        -11    1    3    3    0    0  0.20626277908E+01  0.54762081421E+01 -0.86032558499E+01  0.10404772967E+02  0.51100000000E-03 0.  1.
        -12    1    3    3    0    0  0.12164783235E+02 -0.14979463423E+02  0.40217615723E+02  0.44607430884E+02  0.00000000000E+00 0.  1.
</event>
<event>
 7    1  0.1999542E-015  0.9000766E+02  0.7816164E-02  0.1186339E+00
        -11   -1    0    0    0    0  0.00000000000E+00  0.00000000000E+00  0.45593999997E+02  0.45594000000E+02  0.51100000000E-03 0. -1.
         11   -1    0    0    0    0 -0.00000000000E+00 -0.00000000000E+00 -0.45593999997E+02  0.45594000000E+02  0.51100000000E-03 0.  1.
    9900012    2    1    2    0    0 -0.39287482546E-01 -0.11795700582E+01 -0.16865173446E-01  0.90007655363E+02  0.89999915614E+02 0.  0.
         12    1    1    2    0    0  0.39287482546E-01  0.11795700582E+01  0.16865173446E-01  0.11803446372E+01  0.00000000000E+00 0. -1.
         11    1    3    3    0    0  0.31501458404E+01  0.64592017471E+01 -0.83256229044E+00  0.72344914303E+01  0.51100000000E-03 0. -1.
        -11    1    3    3    0    0  0.36302824548E+02  0.10867603594E+02 -0.68000479220E+01  0.38499877013E+02  0.51100000000E-03 0.  1.
         12    1    3    3    0    0 -0.39492257871E+02 -0.18506375400E+02  0.76157450390E+01  0.44273286919E+02  0.00000000000E+00 0. -1.
</event>
<event>
 7    1  0.1999542E-015  0.9000775E+02  0.7816164E-02  0.1186339E+00
        -11   -1    0    0    0    0  0.00000000000E+00  0.00000000000E+00  0.45593999997E+02  0.45594000000E+02  0.51100000000E-03 0.  1.
         11   -1    0    0    0    0 -0.00000000000E+00 -0.00000000000E+00 -0.45593999997E+02  0.45594000000E+02  0.51100000000E-03 0. -1.
    9900012    2    1    2    0    0  0.40664961218E-01  0.41458387750E+00  0.11042885160E+01  0.90007751485E+02  0.90000013005E+02 0.  0.
         12    1    1    2    0    0 -0.40664961218E-01 -0.41458387750E+00 -0.11042885160E+01  0.11802485150E+01  0.00000000000E+00 0. -1.
         11    1    3    3    0    0  0.37609041217E+02  0.87449280680E+01  0.34975462584E+01  0.38770434331E+02  0.51100000000E-03 0. -1.
        -11    1    3    3    0    0  0.31207637332E+01 -0.94668005688E+00 -0.88050186435E+01  0.93895539288E+01  0.51100000000E-03 0.  1.
        -12    1    3    3    0    0 -0.40689139989E+02 -0.73836641336E+01  0.64117609011E+01  0.41847763225E+02  0.00000000000E+00 0.  1.
</event>
<event>
 7    1  0.1999542E-015  0.9000773E+02  0.7816164E-02  0.1186339E+00
        -11   -1    0    0    0    0  0.00000000000E+00  0.00000000000E+00  0.45593999997E+02  0.45594000000E+02  0.51100000000E-03 0.  1.
         11   -1    0    0    0    0 -0.00000000000E+00 -0.00000000000E+00 -0.45593999997E+02  0.45594000000E+02  0.51100000000E-03 0. -1.
    9900012    2    1    2    0    0 -0.93459688308E+00  0.54643307775E+00  0.47008151947E+00  0.90007730083E+02  0.89999991320E+02 0.  0.
         12    1    1    2    0    0  0.93459688308E+00 -0.54643307775E+00 -0.47008151947E+00  0.11802699171E+01  0.00000000000E+00 0. -1.
         11    1    3    3    0    0 -0.30984790241E+02 -0.20001481055E+02  0.13787932254E+02  0.39372878314E+02  0.51100000000E-03 0. -1.
        -11    1    3    3    0    0 -0.18928093180E+01 -0.62898968614E+01 -0.45834373142E+01  0.80095834795E+01  0.51100000000E-03 0.  1.
        -12    1    3    3    0    0  0.31943002676E+02  0.26837810994E+02 -0.87344134201E+01  0.42625268289E+02  0.00000000000E+00 0.  1.
</event>
<event>
 7    1  0.1999542E-015  0.9000786E+02  0.7816164E-02  0.1186339E+00
        -11   -1    0    0    0    0  0.00000000000E+00  0.00000000000E+00  0.45593999997E+02  0.45594000000E+02  0.51100000000E-03 0.  1.
         11   -1    0    0    0    0 -0.00000000000E+00 -0.00000000000E+00 -0.45593999997E+02  0.45594000000E+02  0.51100000000E-03 0. -1.
    9900012    2    1    2    0    0 -0.16943697824E+00 -0.11187752450E+01 -0.33519802831E+00  0.90007862442E+02  0.90000125426E+02 0.  0.
         12    1    1    2    0    0  0.16943697824E+00  0.11187752450E+01  0.33519802831E+00  0.11801375583E+01  0.00000000000E+00 0. -1.
         11    1    3    3    0    0 -0.17334019458E+02 -0.87685842983E+01 -0.30076194201E+02  0.35804102544E+02  0.51100000000E-03 0. -1.
        -11    1    3    3    0    0 -0.97054722900E+01  0.46192449671E+01 -0.35453571317E+01  0.11318267265E+02  0.51100000000E-03 0.  1.
        -12    1    3    3    0    0  0.26870054770E+02  0.30305640862E+01  0.33286353304E+02  0.42885492632E+02  0.00000000000E+00 0.  1.
</event>
<event>
 7    1  0.3323587E-015  0.9000771E+02  0.7816164E-02  0.1186339E+00
        -11   -1    0    0    0    0  0.00000000000E+00  0.00000000000E+00  0.45593999997E+02  0.45594000000E+02  0.51100000000E-03 0. -1.
         11   -1    0    0    0    0 -0.00000000000E+00 -0.00000000000E+00 -0.45593999997E+02  0.45594000000E+02  0.51100000000E-03 0.  1.
    9900012    2    1    2    0    0  0.48414171267E-01  0.75010480753E+00 -0.90998862168E+00  0.90007711711E+02  0.89999972705E+02 0.  0.
         12    1    1    2    0    0 -0.48414171267E-01 -0.75010480753E+00  0.90998862168E+00  0.11802882893E+01  0.00000000000E+00 0. -1.
         11    1    3    3    0    0  0.77564913586E+00 -0.18485119365E+02  0.30853319223E+02  0.35975388488E+02  0.51100000000E-03 0. -1.
        -11    1    3    3    0    0 -0.41901065113E+01 -0.63943957128E+01  0.49622457271E+01  0.91142290966E+01  0.51100000000E-03 0.  1.
        -12    1    3    3    0    0  0.34628715467E+01  0.25629619885E+02 -0.36725553572E+02  0.44918094126E+02  0.00000000000E+00 0.  1.
</event>
<event>
 7    1  0.1999542E-015  0.9000818E+02  0.7816164E-02  0.1186338E+00
        -11   -1    0    0    0    0  0.00000000000E+00  0.00000000000E+00  0.45593999997E+02  0.45594000000E+02  0.51100000000E-03 0. -1.
         11   -1    0    0    0    0 -0.00000000000E+00 -0.00000000000E+00 -0.45593999997E+02  0.45594000000E+02  0.51100000000E-03 0.  1.
    9900012    2    1    2    0    0 -0.11776571873E+01  0.65590370939E-01 -0.28374631735E-01  0.90008176425E+02  0.90000443553E+02 0.  0.
         12    1    1    2    0    0  0.11776571873E+01 -0.65590370939E-01  0.28374631735E-01  0.11798235746E+01  0.00000000000E+00 0. -1.
         11    1    3    3    0    0  0.66718080606E+01  0.67152965739E+01 -0.23057945014E+01  0.97429420308E+01  0.51100000000E-03 0. -1.
        -11    1    3    3    0    0 -0.11630700746E+02 -0.27699465337E+01 -0.37891305459E+02  0.39732818089E+02  0.51100000000E-03 0.  1.
         12    1    3    3    0    0  0.37812354978E+01 -0.38797596693E+01  0.40168725329E+02  0.40532416305E+02  0.00000000000E+00 0. -1.
</event>
<event>
 7    1  0.1999542E-015  0.9000779E+02  0.7816164E-02  0.1186339E+00
        -11   -1    0    0    0    0  0.00000000000E+00  0.00000000000E+00  0.45593999997E+02  0.45594000000E+02  0.51100000000E-03 0.  1.
         11   -1    0    0    0    0 -0.00000000000E+00 -0.00000000000E+00 -0.45593999997E+02  0.45594000000E+02  0.51100000000E-03 0. -1.
    9900012    2    1    2    0    0  0.67284559475E+00 -0.92159865420E+00  0.30137493939E+00  0.90007791490E+02  0.90000053537E+02 0.  0.
         12    1    1    2    0    0 -0.67284559475E+00  0.92159865420E+00 -0.30137493939E+00  0.11802085103E+01  0.00000000000E+00 0. -1.
         11    1    3    3    0    0  0.43917003916E+01 -0.72061342819E+01  0.33192000597E+01  0.90682133254E+01  0.51100000000E-03 0. -1.
        -11    1    3    3    0    0 -0.27237373512E+01 -0.17777532544E+02  0.33017287210E+02  0.37597881104E+02  0.51100000000E-03 0.  1.
         12    1    3    3    0    0 -0.99511744565E+00  0.24062068172E+02 -0.36035112330E+02  0.43341697061E+02  0.00000000000E+00 0. -1.
</event>
<event>
 7    1  0.1999542E-015  0.9000765E+02  0.7816164E-02  0.1186339E+00
        -11   -1    0    0    0    0  0.00000000000E+00  0.00000000000E+00  0.45593999997E+02  0.45594000000E+02  0.51100000000E-03 0. -1.
         11   -1    0    0    0    0 -0.00000000000E+00 -0.00000000000E+00 -0.45593999997E+02  0.45594000000E+02  0.51100000000E-03 0.  1.
    9900012    2    1    2    0    0  0.16869294270E-01  0.59224242935E+00 -0.10208767856E+01  0.90007650442E+02  0.89999910628E+02 0.  0.
         12    1    1    2    0    0 -0.16869294270E-01 -0.59224242935E+00  0.10208767856E+01  0.11803495582E+01  0.00000000000E+00 0. -1.
         11    1    3    3    0    0 -0.83198413982E+01 -0.56495986278E+01  0.35861325882E+02  0.37244763656E+02  0.51100000000E-03 0. -1.
        -11    1    3    3    0    0 -0.37797036974E+01 -0.68754527312E+01  0.35132539129E+01  0.85965669669E+01  0.51100000000E-03 0.  1.
        -12    1    3    3    0    0  0.12116414390E+02  0.13117293788E+02 -0.40395456580E+02  0.44166319819E+02  0.00000000000E+00 0.  1.
</event>
<event>
 7    1  0.1999542E-015  0.9000743E+02  0.7816164E-02  0.1186340E+00
        -11   -1    0    0    0    0  0.00000000000E+00  0.00000000000E+00  0.45593999997E+02  0.45594000000E+02  0.51100000000E-03 0.  1.
         11   -1    0    0    0    0 -0.00000000000E+00 -0.00000000000E+00 -0.45593999997E+02  0.45594000000E+02  0.51100000000E-03 0. -1.
    9900012    2    1    2    0    0 -0.23056353967E+00  0.10846659238E+01  0.40508547172E+00  0.90007426431E+02  0.89999683659E+02 0.  0.
         12    1    1    2    0    0  0.23056353967E+00 -0.10846659238E+01 -0.40508547172E+00  0.11805735689E+01  0.00000000000E+00 0. -1.
         11    1    3    3    0    0  0.10020996315E+02 -0.20509304461E+01 -0.79476579447E+00  0.10259548517E+02  0.51100000000E-03 0. -1.
        -11    1    3    3    0    0  0.29394772089E+02  0.39839190298E+01  0.20086616240E+02  0.35824522178E+02  0.51100000000E-03 0.  1.
         12    1    3    3    0    0 -0.39646331944E+02 -0.84832265992E+00 -0.18886764974E+02  0.43923355736E+02  0.00000000000E+00 0. -1.
</event>
<event>
 7    1  0.1999542E-015  0.9000773E+02  0.7816164E-02  0.1186339E+00
        -11   -1    0    0    0    0  0.00000000000E+00  0.00000000000E+00  0.45593999997E+02  0.45594000000E+02  0.51100000000E-03 0.  1.
         11   -1    0    0    0    0 -0.00000000000E+00 -0.00000000000E+00 -0.45593999997E+02  0.45594000000E+02  0.51100000000E-03 0. -1.
    9900012    2    1    2    0    0 -0.43251621654E+00  0.19621879934E+00  0.10804880433E+01  0.90007734561E+02  0.89999995857E+02 0.  0.
         12    1    1    2    0    0  0.43251621654E+00 -0.19621879934E+00 -0.10804880433E+01  0.11802654390E+01  0.00000000000E+00 0. -1.
         11    1    3    3    0    0 -0.39744966705E+01  0.85557612866E+01  0.48399710241E+01  0.10602971034E+02  0.51100000000E-03 0. -1.
        -11    1    3    3    0    0  0.48258506710E+01  0.54152461945E+01  0.36303155680E+02  0.37020708241E+02  0.51100000000E-03 0.  1.
         12    1    3    3    0    0 -0.12838702171E+01 -0.13774788682E+02 -0.40062638661E+02  0.42384055286E+02  0.00000000000E+00 0. -1.
</event>
<event>
 7    1  0.1999542E-015  0.9000774E+02  0.7816164E-02  0.1186339E+00
        -11   -1    0    0    0    0  0.00000000000E+00  0.00000000000E+00  0.45593999997E+02  0.45594000000E+02  0.51100000000E-03 0.  1.
         11   -1    0    0    0    0 -0.00000000000E+00 -0.00000000000E+00 -0.45593999997E+02  0.45594000000E+02  0.51100000000E-03 0. -1.
    9900012    2    1    2    0    0  0.45496834760E+00 -0.92402125974E+00 -0.57636673589E+00  0.90007741511E+02  0.90000002899E+02 0.  0.
         12    1    1    2    0    0 -0.45496834760E+00  0.92402125974E+00  0.57636673589E+00  0.11802584886E+01  0.00000000000E+00 0. -1.
         11    1    3    3    0    0  0.55875949491E+01  0.28151641415E+02 -0.22107308335E+02  0.36228016972E+02  0.51100000000E-03 0. -1.
        -11    1    3    3    0    0  0.12507837946E+02  0.27993174989E+01  0.47393926494E+01  0.13665431991E+02  0.51100000000E-03 0.  1.
        -12    1    3    3    0    0 -0.17640464548E+02 -0.31874980173E+02  0.16791548950E+02  0.40114292548E+02  0.00000000000E+00 0.  1.
</event>
<event>
 7    1  0.1999542E-015  0.9000773E+02  0.7816164E-02  0.1186339E+00
        -11   -1    0    0    0    0  0.00000000000E+00  0.00000000000E+00  0.45593999997E+02  0.45594000000E+02  0.51100000000E-03 0.  1.
         11   -1    0    0    0    0 -0.00000000000E+00 -0.00000000000E+00 -0.45593999997E+02  0.45594000000E+02  0.51100000000E-03 0. -1.
    9900012    2    1    2    0    0  0.39174598448E+00 -0.36690132318E+00  0.10511646863E+01  0.90007733634E+02  0.89999994918E+02 0.  0.
         12    1    1    2    0    0 -0.39174598448E+00  0.36690132318E+00 -0.10511646863E+01  0.11802663661E+01  0.00000000000E+00 0. -1.
         11    1    3    3    0    0 -0.18052992525E+02  0.78183689241E+01 -0.29848160856E+02  0.35748428476E+02  0.51100000000E-03 0. -1.
        -11    1    3    3    0    0  0.50734606793E+00  0.83232040059E+01 -0.58311299656E+01  0.10175224906E+02  0.51100000000E-03 0.  1.
        -12    1    3    3    0    0  0.17937392442E+02 -0.16508474253E+02  0.36730455508E+02  0.44084080251E+02  0.00000000000E+00 0.  1.
</event>
<event>
 7    1  0.1999542E-015  0.9000788E+02  0.7816164E-02  0.1186339E+00
        -11   -1    0    0    0    0  0.00000000000E+00  0.00000000000E+00  0.45593999997E+02  0.45594000000E+02  0.51100000000E-03 0.  1.
         11   -1    0    0    0    0 -0.00000000000E+00 -0.00000000000E+00 -0.45593999997E+02  0.45594000000E+02  0.51100000000E-03 0. -1.
    9900012    2    1    2    0    0  0.39653185637E+00 -0.68958284331E+00  0.87173732365E+00  0.90007877984E+02  0.90000141173E+02 0.  0.
         12    1    1    2    0    0 -0.39653185637E+00  0.68958284331E+00 -0.87173732365E+00  0.11801220159E+01  0.00000000000E+00 0. -1.
         11    1    3    3    0    0 -0.12387821151E+02 -0.26117675158E+02 -0.20162618511E+02  0.35243754823E+02  0.51100000000E-03 0. -1.
        -11    1    3    3    0    0  0.86067989632E+01 -0.38731387171E+01 -0.86811130193E+01  0.12823412784E+02  0.51100000000E-03 0.  1.
        -12    1    3    3    0    0  0.41775540439E+01  0.29301231032E+02  0.29715468854E+02  0.41940710377E+02  0.00000000000E+00 0.  1.
</event>
<event>
 7    1  0.1999542E-015  0.9000768E+02  0.7816164E-02  0.1186339E+00
        -11   -1    0    0    0    0  0.00000000000E+00  0.00000000000E+00  0.45593999997E+02  0.45594000000E+02  0.51100000000E-03 0.  1.
         11   -1    0    0    0    0 -0.00000000000E+00 -0.00000000000E+00 -0.45593999997E+02  0.45594000000E+02  0.51100000000E-03 0. -1.
    9900012    2    1    2    0    0  0.15849114099E+00 -0.84574359569E+00  0.80793528405E+00  0.90007677546E+02  0.89999938090E+02 0.  0.
         12    1    1    2    0    0 -0.15849114099E+00  0.84574359569E+00 -0.80793528405E+00  0.11803224537E+01  0.00000000000E+00 0. -1.
         11    1    3    3    0    0 -0.14685515300E+02 -0.26952740325E+02 -0.24410606173E+02  0.39217244481E+02  0.51100000000E-03 0. -1.
        -11    1    3    3    0    0  0.34914114700E+01  0.41437000065E+01 -0.78270661327E+01  0.95196201765E+01  0.51100000000E-03 0.  1.
        -12    1    3    3    0    0  0.11352594971E+02  0.21963296723E+02  0.33045607590E+02  0.41270812889E+02  0.00000000000E+00 0.  1.
</event>
<event>
 7    1  0.1999542E-015  0.9000771E+02  0.7816164E-02  0.1186339E+00
        -11   -1    0    0    0    0  0.00000000000E+00  0.00000000000E+00  0.45593999997E+02  0.45594000000E+02  0.51100000000E-03 0.  1.
         11   -1    0    0    0    0 -0.00000000000E+00 -0.00000000000E+00 -0.45593999997E+02  0.45594000000E+02  0.51100000000E-03 0. -1.
    9900012    2    1    2    0    0  0.61917457725E+00 -0.98230828934E+00  0.21158200415E+00  0.90007714578E+02  0.89999975611E+02 0.  0.
         12    1    1    2    0    0 -0.61917457725E+00  0.98230828934E+00 -0.21158200415E+00  0.11802854218E+01  0.00000000000E+00 0. -1.
         11    1    3    3    0    0  0.81740888586E+01  0.77773746953E+01 -0.33217442412E+02  0.35081359245E+02  0.51100000000E-03 0. -1.
        -11    1    3    3    0    0 -0.39155823435E+01  0.78273645758E+01 -0.69148855412E+01  0.11154150062E+02  0.51100000000E-03 0.  1.
        -12    1    3    3    0    0 -0.36393319378E+01 -0.16587047560E+02  0.40343909957E+02  0.43772205272E+02  0.00000000000E+00 0.  1.
</event>
<event>
 7    1  0.1999542E-015  0.9000772E+02  0.7816164E-02  0.1186339E+00
        -11   -1    0    0    0    0  0.00000000000E+00  0.00000000000E+00  0.45593999997E+02  0.45594000000E+02  0.51100000000E-03 0. -1.
         11   -1    0    0    0    0 -0.00000000000E+00 -0.00000000000E+00 -0.45593999997E+02  0.45594000000E+02  0.51100000000E-03 0.  1.
    9900012    2    1    2    0    0 -0.35358497539E+00 -0.86593336500E+00 -0.71985187451E+00  0.90007724757E+02  0.89999985924E+02 0.  0.
         12    1    1    2    0    0  0.35358497539E+00  0.86593336500E+00  0.71985187451E+00  0.11802752428E+01  0.00000000000E+00 0. -1.
         11    1    3    3    0    0  0.57930502252E+00  0.61195919424E+01 -0.62768063725E+01  0.87854025719E+01  0.51100000000E-03 0. -1.
        -11    1    3    3    0    0  0.17435980696E+02 -0.14019886490E+02 -0.31871256843E+02  0.38940308846E+02  0.51100000000E-03 0.  1.
         12    1    3    3    0    0 -0.18368870694E+02  0.70343611822E+01  0.37428211341E+02  0.42282013339E+02  0.00000000000E+00 0. -1.
</event>
<event>
 7    1  0.1999542E-015  0.9000786E+02  0.7816164E-02  0.1186339E+00
        -11   -1    0    0    0    0  0.00000000000E+00  0.00000000000E+00  0.45593999997E+02  0.45594000000E+02  0.51100000000E-03 0. -1.
         11   -1    0    0    0    0 -0.00000000000E+00 -0.00000000000E+00 -0.45593999997E+02  0.45594000000E+02  0.51100000000E-03 0.  1.
    9900012    2    1    2    0    0 -0.23020377953E-01  0.10998077991E+01  0.42733360894E+00  0.90007863929E+02  0.90000126933E+02 0.  0.
         12    1    1    2    0    0  0.23020377953E-01 -0.10998077991E+01 -0.42733360894E+00  0.11801360710E+01  0.00000000000E+00 0. -1.
         11    1    3    3    0    0  0.71721074478E+01  0.73092566705E+01 -0.22289679623E+01  0.10480107669E+02  0.51100000000E-03 0. -1.
        -11    1    3    3    0    0  0.35385089936E+02  0.42316147193E+01  0.16124443891E+01  0.35673675590E+02  0.51100000000E-03 0.  1.
         12    1    3    3    0    0 -0.42580217762E+02 -0.10441063591E+02  0.10438571821E+01  0.43854080670E+02  0.00000000000E+00 0. -1.
</event>
<event>
 7    1  0.1999542E-015  0.9000768E+02  0.7816164E-02  0.1186339E+00
        -11   -1    0    0    0    0  0.00000000000E+00  0.00000000000E+00  0.45593999997E+02  0.45594000000E+02  0.51100000000E-03 0. -1.
         11   -1    0    0    0    0 -0.00000000000E+00 -0.00000000000E+00 -0.45593999997E+02  0.45594000000E+02  0.51100000000E-03 0.  1.
    9900012    2    1    2    0    0 -0.67044483999E+00 -0.96450886528E+00  0.11566063828E+00  0.90007681815E+02  0.89999942415E+02 0.  0.
         12    1    1    2    0    0  0.67044483999E+00  0.96450886528E+00 -0.11566063828E+00  0.11803181850E+01  0.00000000000E+00 0. -1.
         11    1    3    3    0    0  0.24181154403E+02  0.28624615691E+02  0.15590168466E+02  0.40585098309E+02  0.51100000000E-03 0. -1.
        -11    1    3    3    0    0  0.48662209367E+01 -0.24883509350E+01 -0.59727419845E+01  0.80960264114E+01  0.51100000000E-03 0.  1.
        -12    1    3    3    0    0 -0.29717820180E+02 -0.27100773621E+02 -0.95017658437E+01  0.41326557094E+02  0.00000000000E+00 0.  1.
</event>
<event>
 7    1  0.1999542E-015  0.9000777E+02  0.7816164E-02  0.1186339E+00
        -11   -1    0    0    0    0  0.00000000000E+00  0.00000000000E+00  0.45593999997E+02  0.45594000000E+02  0.51100000000E-03 0.  1.
         11   -1    0    0    0    0 -0.00000000000E+00 -0.00000000000E+00 -0.45593999997E+02  0.45594000000E+02  0.51100000000E-03 0. -1.
    9900012    2    1    2    0    0  0.95075969944E+00 -0.46633434763E+00 -0.52107727585E+00  0.90007774065E+02  0.90000035883E+02 0.  0.
         12    1    1    2    0    0 -0.95075969944E+00  0.46633434763E+00  0.52107727585E+00  0.11802259348E+01  0.00000000000E+00 0. -1.
         11    1    3    3    0    0 -0.30039732438E+02  0.13040389798E+02  0.19850955068E+02  0.38294878357E+02  0.51100000000E-03 0. -1.
        -11    1    3    3    0    0  0.10547961100E+02  0.94595864656E+01  0.10998679145E+01  0.14211015768E+02  0.51100000000E-03 0.  1.
        -12    1    3    3    0    0  0.20442531037E+02 -0.22966310611E+02 -0.21471900258E+02  0.37501879940E+02  0.00000000000E+00 0.  1.
</event>
<event>
 7    1  0.1999542E-015  0.9000733E+02  0.7816164E-02  0.1186340E+00
        -11   -1    0    0    0    0  0.00000000000E+00  0.00000000000E+00  0.45593999997E+02  0.45594000000E+02  0.51100000000E-03 0.  1.
         11   -1    0    0    0    0 -0.00000000000E+00 -0.00000000000E+00 -0.45593999997E+02  0.45594000000E+02  0.51100000000E-03 0. -1.
    9900012    2    1    2    0    0  0.10403597596E+01 -0.55814401191E+00 -0.10216796172E-01  0.90007331736E+02  0.89999587714E+02 0.  0.
         12    1    1    2    0    0 -0.10403597596E+01  0.55814401191E+00  0.10216796172E-01  0.11806682643E+01  0.00000000000E+00 0. -1.
         11    1    3    3    0    0  0.52989744019E+01  0.90377086712E+01  0.61989463462E+01  0.12173177227E+02  0.51100000000E-03 0. -1.
        -11    1    3    3    0    0  0.22539679246E+02 -0.34251936532E+02 -0.58429575033E+01  0.41417055054E+02  0.51100000000E-03 0.  1.
         12    1    3    3    0    0 -0.26798293889E+02  0.24656083849E+02 -0.36620563903E+00  0.36417099454E+02  0.00000000000E+00 0. -1.
</event>
<event>
 7    1  0.1999542E-015  0.9000774E+02  0.7816164E-02  0.1186339E+00
        -11   -1    0    0    0    0  0.00000000000E+00  0.00000000000E+00  0.45593999997E+02  0.45594000000E+02  0.51100000000E-03 0.  1.
         11   -1    0    0    0    0 -0.00000000000E+00 -0.00000000000E+00 -0.45593999997E+02  0.45594000000E+02  0.51100000000E-03 0. -1.
    9900012    2    1    2    0    0 -0.24984249142E+00 -0.71974272004E+00  0.90142467626E+00  0.90007738461E+02  0.89999999809E+02 0.  0.
         12    1    1    2    0    0  0.24984249142E+00  0.71974272004E+00 -0.90142467626E+00  0.11802615390E+01  0.00000000000E+00 0. -1.
         11    1    3    3    0    0 -0.48705185327E+01  0.59324838188E+01 -0.33553115121E+01  0.83770180042E+01  0.51100000000E-03 0. -1.
        -11    1    3    3    0    0 -0.36574897524E+02  0.86223906124E+01  0.24544201142E+01  0.37657574632E+02  0.51100000000E-03 0.  1.
         12    1    3    3    0    0  0.41195573566E+02 -0.15274617151E+02  0.18023160741E+01  0.43973145825E+02  0.00000000000E+00 0. -1.
</event>
<event>
 7    1  0.1999542E-015  0.9000770E+02  0.7816164E-02  0.1186339E+00
        -11   -1    0    0    0    0  0.00000000000E+00  0.00000000000E+00  0.45593999997E+02  0.45594000000E+02  0.51100000000E-03 0.  1.
         11   -1    0    0    0    0 -0.00000000000E+00 -0.00000000000E+00 -0.45593999997E+02  0.45594000000E+02  0.51100000000E-03 0. -1.
    9900012    2    1    2    0    0 -0.17817298582E+00  0.56840704051E+00  0.10189566802E+01  0.90007701354E+02  0.89999962212E+02 0.  0.
         12    1    1    2    0    0  0.17817298582E+00 -0.56840704051E+00 -0.10189566802E+01  0.11802986455E+01  0.00000000000E+00 0. -1.
         11    1    3    3    0    0 -0.20885344852E+02 -0.83378665716E+01 -0.32466412099E+02  0.39494120618E+02  0.51100000000E-03 0. -1.
        -11    1    3    3    0    0 -0.49962717955E+01 -0.24356928256E+01 -0.13901451433E+01  0.57295580262E+01  0.51100000000E-03 0.  1.
        -12    1    3    3    0    0  0.25703443661E+02  0.11341966438E+02  0.34875513923E+02  0.44784022710E+02  0.00000000000E+00 0.  1.
</event>
<event>
 7    1  0.1999542E-015  0.9000771E+02  0.7816164E-02  0.1186339E+00
        -11   -1    0    0    0    0  0.00000000000E+00  0.00000000000E+00  0.45593999997E+02  0.45594000000E+02  0.51100000000E-03 0.  1.
         11   -1    0    0    0    0 -0.00000000000E+00 -0.00000000000E+00 -0.45593999997E+02  0.45594000000E+02  0.51100000000E-03 0. -1.
    9900012    2    1    2    0    0  0.74333260430E-01  0.10149949944E+01  0.59777845265E+00  0.90007712175E+02  0.89999973175E+02 0.  0.
         12    1    1    2    0    0 -0.74333260430E-01 -0.10149949944E+01 -0.59777845265E+00  0.11802878254E+01  0.00000000000E+00 0. -1.
         11    1    3    3    0    0  0.32947042559E+02  0.15629325814E+02  0.16026192997E+01  0.36501394873E+02  0.51100000000E-03 0. -1.
        -11    1    3    3    0    0  0.88234860444E+01 -0.20988157277E+01 -0.39075786842E+01  0.98756318719E+01  0.51100000000E-03 0.  1.
        -12    1    3    3    0    0 -0.41696195343E+02 -0.12515515091E+02  0.29027378371E+01  0.43630685430E+02  0.00000000000E+00 0.  1.
</event>
<event>
 7    1  0.1999542E-015  0.9000795E+02  0.7816164E-02  0.1186339E+00
        -11   -1    0    0    0    0  0.00000000000E+00  0.00000000000E+00  0.45593999997E+02  0.45594000000E+02  0.51100000000E-03 0.  1.
         11   -1    0    0    0    0 -0.00000000000E+00 -0.00000000000E+00 -0.45593999997E+02  0.45594000000E+02  0.51100000000E-03 0. -1.
    9900012    2    1    2    0    0  0.56557455155E-01 -0.11781009001E+01 -0.37449683825E-01  0.90007947901E+02  0.90000212013E+02 0.  0.
         12    1    1    2    0    0 -0.56557455155E-01  0.11781009001E+01  0.37449683825E-01  0.11800520986E+01  0.00000000000E+00 0. -1.
         11    1    3    3    0    0  0.11971157981E+02 -0.32452703684E+02 -0.12093193718E+02  0.36643306815E+02  0.51100000000E-03 0. -1.
        -11    1    3    3    0    0 -0.29571605049E+01 -0.88984808900E+01  0.73948064778E+01  0.11941981557E+02  0.51100000000E-03 0.  1.
        -12    1    3    3    0    0 -0.89574400208E+01  0.40173083674E+02  0.46609375568E+01  0.41422659529E+02  0.00000000000E+00 0.  1.
</event>
<event>
 7    1  0.1999542E-015  0.9000772E+02  0.7816164E-02  0.1186339E+00
        -11   -1    0    0    0    0  0.00000000000E+00  0.00000000000E+00  0.45593999997E+02  0.45594000000E+02  0.51100000000E-03 0. -1.
         11   -1    0    0    0    0 -0.00000000000E+00 -0.00000000000E+00 -0.45593999997E+02  0.45594000000E+02  0.51100000000E-03 0.  1.
    9900012    2    1    2    0    0 -0.65699448270E+00  0.94267723863E+00  0.26976992062E+00  0.90007721246E+02  0.89999982367E+02 0.  0.
         12    1    1    2    0    0  0.65699448270E+00 -0.94267723863E+00 -0.26976992062E+00  0.11802787538E+01  0.00000000000E+00 0. -1.
         11    1    3    3    0    0  0.27025739517E+02  0.19658162703E+02  0.18302075226E+02  0.38102492243E+02  0.51100000000E-03 0. -1.
        -11    1    3    3    0    0  0.83374718229E+01 -0.31616846911E+01 -0.49862937675E+00  0.89307512562E+01  0.51100000000E-03 0.  1.
        -12    1    3    3    0    0 -0.36020205823E+02 -0.15553800774E+02 -0.17533675929E+02  0.42974477747E+02  0.00000000000E+00 0.  1.
</event>
<event>
 7    1  0.1999542E-015  0.9000766E+02  0.7816164E-02  0.1186339E+00
        -11   -1    0    0    0    0  0.00000000000E+00  0.00000000000E+00  0.45593999997E+02  0.45594000000E+02  0.51100000000E-03 0.  1.
         11   -1    0    0    0    0 -0.00000000000E+00 -0.00000000000E+00 -0.45593999997E+02  0.45594000000E+02  0.51100000000E-03 0. -1.
    9900012    2    1    2    0    0  0.42329553124E+00 -0.10761304654E+01  0.23654851230E+00  0.90007664843E+02  0.89999925218E+02 0.  0.
         12    1    1    2    0    0 -0.42329553124E+00  0.10761304654E+01 -0.23654851230E+00  0.11803351575E+01  0.00000000000E+00 0. -1.
         11    1    3    3    0    0 -0.98300203039E+01  0.10393331372E+02 -0.30993988730E+02  0.34136168118E+02  0.51100000000E-03 0. -1.
        -11    1    3    3    0    0 -0.19392047944E+01  0.96578489533E+01 -0.58724322688E+01  0.11468217937E+02  0.51100000000E-03 0.  1.
        -12    1    3    3    0    0  0.12192520630E+02 -0.21127310790E+02  0.37102969511E+02  0.44403278787E+02  0.00000000000E+00 0.  1.
</event>
<event>
 7    1  0.1999542E-015  0.9000764E+02  0.7816164E-02  0.1186339E+00
        -11   -1    0    0    0    0  0.00000000000E+00  0.00000000000E+00  0.45593999997E+02  0.45594000000E+02  0.51100000000E-03 0.  1.
         11   -1    0    0    0    0 -0.00000000000E+00 -0.00000000000E+00 -0.45593999997E+02  0.45594000000E+02  0.51100000000E-03 0. -1.
    9900012    2    1    2    0    0 -0.10032363556E+01  0.60330436250E+00  0.15098711893E+00  0.90007637154E+02  0.89999897164E+02 0.  0.
         12    1    1    2    0    0  0.10032363556E+01 -0.60330436250E+00 -0.15098711893E+00  0.11803628464E+01  0.00000000000E+00 0. -1.
         11    1    3    3    0    0  0.80373774600E+01  0.87311384395E+00  0.22429947489E+01  0.83900411158E+01  0.51100000000E-03 0. -1.
        -11    1    3    3    0    0  0.29381642269E+02 -0.17886243658E+02  0.12947038541E+02  0.36753563390E+02  0.51100000000E-03 0.  1.
         12    1    3    3    0    0 -0.38422256084E+02  0.17616434176E+02 -0.15039046171E+02  0.44864032648E+02  0.00000000000E+00 0. -1.
</event>
<event>
 7    1  0.2405554E-015  0.9000774E+02  0.7816164E-02  0.1186339E+00
        -11   -1    0    0    0    0  0.00000000000E+00  0.00000000000E+00  0.45593999997E+02  0.45594000000E+02  0.51100000000E-03 0.  1.
         11   -1    0    0    0    0 -0.00000000000E+00 -0.00000000000E+00 -0.45593999997E+02  0.45594000000E+02  0.51100000000E-03 0. -1.
    9900012    2    1    2    0    0  0.23912959516E+00 -0.11512682202E+01 -0.10199302259E+00  0.90007744072E+02  0.90000005494E+02 0.  0.
         12    1    1    2    0    0 -0.23912959516E+00  0.11512682202E+01  0.10199302259E+00  0.11802559276E+01  0.00000000000E+00 0. -1.
         11    1    3    3    0    0  0.18478304738E+02 -0.31580302329E+02 -0.13557960852E+02  0.39020270936E+02  0.51100000000E-03 0. -1.
        -11    1    3    3    0    0  0.22393087264E+01 -0.48863188098E+01  0.82318290956E+01  0.98312575800E+01  0.51100000000E-03 0.  1.
        -12    1    3    3    0    0 -0.20478483869E+02  0.35315352919E+02  0.52241387341E+01  0.41156215556E+02  0.00000000000E+00 0.  1.
</event>
<event>
 7    1  0.1999542E-015  0.9000774E+02  0.7816164E-02  0.1186339E+00
        -11   -1    0    0    0    0  0.00000000000E+00  0.00000000000E+00  0.45593999997E+02  0.45594000000E+02  0.51100000000E-03 0. -1.
         11   -1    0    0    0    0 -0.00000000000E+00 -0.00000000000E+00 -0.45593999997E+02  0.45594000000E+02  0.51100000000E-03 0.  1.
    9900012    2    1    2    0    0 -0.24773118147E+00  0.10868669189E+01 -0.38776233320E+00  0.90007741526E+02  0.90000002914E+02 0.  0.
         12    1    1    2    0    0  0.24773118147E+00 -0.10868669189E+01  0.38776233320E+00  0.11802584737E+01  0.00000000000E+00 0. -1.
         11    1    3    3    0    0 -0.38752556829E+00 -0.97174072270E+01  0.12336304427E+01  0.98030619508E+01  0.51100000000E-03 0. -1.
        -11    1    3    3    0    0  0.29622986618E+02 -0.19488328489E+02 -0.10561031755E+02  0.36997995560E+02  0.51100000000E-03 0.  1.
         12    1    3    3    0    0 -0.29483192231E+02  0.30292602635E+02  0.89396389790E+01  0.43206684016E+02  0.00000000000E+00 0. -1.
</event>
<event>
 7    1  0.1999542E-015  0.9000793E+02  0.7816164E-02  0.1186339E+00
        -11   -1    0    0    0    0  0.00000000000E+00  0.00000000000E+00  0.45593999997E+02  0.45594000000E+02  0.51100000000E-03 0.  1.
         11   -1    0    0    0    0 -0.00000000000E+00 -0.00000000000E+00 -0.45593999997E+02  0.45594000000E+02  0.51100000000E-03 0. -1.
    9900012    2    1    2    0    0 -0.98955147997E+00 -0.58768231716E+00 -0.26075619364E+00  0.90007925244E+02  0.90000189057E+02 0.  0.
         12    1    1    2    0    0  0.98955147997E+00  0.58768231716E+00  0.26075619364E+00  0.11800747561E+01  0.00000000000E+00 0. -1.
         11    1    3    3    0    0  0.12824441819E+02  0.34345053423E+02 -0.77484658921E+01  0.37471158596E+02  0.51100000000E-03 0. -1.
        -11    1    3    3    0    0 -0.49982076103E+01  0.67942642284E+01  0.50239816336E+01  0.98175606663E+01  0.51100000000E-03 0.  1.
        -12    1    3    3    0    0 -0.88157856884E+01 -0.41726999969E+02  0.24637280649E+01  0.42719205981E+02  0.00000000000E+00 0.  1.
</event>
<event>
 7    1  0.1999542E-015  0.9000771E+02  0.7816164E-02  0.1186339E+00
        -11   -1    0    0    0    0  0.00000000000E+00  0.00000000000E+00  0.45593999997E+02  0.45594000000E+02  0.51100000000E-03 0. -1.
         11   -1    0    0    0    0 -0.00000000000E+00 -0.00000000000E+00 -0.45593999997E+02  0.45594000000E+02  0.51100000000E-03 0.  1.
    9900012    2    1    2    0    0  0.45502822639E-02 -0.10223132289E+01 -0.58986188811E+00  0.90007711014E+02  0.89999972000E+02 0.  0.
         12    1    1    2    0    0 -0.45502822639E-02  0.10223132289E+01  0.58986188811E+00  0.11802889858E+01  0.00000000000E+00 0. -1.
         11    1    3    3    0    0  0.10605328696E+02  0.22610835707E+01  0.20848426435E+00  0.10845688618E+02  0.51100000000E-03 0. -1.
        -11    1    3    3    0    0  0.18645470946E+02 -0.34644596087E+01 -0.31494496825E+02  0.36763560732E+02  0.51100000000E-03 0.  1.
         12    1    3    3    0    0 -0.29246249360E+02  0.18106280906E+00  0.30696150673E+02  0.42398461664E+02  0.00000000000E+00 0. -1.
</event>
<event>
 7    1  0.1999542E-015  0.9000768E+02  0.7816164E-02  0.1186339E+00
        -11   -1    0    0    0    0  0.00000000000E+00  0.00000000000E+00  0.45593999997E+02  0.45594000000E+02  0.51100000000E-03 0. -1.
         11   -1    0    0    0    0 -0.00000000000E+00 -0.00000000000E+00 -0.45593999997E+02  0.45594000000E+02  0.51100000000E-03 0.  1.
    9900012    2    1    2    0    0  0.71593077389E+00 -0.26323227779E+00 -0.90072742272E+00  0.90007678859E+02  0.89999939420E+02 0.  0.
         12    1    1    2    0    0 -0.71593077389E+00  0.26323227779E+00  0.90072742272E+00  0.11803211407E+01  0.00000000000E+00 0. -1.
         11    1    3    3    0    0  0.27835155601E+01 -0.82353406922E+01 -0.24330863249E+01  0.90271094219E+01  0.51100000000E-03 0. -1.
        -11    1    3    3    0    0 -0.31020234496E+02 -0.19246455161E+02  0.14352250960E+02  0.39225859994E+02  0.51100000000E-03 0.  1.
         12    1    3    3    0    0  0.28952649710E+02  0.27218563575E+02 -0.12819892058E+02  0.41754709443E+02  0.00000000000E+00 0. -1.
</event>
<event>
 7    1  0.1999542E-015  0.9000769E+02  0.7816164E-02  0.1186339E+00
        -11   -1    0    0    0    0  0.00000000000E+00  0.00000000000E+00  0.45593999997E+02  0.45594000000E+02  0.51100000000E-03 0. -1.
         11   -1    0    0    0    0 -0.00000000000E+00 -0.00000000000E+00 -0.45593999997E+02  0.45594000000E+02  0.51100000000E-03 0.  1.
    9900012    2    1    2    0    0 -0.45867366689E+00  0.96794946851E+00  0.49580152363E+00  0.90007692050E+02  0.89999952785E+02 0.  0.
         12    1    1    2    0    0  0.45867366689E+00 -0.96794946851E+00 -0.49580152363E+00  0.11803079501E+01  0.00000000000E+00 0. -1.
         11    1    3    3    0    0 -0.10247151522E+02 -0.15440897636E+02  0.33676991580E+02  0.38439110243E+02  0.51100000000E-03 0. -1.
        -11    1    3    3    0    0 -0.14237788775E+01  0.70645504349E+01  0.62396522818E+01  0.95324855100E+01  0.51100000000E-03 0.  1.
        -12    1    3    3    0    0  0.11212256733E+02  0.93442966692E+01 -0.39420842338E+02  0.42036096297E+02  0.00000000000E+00 0.  1.
</event>
<event>
 7    1  0.1999542E-015  0.9000786E+02  0.7816164E-02  0.1186339E+00
        -11   -1    0    0    0    0  0.00000000000E+00  0.00000000000E+00  0.45593999997E+02  0.45594000000E+02  0.51100000000E-03 0. -1.
         11   -1    0    0    0    0 -0.00000000000E+00 -0.00000000000E+00 -0.45593999997E+02  0.45594000000E+02  0.51100000000E-03 0.  1.
    9900012    2    1    2    0    0  0.28628977282E+00 -0.10879168072E+01 -0.35667502225E+00  0.90007855142E+02  0.90000118030E+02 0.  0.
         12    1    1    2    0    0 -0.28628977282E+00  0.10879168072E+01  0.35667502225E+00  0.11801448576E+01  0.00000000000E+00 0. -1.
         11    1    3    3    0    0  0.93094064797E+01 -0.14384737646E+01 -0.91627543148E+01  0.13141168999E+02  0.51100000000E-03 0. -1.
        -11    1    3    3    0    0 -0.30408853371E+02  0.18528688924E+02 -0.16342818932E+02  0.39180331896E+02  0.51100000000E-03 0.  1.
         12    1    3    3    0    0  0.21385736664E+02 -0.18178131967E+02  0.25148898225E+02  0.37686354247E+02  0.00000000000E+00 0. -1.
</event>
<event>
 7    1  0.1999542E-015  0.9000764E+02  0.7816164E-02  0.1186339E+00
        -11   -1    0    0    0    0  0.00000000000E+00  0.00000000000E+00  0.45593999997E+02  0.45594000000E+02  0.51100000000E-03 0.  1.
         11   -1    0    0    0    0 -0.00000000000E+00 -0.00000000000E+00 -0.45593999997E+02  0.45594000000E+02  0.51100000000E-03 0. -1.
    9900012    2    1    2    0    0  0.52592926513E+00  0.85686352642E+00  0.61840507011E+00  0.90007643475E+02  0.89999903569E+02 0.  0.
         12    1    1    2    0    0 -0.52592926513E+00 -0.85686352642E+00 -0.61840507011E+00  0.11803565248E+01  0.00000000000E+00 0. -1.
         11    1    3    3    0    0  0.10231413092E+02  0.31371963309E+01  0.48645602818E+01  0.11755329076E+02  0.51100000000E-03 0. -1.
        -11    1    3    3    0    0  0.11163772255E+02  0.32342860035E+02  0.95728752594E+01  0.35529288583E+02  0.51100000000E-03 0.  1.
         12    1    3    3    0    0 -0.20869256082E+02 -0.34623192839E+02 -0.13819030471E+02  0.42723025817E+02  0.00000000000E+00 0. -1.
</event>
<event>
 7    1  0.1999542E-015  0.9000768E+02  0.7816164E-02  0.1186339E+00
        -11   -1    0    0    0    0  0.00000000000E+00  0.00000000000E+00  0.45593999997E+02  0.45594000000E+02  0.51100000000E-03 0. -1.
         11   -1    0    0    0    0 -0.00000000000E+00 -0.00000000000E+00 -0.45593999997E+02  0.45594000000E+02  0.51100000000E-03 0.  1.
    9900012    2    1    2    0    0  0.73603469031E+00 -0.88826337731E-02 -0.92267174483E+00  0.90007682621E+02  0.89999943232E+02 0.  0.
         12    1    1    2    0    0 -0.73603469031E+00  0.88826337731E-02  0.92267174483E+00  0.11803173790E+01  0.00000000000E+00 0. -1.
         11    1    3    3    0    0  0.47978356371E+01  0.25795459790E+00 -0.23577306236E+02  0.24061902189E+02  0.51100000000E-03 0. -1.
        -11    1    3    3    0    0 -0.22904322335E+02  0.21133066204E+02  0.29862818728E+01  0.31307065472E+02  0.51100000000E-03 0.  1.
         12    1    3    3    0    0  0.18842521388E+02 -0.21399903435E+02  0.19668352618E+02  0.34638714959E+02  0.00000000000E+00 0. -1.
</event>
<event>
 7    1  0.1999542E-015  0.9000771E+02  0.7816164E-02  0.1186339E+00
        -11   -1    0    0    0    0  0.00000000000E+00  0.00000000000E+00  0.45593999997E+02  0.45594000000E+02  0.51100000000E-03 0.  1.
         11   -1    0    0    0    0 -0.00000000000E+00 -0.00000000000E+00 -0.45593999997E+02  0.45594000000E+02  0.51100000000E-03 0. -1.
    9900012    2    1    2    0    0 -0.46074050317E+00  0.72898612681E+00  0.80584356845E+00  0.90007709171E+02  0.89999970132E+02 0.  0.
         12    1    1    2    0    0  0.46074050317E+00 -0.72898612681E+00 -0.80584356845E+00  0.11802908291E+01  0.00000000000E+00 0. -1.
         11    1    3    3    0    0  0.22189746994E+02 -0.31121126789E+02  0.57468242470E+01  0.38651460431E+02  0.51100000000E-03 0. -1.
        -11    1    3    3    0    0 -0.45313271315E+01 -0.63823053601E+00  0.10210895791E+02  0.11189399309E+02  0.51100000000E-03 0.  1.
        -12    1    3    3    0    0 -0.18119160366E+02  0.32488343452E+02 -0.15151876469E+02  0.40166849430E+02  0.00000000000E+00 0.  1.
</event>
<event>
 7    1  0.1999542E-015  0.9000778E+02  0.7816164E-02  0.1186339E+00
        -11   -1    0    0    0    0  0.00000000000E+00  0.00000000000E+00  0.45593999997E+02  0.45594000000E+02  0.51100000000E-03 0.  1.
         11   -1    0    0    0    0 -0.00000000000E+00 -0.00000000000E+00 -0.45593999997E+02  0.45594000000E+02  0.51100000000E-03 0. -1.
    9900012    2    1    2    0    0 -0.10535812101E+01 -0.30738717777E+00 -0.43405493034E+00  0.90007778018E+02  0.90000039888E+02 0.  0.
         12    1    1    2    0    0  0.10535812101E+01  0.30738717777E+00  0.43405493034E+00  0.11802219816E+01  0.00000000000E+00 0. -1.
         11    1    3    3    0    0 -0.31628127924E+02 -0.20711408105E+02 -0.29809642425E+01  0.37923436682E+02  0.51100000000E-03 0. -1.
        -11    1    3    3    0    0 -0.37525164800E+00 -0.62689761522E+01  0.87376433915E+01  0.10760450181E+02  0.51100000000E-03 0.  1.
        -12    1    3    3    0    0  0.30949798362E+02  0.26672997080E+02 -0.61907340793E+01  0.41323891156E+02  0.00000000000E+00 0.  1.
</event>
<event>
 7    1  0.1999542E-015  0.9000770E+02  0.7816164E-02  0.1186339E+00
        -11   -1    0    0    0    0  0.00000000000E+00  0.00000000000E+00  0.45593999997E+02  0.45594000000E+02  0.51100000000E-03 0.  1.
         11   -1    0    0    0    0 -0.00000000000E+00 -0.00000000000E+00 -0.45593999997E+02  0.45594000000E+02  0.51100000000E-03 0. -1.
    9900012    2    1    2    0    0  0.42763642407E-01 -0.10218035365E+01  0.58922547190E+00  0.90007704337E+02  0.89999965234E+02 0.  0.
         12    1    1    2    0    0 -0.42763642407E-01  0.10218035365E+01 -0.58922547190E+00  0.11802956634E+01  0.00000000000E+00 0. -1.
         11    1    3    3    0    0 -0.55465637169E+01 -0.67053263564E+01  0.19746762785E+01  0.89232907202E+01  0.51100000000E-03 0. -1.
        -11    1    3    3    0    0 -0.34561132781E+02  0.79027248434E+01 -0.15188488661E+02  0.38569614298E+02  0.51100000000E-03 0.  1.
         12    1    3    3    0    0  0.40150460140E+02 -0.22192020234E+01  0.13803037854E+02  0.42514799318E+02  0.00000000000E+00 0. -1.
</event>
<event>
 7    1  0.1999542E-015  0.9000774E+02  0.7816164E-02  0.1186339E+00
        -11   -1    0    0    0    0  0.00000000000E+00  0.00000000000E+00  0.45593999997E+02  0.45594000000E+02  0.51100000000E-03 0.  1.
         11   -1    0    0    0    0 -0.00000000000E+00 -0.00000000000E+00 -0.45593999997E+02  0.45594000000E+02  0.51100000000E-03 0. -1.
    9900012    2    1    2    0    0  0.62643251055E+00  0.22858991261E+00  0.97383393608E+00  0.90007735804E+02  0.89999997116E+02 0.  0.
         12    1    1    2    0    0 -0.62643251055E+00 -0.22858991261E+00 -0.97383393608E+00  0.11802641965E+01  0.00000000000E+00 0. -1.
         11    1    3    3    0    0 -0.21468063934E+02  0.11446232764E+02 -0.30379703090E+02  0.38920693386E+02  0.51100000000E-03 0. -1.
        -11    1    3    3    0    0  0.95469698762E+01 -0.19446871669E+02  0.75368250982E+01  0.22937506062E+02  0.51100000000E-03 0.  1.
        -12    1    3    3    0    0  0.12547526569E+02  0.82292288181E+01  0.23816711928E+02  0.28149536355E+02  0.00000000000E+00 0.  1.
</event>
<event>
 7    1  0.1999542E-015  0.9000772E+02  0.7816164E-02  0.1186339E+00
        -11   -1    0    0    0    0  0.00000000000E+00  0.00000000000E+00  0.45593999997E+02  0.45594000000E+02  0.51100000000E-03 0.  1.
         11   -1    0    0    0    0 -0.00000000000E+00 -0.00000000000E+00 -0.45593999997E+02  0.45594000000E+02  0.51100000000E-03 0. -1.
    9900012    2    1    2    0    0  0.65533909096E+00  0.60998212528E+00 -0.76910269978E+00  0.90007717627E+02  0.89999978700E+02 0.  0.
         12    1    1    2    0    0 -0.65533909096E+00 -0.60998212528E+00  0.76910269978E+00  0.11802823730E+01  0.00000000000E+00 0. -1.
         11    1    3    3    0    0  0.41448176298E+01 -0.19422867224E+00  0.85934991726E+01  0.95428227612E+01  0.51100000000E-03 0. -1.
        -11    1    3    3    0    0 -0.12513979584E+01 -0.16855786637E+02  0.31580627092E+02  0.35819262245E+02  0.51100000000E-03 0.  1.
         12    1    3    3    0    0 -0.22380805804E+01  0.17659997435E+02 -0.40943228964E+02  0.44645632621E+02  0.00000000000E+00 0. -1.
</event>
<event>
 7    1  0.1999542E-015  0.9000775E+02  0.7816164E-02  0.1186339E+00
        -11   -1    0    0    0    0  0.00000000000E+00  0.00000000000E+00  0.45593999997E+02  0.45594000000E+02  0.51100000000E-03 0. -1.
         11   -1    0    0    0    0 -0.00000000000E+00 -0.00000000000E+00 -0.45593999997E+02  0.45594000000E+02  0.51100000000E-03 0.  1.
    9900012    2    1    2    0    0  0.10850767937E+01 -0.44626413835E+00  0.12823520882E+00  0.90007751044E+02  0.90000012558E+02 0.  0.
         12    1    1    2    0    0 -0.10850767937E+01  0.44626413835E+00 -0.12823520882E+00  0.11802489560E+01  0.00000000000E+00 0. -1.
         11    1    3    3    0    0  0.21417633006E+02  0.67527305667E+01  0.27146322997E+02  0.35231196775E+02  0.51100000000E-03 0. -1.
        -11    1    3    3    0    0  0.81206076517E+01  0.38128826851E+01  0.52289235204E+01  0.10383832840E+02  0.51100000000E-03 0.  1.
        -12    1    3    3    0    0 -0.28453163864E+02 -0.11011877390E+02 -0.32247011309E+02  0.44392721429E+02  0.00000000000E+00 0.  1.
</event>
<event>
 7    1  0.1999542E-015  0.9000758E+02  0.7816164E-02  0.1186339E+00
        -11   -1    0    0    0    0  0.00000000000E+00  0.00000000000E+00  0.45593999997E+02  0.45594000000E+02  0.51100000000E-03 0.  1.
         11   -1    0    0    0    0 -0.00000000000E+00 -0.00000000000E+00 -0.45593999997E+02  0.45594000000E+02  0.51100000000E-03 0. -1.
    9900012    2    1    2    0    0  0.54225703832E-01 -0.10569952429E+01  0.52270472274E+00  0.90007576518E+02  0.89999835728E+02 0.  0.
         12    1    1    2    0    0 -0.54225703832E-01  0.10569952429E+01 -0.52270472274E+00  0.11804234823E+01  0.00000000000E+00 0. -1.
         11    1    3    3    0    0  0.34591471655E+02 -0.51218156066E+01  0.12286619867E+02  0.37064321583E+02  0.51100000000E-03 0. -1.
        -11    1    3    3    0    0  0.27837518786E+01  0.61041165155E+01  0.81793170527E+01  0.10578787297E+02  0.51100000000E-03 0.  1.
        -12    1    3    3    0    0 -0.37320997830E+02 -0.20392961518E+01 -0.19943232197E+02  0.42364467638E+02  0.00000000000E+00 0.  1.
</event>
<event>
 7    1  0.1999542E-015  0.9000757E+02  0.7816164E-02  0.1186339E+00
        -11   -1    0    0    0    0  0.00000000000E+00  0.00000000000E+00  0.45593999997E+02  0.45594000000E+02  0.51100000000E-03 0.  1.
         11   -1    0    0    0    0 -0.00000000000E+00 -0.00000000000E+00 -0.45593999997E+02  0.45594000000E+02  0.51100000000E-03 0. -1.
    9900012    2    1    2    0    0 -0.73249083957E+00 -0.53156246134E+00  0.75782879690E+00  0.90007573820E+02  0.89999832995E+02 0.  0.
         12    1    1    2    0    0  0.73249083957E+00  0.53156246134E+00 -0.75782879690E+00  0.11804261797E+01  0.00000000000E+00 0. -1.
         11    1    3    3    0    0  0.19449308615E+02 -0.27865655893E+02  0.24804848602E+02  0.42071972837E+02  0.51100000000E-03 0. -1.
        -11    1    3    3    0    0 -0.40561134088E+01 -0.32027041637E+01 -0.87584565138E+01  0.10169559022E+02  0.51100000000E-03 0.  1.
        -12    1    3    3    0    0 -0.16125686046E+02  0.30536797596E+02 -0.15288563292E+02  0.37766041961E+02  0.00000000000E+00 0.  1.
</event>
<event>
 7    1  0.1999542E-015  0.9000803E+02  0.7816164E-02  0.1186338E+00
        -11   -1    0    0    0    0  0.00000000000E+00  0.00000000000E+00  0.45593999997E+02  0.45594000000E+02  0.51100000000E-03 0.  1.
         11   -1    0    0    0    0 -0.00000000000E+00 -0.00000000000E+00 -0.45593999997E+02  0.45594000000E+02  0.51100000000E-03 0. -1.
    9900012    2    1    2    0    0  0.90437213837E+00  0.66312204533E+00 -0.36704091298E+00  0.90008025914E+02  0.90000291056E+02 0.  0.
         12    1    1    2    0    0 -0.90437213837E+00 -0.66312204533E+00  0.36704091298E+00  0.11799740859E+01  0.00000000000E+00 0. -1.
         11    1    3    3    0    0 -0.35004877902E+01 -0.11756360488E+02 -0.54123624240E+01  0.13407426821E+02  0.51100000000E-03 0. -1.
        -11    1    3    3    0    0 -0.32026242820E+02 -0.91074373115E+01  0.77921566392E+01  0.34195662721E+02  0.51100000000E-03 0.  1.
         12    1    3    3    0    0  0.36431102749E+02  0.21526919845E+02 -0.27468351282E+01  0.42404936372E+02  0.00000000000E+00 0. -1.
</event>
<event>
 7    1  0.1999542E-015  0.9000772E+02  0.7816164E-02  0.1186339E+00
        -11   -1    0    0    0    0  0.00000000000E+00  0.00000000000E+00  0.45593999997E+02  0.45594000000E+02  0.51100000000E-03 0.  1.
         11   -1    0    0    0    0 -0.00000000000E+00 -0.00000000000E+00 -0.45593999997E+02  0.45594000000E+02  0.51100000000E-03 0. -1.
    9900012    2    1    2    0    0  0.11289517303E+01  0.61553738970E-01  0.33873895429E+00  0.90007718275E+02  0.89999979356E+02 0.  0.
         12    1    1    2    0    0 -0.11289517303E+01 -0.61553738970E-01 -0.33873895429E+00  0.11802817254E+01  0.00000000000E+00 0. -1.
         11    1    3    3    0    0  0.62766554146E+01 -0.66509462380E+01 -0.50877547249E+01  0.10465024484E+02  0.51100000000E-03 0. -1.
        -11    1    3    3    0    0 -0.23008756428E+02  0.28044231850E+01  0.36647212698E+02  0.43362263094E+02  0.51100000000E-03 0.  1.
         12    1    3    3    0    0  0.17861052744E+02  0.39080767920E+01 -0.31220719019E+02  0.36180430697E+02  0.00000000000E+00 0. -1.
</event>
<event>
 7    1  0.1999542E-015  0.9000764E+02  0.7816164E-02  0.1186339E+00
        -11   -1    0    0    0    0  0.00000000000E+00  0.00000000000E+00  0.45593999997E+02  0.45594000000E+02  0.51100000000E-03 0.  1.
         11   -1    0    0    0    0 -0.00000000000E+00 -0.00000000000E+00 -0.45593999997E+02  0.45594000000E+02  0.51100000000E-03 0. -1.
    9900012    2    1    2    0    0  0.31195923635E+00  0.11364676600E+01  0.66060731177E-01  0.90007643559E+02  0.89999903654E+02 0.  0.
         12    1    1    2    0    0 -0.31195923635E+00 -0.11364676600E+01 -0.66060731177E-01  0.11803564409E+01  0.00000000000E+00 0. -1.
         11    1    3    3    0    0  0.13508060347E+02 -0.10172504135E+02  0.58132089010E+01  0.17881301203E+02  0.51100000000E-03 0. -1.
        -11    1    3    3    0    0  0.76930602246E+01 -0.17739873370E+02  0.20173706736E+02  0.27943956887E+02  0.51100000000E-03 0.  1.
         12    1    3    3    0    0 -0.20889161335E+02  0.29048845165E+02 -0.25920854906E+02  0.44182385469E+02  0.00000000000E+00 0. -1.
</event>
<event>
 7    1  0.1999542E-015  0.9000777E+02  0.7816164E-02  0.1186339E+00
        -11   -1    0    0    0    0  0.00000000000E+00  0.00000000000E+00  0.45593999997E+02  0.45594000000E+02  0.51100000000E-03 0.  1.
         11   -1    0    0    0    0 -0.00000000000E+00 -0.00000000000E+00 -0.45593999997E+02  0.45594000000E+02  0.51100000000E-03 0. -1.
    9900012    2    1    2    0    0 -0.34974948065E+00 -0.14603377416E+00  0.11177190599E+01  0.90007768472E+02  0.90000030216E+02 0.  0.
         12    1    1    2    0    0  0.34974948065E+00  0.14603377416E+00 -0.11177190599E+01  0.11802315278E+01  0.00000000000E+00 0. -1.
         11    1    3    3    0    0  0.18757028827E+02  0.23640384078E+02 -0.11756488333E+02  0.32386863200E+02  0.51100000000E-03 0. -1.
        -11    1    3    3    0    0 -0.79013974137E+01  0.13632302362E+02  0.95370713595E+01  0.18418129090E+02  0.51100000000E-03 0.  1.
        -12    1    3    3    0    0 -0.11205380894E+02 -0.37418720215E+02  0.33371360330E+01  0.39202776182E+02  0.00000000000E+00 0.  1.
</event>
<event>
 7    1  0.1999542E-015  0.9000778E+02  0.7816164E-02  0.1186339E+00
        -11   -1    0    0    0    0  0.00000000000E+00  0.00000000000E+00  0.45593999997E+02  0.45594000000E+02  0.51100000000E-03 0.  1.
         11   -1    0    0    0    0 -0.00000000000E+00 -0.00000000000E+00 -0.45593999997E+02  0.45594000000E+02  0.51100000000E-03 0. -1.
    9900012    2    1    2    0    0 -0.55818582245E-01 -0.41917607572E+00  0.11018634778E+01  0.90007776538E+02  0.90000038388E+02 0.  0.
         12    1    1    2    0    0  0.55818582245E-01  0.41917607572E+00 -0.11018634778E+01  0.11802234621E+01  0.00000000000E+00 0. -1.
         11    1    3    3    0    0  0.56995408028E+01  0.82274395785E+00  0.67515586562E+01  0.88738502090E+01  0.51100000000E-03 0. -1.
        -11    1    3    3    0    0  0.11973350077E+02 -0.38091755712E+02 -0.62964989323E+00  0.39934188668E+02  0.51100000000E-03 0.  1.
         12    1    3    3    0    0 -0.17728709462E+02  0.36849835678E+02 -0.50200452851E+01  0.41199737661E+02  0.00000000000E+00 0. -1.
</event>
<event>
 7    1  0.1999542E-015  0.9000773E+02  0.7816164E-02  0.1186339E+00
        -11   -1    0    0    0    0  0.00000000000E+00  0.00000000000E+00  0.45593999997E+02  0.45594000000E+02  0.51100000000E-03 0.  1.
         11   -1    0    0    0    0 -0.00000000000E+00 -0.00000000000E+00 -0.45593999997E+02  0.45594000000E+02  0.51100000000E-03 0. -1.
    9900012    2    1    2    0    0 -0.54030478018E+00  0.10010849346E+01  0.31452707400E+00  0.90007734105E+02  0.89999995396E+02 0.  0.
         12    1    1    2    0    0  0.54030478018E+00 -0.10010849346E+01 -0.31452707400E+00  0.11802658947E+01  0.00000000000E+00 0. -1.
         11    1    3    3    0    0  0.35740985375E+01 -0.13265571080E+02 -0.10120254429E+02  0.17063677986E+02  0.51100000000E-03 0. -1.
        -11    1    3    3    0    0  0.32793243446E+02  0.10412343621E+02  0.10010485415E+02  0.35833274117E+02  0.51100000000E-03 0.  1.
         12    1    3    3    0    0 -0.36907646764E+02  0.38543123935E+01  0.42429608786E+00  0.37110782003E+02  0.00000000000E+00 0. -1.
</event>
<event>
 7    1  0.1999542E-015  0.9000804E+02  0.7816164E-02  0.1186338E+00
        -11   -1    0    0    0    0  0.00000000000E+00  0.00000000000E+00  0.45593999997E+02  0.45594000000E+02  0.51100000000E-03 0. -1.
         11   -1    0    0    0    0 -0.00000000000E+00 -0.00000000000E+00 -0.45593999997E+02  0.45594000000E+02  0.51100000000E-03 0.  1.
    9900012    2    1    2    0    0  0.92655908259E+00 -0.61135231385E+00 -0.40004608972E+00  0.90008042264E+02  0.90000307621E+02 0.  0.
         12    1    1    2    0    0 -0.92655908259E+00  0.61135231385E+00  0.40004608972E+00  0.11799577361E+01  0.00000000000E+00 0. -1.
         11    1    3    3    0    0 -0.44421547303E-01  0.20411994209E+02  0.31457217907E+02  0.37499440523E+02  0.51100000000E-03 0. -1.
        -11    1    3    3    0    0  0.45286524863E+01  0.88992799131E+01 -0.21915281348E+01  0.10222948310E+02  0.51100000000E-03 0.  1.
        -12    1    3    3    0    0 -0.35576718564E+01 -0.29922626436E+02 -0.29665735862E+02  0.42285653431E+02  0.00000000000E+00 0.  1.
</event>
<event>
 7    1  0.1999542E-015  0.9000774E+02  0.7816164E-02  0.1186339E+00
        -11   -1    0    0    0    0  0.00000000000E+00  0.00000000000E+00  0.45593999997E+02  0.45594000000E+02  0.51100000000E-03 0.  1.
         11   -1    0    0    0    0 -0.00000000000E+00 -0.00000000000E+00 -0.45593999997E+02  0.45594000000E+02  0.51100000000E-03 0. -1.
    9900012    2    1    2    0    0 -0.55726126377E+00  0.30119949155E+00  0.99586384013E+00  0.90007743232E+02  0.90000004643E+02 0.  0.
         12    1    1    2    0    0  0.55726126377E+00 -0.30119949155E+00 -0.99586384013E+00  0.11802567678E+01  0.00000000000E+00 0. -1.
         11    1    3    3    0    0  0.15919116017E+02 -0.67897083871E+01 -0.30181945409E+02  0.34791783853E+02  0.51100000000E-03 0. -1.
        -11    1    3    3    0    0  0.41999844948E+01  0.10954227630E+02 -0.54827529479E+01  0.12949731769E+02  0.51100000000E-03 0.  1.
        -12    1    3    3    0    0 -0.20676361775E+02 -0.38633197517E+01  0.36660562197E+02  0.42266227610E+02  0.00000000000E+00 0.  1.
</event>
<event>
 7    1  0.1999542E-015  0.9000776E+02  0.7816164E-02  0.1186339E+00
        -11   -1    0    0    0    0  0.00000000000E+00  0.00000000000E+00  0.45593999997E+02  0.45594000000E+02  0.51100000000E-03 0.  1.
         11   -1    0    0    0    0 -0.00000000000E+00 -0.00000000000E+00 -0.45593999997E+02  0.45594000000E+02  0.51100000000E-03 0. -1.
    9900012    2    1    2    0    0  0.54040955365E+00 -0.31307069919E+00  0.10014527978E+01  0.90007761272E+02  0.90000022921E+02 0.  0.
         12    1    1    2    0    0 -0.54040955365E+00  0.31307069919E+00 -0.10014527978E+01  0.11802387278E+01  0.00000000000E+00 0. -1.
         11    1    3    3    0    0 -0.66372744756E+01  0.38668347324E+02 -0.90155866095E+01  0.40256369675E+02  0.51100000000E-03 0. -1.
        -11    1    3    3    0    0  0.91947963333E+01 -0.85525286753E+00 -0.25096175063E+01  0.95694261776E+01  0.51100000000E-03 0.  1.
        -12    1    3    3    0    0 -0.20171123040E+01 -0.38126165156E+02  0.12526656914E+02  0.40181965419E+02  0.00000000000E+00 0.  1.
</event>
<event>
 7    1  0.1999542E-015  0.9000776E+02  0.7816164E-02  0.1186339E+00
        -11   -1    0    0    0    0  0.00000000000E+00  0.00000000000E+00  0.45593999997E+02  0.45594000000E+02  0.51100000000E-03 0.  1.
         11   -1    0    0    0    0 -0.00000000000E+00 -0.00000000000E+00 -0.45593999997E+02  0.45594000000E+02  0.51100000000E-03 0. -1.
    9900012    2    1    2    0    0  0.97061244474E+00  0.56854546216E+00  0.35726474016E+00  0.90007758264E+02  0.90000019873E+02 0.  0.
         12    1    1    2    0    0 -0.97061244474E+00 -0.56854546216E+00 -0.35726474016E+00  0.11802417358E+01  0.00000000000E+00 0. -1.
         11    1    3    3    0    0  0.18386092237E+02 -0.15950255959E+02 -0.31718717980E+02  0.39981697356E+02  0.51100000000E-03 0. -1.
        -11    1    3    3    0    0  0.63745613539E+01 -0.35062917318E+01  0.54918302058E+01  0.91153339727E+01  0.51100000000E-03 0.  1.
        -12    1    3    3    0    0 -0.23790041146E+02  0.20025093153E+02  0.26584152514E+02  0.40910726936E+02  0.00000000000E+00 0.  1.
</event>
<event>
 7    1  0.1999542E-015  0.9000774E+02  0.7816164E-02  0.1186339E+00
        -11   -1    0    0    0    0  0.00000000000E+00  0.00000000000E+00  0.45593999997E+02  0.45594000000E+02  0.51100000000E-03 0. -1.
         11   -1    0    0    0    0 -0.00000000000E+00 -0.00000000000E+00 -0.45593999997E+02  0.45594000000E+02  0.51100000000E-03 0.  1.
    9900012    2    1    2    0    0 -0.85532274202E+00 -0.77169981520E+00  0.25674055407E+00  0.90007740152E+02  0.90000001522E+02 0.  0.
         12    1    1    2    0    0  0.85532274202E+00  0.77169981520E+00 -0.25674055407E+00  0.11802598485E+01  0.00000000000E+00 0. -1.
         11    1    3    3    0    0  0.10661971818E+02 -0.16141664694E+02  0.31112679160E+02  0.36636454344E+02  0.51100000000E-03 0. -1.
        -11    1    3    3    0    0 -0.10203656911E+01 -0.90896190496E+01  0.36020259497E+01  0.98304075100E+01  0.51100000000E-03 0.  1.
        -12    1    3    3    0    0 -0.10496928869E+02  0.24459583928E+02 -0.34457964555E+02  0.43540878298E+02  0.00000000000E+00 0.  1.
</event>
<event>
 7    1  0.1999542E-015  0.9000781E+02  0.7816164E-02  0.1186339E+00
        -11   -1    0    0    0    0  0.00000000000E+00  0.00000000000E+00  0.45593999997E+02  0.45594000000E+02  0.51100000000E-03 0. -1.
         11   -1    0    0    0    0 -0.00000000000E+00 -0.00000000000E+00 -0.45593999997E+02  0.45594000000E+02  0.51100000000E-03 0.  1.
    9900012    2    1    2    0    0 -0.10157733825E+01  0.37829298314E+00  0.46686077011E+00  0.90007805048E+02  0.90000067275E+02 0.  0.
         12    1    1    2    0    0  0.10157733825E+01 -0.37829298314E+00 -0.46686077011E+00  0.11801949519E+01  0.00000000000E+00 0. -1.
         11    1    3    3    0    0  0.40421102224E+00  0.86102132010E+01 -0.21678466075E+00  0.86224215721E+01  0.51100000000E-03 0. -1.
        -11    1    3    3    0    0 -0.89082368364E+01  0.10760648087E+02 -0.36435879876E+02  0.39022065212E+02  0.51100000000E-03 0.  1.
         12    1    3    3    0    0  0.74882524316E+01 -0.18992568305E+02  0.37119525307E+02  0.42363318264E+02  0.00000000000E+00 0. -1.
</event>
<event>
 7    1  0.1999542E-015  0.9000774E+02  0.7816164E-02  0.1186339E+00
        -11   -1    0    0    0    0  0.00000000000E+00  0.00000000000E+00  0.45593999997E+02  0.45594000000E+02  0.51100000000E-03 0.  1.
         11   -1    0    0    0    0 -0.00000000000E+00 -0.00000000000E+00 -0.45593999997E+02  0.45594000000E+02  0.51100000000E-03 0. -1.
    9900012    2    1    2    0    0  0.74559642364E+00  0.38300763330E+00  0.83091111504E+00  0.90007736404E+02  0.89999997725E+02 0.  0.
         12    1    1    2    0    0 -0.74559642364E+00 -0.38300763330E+00 -0.83091111504E+00  0.11802635957E+01  0.00000000000E+00 0. -1.
         11    1    3    3    0    0 -0.24061274427E+02 -0.13787560586E+02 -0.26066360283E+02  0.38059123645E+02  0.51100000000E-03 0. -1.
        -11    1    3    3    0    0  0.16264396055E+02 -0.88336401104E+01  0.18079334493E+02  0.25873270234E+02  0.51100000000E-03 0.  1.
        -12    1    3    3    0    0  0.85424747954E+01  0.23004208330E+02  0.88179369056E+01  0.26075342525E+02  0.00000000000E+00 0.  1.
</event>
<event>
 7    1  0.1999542E-015  0.9000775E+02  0.7816164E-02  0.1186339E+00
        -11   -1    0    0    0    0  0.00000000000E+00  0.00000000000E+00  0.45593999997E+02  0.45594000000E+02  0.51100000000E-03 0.  1.
         11   -1    0    0    0    0 -0.00000000000E+00 -0.00000000000E+00 -0.45593999997E+02  0.45594000000E+02  0.51100000000E-03 0. -1.
    9900012    2    1    2    0    0  0.77274082170E+00  0.73798231744E+00  0.50124174630E+00  0.90007750210E+02  0.90000011713E+02 0.  0.
         12    1    1    2    0    0 -0.77274082170E+00 -0.73798231744E+00 -0.50124174630E+00  0.11802497899E+01  0.00000000000E+00 0. -1.
         11    1    3    3    0    0 -0.17086763602E+02  0.32917061055E+02  0.23145837799E+02  0.43717504579E+02  0.51100000000E-03 0. -1.
        -11    1    3    3    0    0 -0.15644287743E+01  0.96960166610E+00 -0.18230641884E+01  0.25905845049E+01  0.51100000000E-03 0.  1.
        -12    1    3    3    0    0  0.19423933198E+02 -0.33148680404E+02 -0.20821531865E+02  0.43699661127E+02  0.00000000000E+00 0.  1.
</event>
<event>
 7    1  0.1999542E-015  0.9000774E+02  0.7816164E-02  0.1186339E+00
        -11   -1    0    0    0    0  0.00000000000E+00  0.00000000000E+00  0.45593999997E+02  0.45594000000E+02  0.51100000000E-03 0.  1.
         11   -1    0    0    0    0 -0.00000000000E+00 -0.00000000000E+00 -0.45593999997E+02  0.45594000000E+02  0.51100000000E-03 0. -1.
    9900012    2    1    2    0    0 -0.15541628235E+00  0.10809337638E+01  0.44770203037E+00  0.90007741922E+02  0.90000003315E+02 0.  0.
         12    1    1    2    0    0  0.15541628235E+00 -0.10809337638E+01 -0.44770203037E+00  0.11802580779E+01  0.00000000000E+00 0. -1.
         11    1    3    3    0    0 -0.29963861370E+02  0.18006852257E+02 -0.13266827334E+02  0.37391020636E+02  0.51100000000E-03 0. -1.
        -11    1    3    3    0    0 -0.66576584474E+01  0.14797923474E+01  0.92975300767E+01  0.11530753106E+02  0.51100000000E-03 0.  1.
        -12    1    3    3    0    0  0.36466103535E+02 -0.18405710841E+02  0.44169992879E+01  0.41085968180E+02  0.00000000000E+00 0.  1.
</event>
<event>
 7    1  0.1999542E-015  0.9000776E+02  0.7816164E-02  0.1186339E+00
        -11   -1    0    0    0    0  0.00000000000E+00  0.00000000000E+00  0.45593999997E+02  0.45594000000E+02  0.51100000000E-03 0.  1.
         11   -1    0    0    0    0 -0.00000000000E+00 -0.00000000000E+00 -0.45593999997E+02  0.45594000000E+02  0.51100000000E-03 0. -1.
    9900012    2    1    2    0    0 -0.26876917513E+00 -0.97820185836E+00  0.60320596255E+00  0.90007757153E+02  0.90000018747E+02 0.  0.
         12    1    1    2    0    0  0.26876917513E+00  0.97820185836E+00 -0.60320596255E+00  0.11802428472E+01  0.00000000000E+00 0. -1.
         11    1    3    3    0    0 -0.71295416812E+01 -0.13597654888E+02 -0.32481735957E+02  0.35927562596E+02  0.51100000000E-03 0. -1.
        -11    1    3    3    0    0  0.15198332886E+01  0.59583000013E+01 -0.91315849486E+01  0.11008954358E+02  0.51100000000E-03 0.  1.
        -12    1    3    3    0    0  0.53409392174E+01  0.66611530284E+01  0.42216526868E+02  0.43071240198E+02  0.00000000000E+00 0.  1.
</event>
<event>
 7    1  0.1999542E-015  0.9000775E+02  0.7816164E-02  0.1186339E+00
        -11   -1    0    0    0    0  0.00000000000E+00  0.00000000000E+00  0.45593999997E+02  0.45594000000E+02  0.51100000000E-03 0.  1.
         11   -1    0    0    0    0 -0.00000000000E+00 -0.00000000000E+00 -0.45593999997E+02  0.45594000000E+02  0.51100000000E-03 0. -1.
    9900012    2    1    2    0    0 -0.59479127802E+00  0.17505623075E+00  0.10042805455E+01  0.90007745467E+02  0.90000006907E+02 0.  0.
         12    1    1    2    0    0  0.59479127802E+00 -0.17505623075E+00 -0.10042805455E+01  0.11802545329E+01  0.00000000000E+00 0. -1.
         11    1    3    3    0    0 -0.50750759726E+01  0.19774026118E+02 -0.30277983992E+02  0.36517459111E+02  0.51100000000E-03 0. -1.
        -11    1    3    3    0    0  0.66977554468E+01  0.29807961306E+01 -0.62497652129E+01  0.96335164439E+01  0.51100000000E-03 0.  1.
        -12    1    3    3    0    0 -0.22174707523E+01 -0.22579766018E+02  0.37532029750E+02  0.43856769912E+02  0.00000000000E+00 0.  1.
</event>
<event>
 7    1  0.1999542E-015  0.9000765E+02  0.7816164E-02  0.1186339E+00
        -11   -1    0    0    0    0  0.00000000000E+00  0.00000000000E+00  0.45593999997E+02  0.45594000000E+02  0.51100000000E-03 0. -1.
         11   -1    0    0    0    0 -0.00000000000E+00 -0.00000000000E+00 -0.45593999997E+02  0.45594000000E+02  0.51100000000E-03 0.  1.
    9900012    2    1    2    0    0  0.96770856555E+00  0.54428270168E+00  0.40065519676E+00  0.90007649156E+02  0.89999909325E+02 0.  0.
         12    1    1    2    0    0 -0.96770856555E+00 -0.54428270168E+00 -0.40065519676E+00  0.11803508436E+01  0.00000000000E+00 0. -1.
         11    1    3    3    0    0  0.29086910302E+01  0.74875544995E+01 -0.43805061621E+01  0.91494694049E+01  0.51100000000E-03 0. -1.
        -11    1    3    3    0    0 -0.25289007078E+02 -0.24019476624E+02 -0.22165508406E+02  0.41325281602E+02  0.51100000000E-03 0.  1.
         12    1    3    3    0    0  0.23348024614E+02  0.17076204827E+02  0.26946669765E+02  0.39532898149E+02  0.00000000000E+00 0. -1.
</event>
<event>
 7    1  0.1999542E-015  0.9000765E+02  0.7816164E-02  0.1186339E+00
        -11   -1    0    0    0    0  0.00000000000E+00  0.00000000000E+00  0.45593999997E+02  0.45594000000E+02  0.51100000000E-03 0.  1.
         11   -1    0    0    0    0 -0.00000000000E+00 -0.00000000000E+00 -0.45593999997E+02  0.45594000000E+02  0.51100000000E-03 0. -1.
    9900012    2    1    2    0    0 -0.41700531590E+00  0.17815681563E+00  0.10897638021E+01  0.90007653259E+02  0.89999913482E+02 0.  0.
         12    1    1    2    0    0  0.41700531590E+00 -0.17815681563E+00 -0.10897638021E+01  0.11803467409E+01  0.00000000000E+00 0. -1.
         11    1    3    3    0    0 -0.44898380988E+01  0.43059927591E+01 -0.74170536094E+01  0.96805425623E+01  0.51100000000E-03 0. -1.
        -11    1    3    3    0    0 -0.32211798069E+02 -0.97275590180E+00 -0.16443391858E+02  0.36179155945E+02  0.51100000000E-03 0.  1.
         12    1    3    3    0    0  0.36284630852E+02 -0.31550800417E+01  0.24950209270E+02  0.44147954751E+02  0.00000000000E+00 0. -1.
</event>
<event>
 7    1  0.1999542E-015  0.9000776E+02  0.7816164E-02  0.1186339E+00
        -11   -1    0    0    0    0  0.00000000000E+00  0.00000000000E+00  0.45593999997E+02  0.45594000000E+02  0.51100000000E-03 0.  1.
         11   -1    0    0    0    0 -0.00000000000E+00 -0.00000000000E+00 -0.45593999997E+02  0.45594000000E+02  0.51100000000E-03 0. -1.
    9900012    2    1    2    0    0  0.78580015255E+00  0.82373518542E+00  0.31137063034E+00  0.90007757142E+02  0.90000018736E+02 0.  0.
         12    1    1    2    0    0 -0.78580015255E+00 -0.82373518542E+00 -0.31137063034E+00  0.11802428584E+01  0.00000000000E+00 0. -1.
         11    1    3    3    0    0  0.15066025251E+02 -0.22395100149E+02 -0.13109420226E+02  0.30006374764E+02  0.51100000000E-03 0. -1.
        -11    1    3    3    0    0  0.18152145922E+02 -0.72573156814E+00  0.43097452940E+01  0.18670859451E+02  0.51100000000E-03 0.  1.
        -12    1    3    3    0    0 -0.32432371020E+02  0.23944566902E+02  0.91110455626E+01  0.41330522927E+02  0.00000000000E+00 0.  1.
</event>
<event>
 7    1  0.1999542E-015  0.9000772E+02  0.7816164E-02  0.1186339E+00
        -11   -1    0    0    0    0  0.00000000000E+00  0.00000000000E+00  0.45593999997E+02  0.45594000000E+02  0.51100000000E-03 0.  1.
         11   -1    0    0    0    0 -0.00000000000E+00 -0.00000000000E+00 -0.45593999997E+02  0.45594000000E+02  0.51100000000E-03 0. -1.
    9900012    2    1    2    0    0  0.55594262745E+00  0.10383819679E+01  0.75827104734E-01  0.90007720768E+02  0.89999981882E+02 0.  0.
         12    1    1    2    0    0 -0.55594262745E+00 -0.10383819679E+01 -0.75827104734E-01  0.11802792322E+01  0.00000000000E+00 0. -1.
         11    1    3    3    0    0 -0.62422150828E+01 -0.15523249912E+02 -0.36726363624E+02  0.40357927626E+02  0.51100000000E-03 0. -1.
        -11    1    3    3    0    0  0.33128928983E+01 -0.78459625598E+00 -0.39546733504E+01  0.52182652490E+01  0.51100000000E-03 0.  1.
        -12    1    3    3    0    0  0.34852648120E+01  0.17346228136E+02  0.40756864079E+02  0.44431527893E+02  0.00000000000E+00 0.  1.
</event>
<event>
 7    1  0.1999542E-015  0.9000764E+02  0.7816164E-02  0.1186339E+00
        -11   -1    0    0    0    0  0.00000000000E+00  0.00000000000E+00  0.45593999997E+02  0.45594000000E+02  0.51100000000E-03 0.  1.
         11   -1    0    0    0    0 -0.00000000000E+00 -0.00000000000E+00 -0.45593999997E+02  0.45594000000E+02  0.51100000000E-03 0. -1.
    9900012    2    1    2    0    0 -0.11385795514E+01 -0.63150878247E-01  0.30480781783E+00  0.90007635974E+02  0.89999895969E+02 0.  0.
         12    1    1    2    0    0  0.11385795514E+01  0.63150878247E-01 -0.30480781783E+00  0.11803640261E+01  0.00000000000E+00 0. -1.
         11    1    3    3    0    0 -0.34739085999E+02 -0.12990064256E+02  0.13196923415E+02  0.39366288284E+02  0.51100000000E-03 0. -1.
        -11    1    3    3    0    0 -0.16841533341E+01 -0.45268491690E+01  0.53902037254E+01  0.72376123352E+01  0.51100000000E-03 0.  1.
        -12    1    3    3    0    0  0.35284659781E+02  0.17453762546E+02 -0.18282319323E+02  0.43403735355E+02  0.00000000000E+00 0.  1.
</event>
<event>
 7    1  0.1999542E-015  0.9000796E+02  0.7816164E-02  0.1186339E+00
        -11   -1    0    0    0    0  0.00000000000E+00  0.00000000000E+00  0.45593999997E+02  0.45594000000E+02  0.51100000000E-03 0. -1.
         11   -1    0    0    0    0 -0.00000000000E+00 -0.00000000000E+00 -0.45593999997E+02  0.45594000000E+02  0.51100000000E-03 0.  1.
    9900012    2    1    2    0    0  0.93295450424E+00 -0.22696039303E-01  0.72219609472E+00  0.90007963383E+02  0.90000227700E+02 0.  0.
         12    1    1    2    0    0 -0.93295450424E+00  0.22696039303E-01 -0.72219609472E+00  0.11800366166E+01  0.00000000000E+00 0. -1.
         11    1    3    3    0    0  0.40611440710E+02  0.11430534728E+02  0.13192496319E+02  0.44203938739E+02  0.51100000000E-03 0. -1.
        -11    1    3    3    0    0 -0.95708834970E+01  0.34108342992E+01 -0.55503404744E+00  0.10175640746E+02  0.51100000000E-03 0.  1.
        -12    1    3    3    0    0 -0.30107602709E+02 -0.14864065066E+02 -0.11915266177E+02  0.35628383898E+02  0.00000000000E+00 0.  1.
</event>
<event>
 7    1  0.1999542E-015  0.9000768E+02  0.7816164E-02  0.1186339E+00
        -11   -1    0    0    0    0  0.00000000000E+00  0.00000000000E+00  0.45593999997E+02  0.45594000000E+02  0.51100000000E-03 0.  1.
         11   -1    0    0    0    0 -0.00000000000E+00 -0.00000000000E+00 -0.45593999997E+02  0.45594000000E+02  0.51100000000E-03 0. -1.
    9900012    2    1    2    0    0 -0.69848435726E-01 -0.10649647631E+01 -0.50412014976E+00  0.90007675521E+02  0.89999936038E+02 0.  0.
         12    1    1    2    0    0  0.69848435726E-01  0.10649647631E+01  0.50412014976E+00  0.11803244791E+01  0.00000000000E+00 0. -1.
         11    1    3    3    0    0  0.60355183709E+01 -0.30434885983E+02  0.30196503670E+02  0.43295942084E+02  0.51100000000E-03 0. -1.
        -11    1    3    3    0    0 -0.82270036223E+01  0.42549384824E+01 -0.43000725689E+01  0.10211694984E+02  0.51100000000E-03 0.  1.
        -12    1    3    3    0    0  0.21216368156E+01  0.25114982737E+02 -0.26400551251E+02  0.36500038452E+02  0.00000000000E+00 0.  1.
</event>
<event>
 7    1  0.1999542E-015  0.9000769E+02  0.7816164E-02  0.1186339E+00
        -11   -1    0    0    0    0  0.00000000000E+00  0.00000000000E+00  0.45593999997E+02  0.45594000000E+02  0.51100000000E-03 0. -1.
         11   -1    0    0    0    0 -0.00000000000E+00 -0.00000000000E+00 -0.45593999997E+02  0.45594000000E+02  0.51100000000E-03 0.  1.
    9900012    2    1    2    0    0 -0.97215824906E+00 -0.58934610751E+00 -0.31734469962E+00  0.90007691500E+02  0.89999952228E+02 0.  0.
         12    1    1    2    0    0  0.97215824906E+00  0.58934610751E+00  0.31734469962E+00  0.11803084995E+01  0.00000000000E+00 0. -1.
         11    1    3    3    0    0  0.17520459348E+02  0.30048596258E+02 -0.50429223735E+01  0.35147058187E+02  0.51100000000E-03 0. -1.
        -11    1    3    3    0    0 -0.39005454846E+01  0.65243539457E+01 -0.97764618027E+01  0.12383886915E+02  0.51100000000E-03 0.  1.
        -12    1    3    3    0    0 -0.14592072113E+02 -0.37162296311E+02  0.14502039477E+02  0.42476746399E+02  0.00000000000E+00 0.  1.
</event>
<event>
 7    1  0.1999542E-015  0.9000785E+02  0.7816164E-02  0.1186339E+00
        -11   -1    0    0    0    0  0.00000000000E+00  0.00000000000E+00  0.45593999997E+02  0.45594000000E+02  0.51100000000E-03 0.  1.
         11   -1    0    0    0    0 -0.00000000000E+00 -0.00000000000E+00 -0.45593999997E+02  0.45594000000E+02  0.51100000000E-03 0. -1.
    9900012    2    1    2    0    0 -0.81564417774E+00 -0.69185847962E+00 -0.49879735325E+00  0.90007854933E+02  0.90000117818E+02 0.  0.
         12    1    1    2    0    0  0.81564417774E+00  0.69185847962E+00  0.49879735325E+00  0.11801450674E+01  0.00000000000E+00 0. -1.
         11    1    3    3    0    0  0.33951929142E+02  0.15555005951E+02  0.12975945370E+02  0.39535640391E+02  0.51100000000E-03 0. -1.
        -11    1    3    3    0    0 -0.60329528995E+01  0.61634121131E+01  0.46227366374E+01  0.97853903266E+01  0.51100000000E-03 0.  1.
        -12    1    3    3    0    0 -0.28734620421E+02 -0.22410276544E+02 -0.18097479360E+02  0.40686824215E+02  0.00000000000E+00 0.  1.
</event>
<event>
 7    1  0.1999542E-015  0.9000774E+02  0.7816164E-02  0.1186339E+00
        -11   -1    0    0    0    0  0.00000000000E+00  0.00000000000E+00  0.45593999997E+02  0.45594000000E+02  0.51100000000E-03 0. -1.
         11   -1    0    0    0    0 -0.00000000000E+00 -0.00000000000E+00 -0.45593999997E+02  0.45594000000E+02  0.51100000000E-03 0.  1.
    9900012    2    1    2    0    0  0.23502423540E+00  0.16044780560E+00 -0.11454414232E+01  0.90007739036E+02  0.90000000391E+02 0.  0.
         12    1    1    2    0    0 -0.23502423540E+00 -0.16044780560E+00  0.11454414232E+01  0.11802609642E+01  0.00000000000E+00 0. -1.
         11    1    3    3    0    0  0.93211624090E+01  0.20224142568E+01 -0.26885744476E+01  0.99097255715E+01  0.51100000000E-03 0. -1.
        -11    1    3    3    0    0  0.22184992011E+02  0.21585446317E+02 -0.18616028714E+02  0.36120103662E+02  0.51100000000E-03 0.  1.
         12    1    3    3    0    0 -0.31271130184E+02 -0.23447412768E+02  0.20159161739E+02  0.43977909802E+02  0.00000000000E+00 0. -1.
</event>
<event>
 7    1  0.1999542E-015  0.9000774E+02  0.7816164E-02  0.1186339E+00
        -11   -1    0    0    0    0  0.00000000000E+00  0.00000000000E+00  0.45593999997E+02  0.45594000000E+02  0.51100000000E-03 0.  1.
         11   -1    0    0    0    0 -0.00000000000E+00 -0.00000000000E+00 -0.45593999997E+02  0.45594000000E+02  0.51100000000E-03 0. -1.
    9900012    2    1    2    0    0 -0.10253084346E+01  0.38012663475E+00  0.44413171314E+00  0.90007742984E+02  0.90000004392E+02 0.  0.
         12    1    1    2    0    0  0.10253084346E+01 -0.38012663475E+00 -0.44413171314E+00  0.11802570157E+01  0.00000000000E+00 0. -1.
         11    1    3    3    0    0  0.67098236242E+01  0.18309931172E+01 -0.37530201103E+02  0.38169231902E+02  0.51100000000E-03 0. -1.
        -11    1    3    3    0    0  0.39879275219E+01 -0.61342001105E+01 -0.37674536298E+01  0.82295615940E+01  0.51100000000E-03 0.  1.
        -12    1    3    3    0    0 -0.11723059581E+02  0.46833336280E+01  0.41741786446E+02  0.43608949489E+02  0.00000000000E+00 0.  1.
</event>
<event>
 7    1  0.1999542E-015  0.9000772E+02  0.7816164E-02  0.1186339E+00
        -11   -1    0    0    0    0  0.00000000000E+00  0.00000000000E+00  0.45593999997E+02  0.45594000000E+02  0.51100000000E-03 0. -1.
         11   -1    0    0    0    0 -0.00000000000E+00 -0.00000000000E+00 -0.45593999997E+02  0.45594000000E+02  0.51100000000E-03 0.  1.
    9900012    2    1    2    0    0 -0.35689597870E+00 -0.97577260796E+00 -0.55996680012E+00  0.90007716246E+02  0.89999977301E+02 0.  0.
         12    1    1    2    0    0  0.35689597870E+00  0.97577260796E+00  0.55996680012E+00  0.11802837537E+01  0.00000000000E+00 0. -1.
         11    1    3    3    0    0 -0.35357316714E+02  0.17970851178E+02  0.18288786726E+02  0.43675749077E+02  0.51100000000E-03 0. -1.
        -11    1    3    3    0    0  0.47483689164E+01 -0.94853612338E+01 -0.53496847900E+01  0.11880160467E+02  0.51100000000E-03 0.  1.
        -12    1    3    3    0    0  0.30252051819E+02 -0.94612625517E+01 -0.13499068736E+02  0.34451806703E+02  0.00000000000E+00 0.  1.
</event>
<event>
 7    1  0.1999542E-015  0.9000756E+02  0.7816164E-02  0.1186339E+00
        -11   -1    0    0    0    0  0.00000000000E+00  0.00000000000E+00  0.45593999997E+02  0.45594000000E+02  0.51100000000E-03 0.  1.
         11   -1    0    0    0    0 -0.00000000000E+00 -0.00000000000E+00 -0.45593999997E+02  0.45594000000E+02  0.51100000000E-03 0. -1.
    9900012    2    1    2    0    0  0.85221192771E+00  0.96196402103E-01  0.81112806529E+00  0.90007556162E+02  0.89999815103E+02 0.  0.
         12    1    1    2    0    0 -0.85221192771E+00 -0.96196402103E-01 -0.81112806529E+00  0.11804438385E+01  0.00000000000E+00 0. -1.
         11    1    3    3    0    0  0.32158157019E+02 -0.14812040350E+02 -0.60448539968E+01  0.35917737433E+02  0.51100000000E-03 0. -1.
        -11    1    3    3    0    0  0.62993251825E+01 -0.74306461418E+01  0.29374681994E+01  0.10174709800E+02  0.51100000000E-03 0.  1.
        -12    1    3    3    0    0 -0.37605270274E+02  0.22338882893E+02  0.39185138628E+01  0.43915108928E+02  0.00000000000E+00 0.  1.
</event>
<event>
 7    1  0.1999542E-015  0.9000785E+02  0.7816164E-02  0.1186339E+00
        -11   -1    0    0    0    0  0.00000000000E+00  0.00000000000E+00  0.45593999997E+02  0.45594000000E+02  0.51100000000E-03 0.  1.
         11   -1    0    0    0    0 -0.00000000000E+00 -0.00000000000E+00 -0.45593999997E+02  0.45594000000E+02  0.51100000000E-03 0. -1.
    9900012    2    1    2    0    0  0.19451273512E+00 -0.80973697400E+00  0.83621289218E+00  0.90007846971E+02  0.90000109751E+02 0.  0.
         12    1    1    2    0    0 -0.19451273512E+00  0.80973697400E+00 -0.83621289218E+00  0.11801530292E+01  0.00000000000E+00 0. -1.
         11    1    3    3    0    0 -0.33810039314E+02 -0.11072093974E+01 -0.94001512745E+01  0.35109934710E+02  0.51100000000E-03 0. -1.
        -11    1    3    3    0    0  0.66795839285E+01 -0.93627721773E+01 -0.13285066401E+02  0.17571890446E+02  0.51100000000E-03 0.  1.
        -12    1    3    3    0    0  0.27324968121E+02  0.96602446007E+01  0.23521430568E+02  0.37326021815E+02  0.00000000000E+00 0.  1.
</event>
<event>
 7    1  0.1999542E-015  0.9000777E+02  0.7816164E-02  0.1186339E+00
        -11   -1    0    0    0    0  0.00000000000E+00  0.00000000000E+00  0.45593999997E+02  0.45594000000E+02  0.51100000000E-03 0. -1.
         11   -1    0    0    0    0 -0.00000000000E+00 -0.00000000000E+00 -0.45593999997E+02  0.45594000000E+02  0.51100000000E-03 0.  1.
    9900012    2    1    2    0    0 -0.85258473812E+00  0.55817666915E+00 -0.59537680142E+00  0.90007773130E+02  0.90000034935E+02 0.  0.
         12    1    1    2    0    0  0.85258473812E+00 -0.55817666915E+00  0.59537680142E+00  0.11802268703E+01  0.00000000000E+00 0. -1.
         11    1    3    3    0    0  0.12207419445E+02  0.57827554099E+00  0.37648322999E+02  0.39582214655E+02  0.51100000000E-03 0. -1.
        -11    1    3    3    0    0  0.67663388993E+01 -0.70966246825E+01 -0.48228432404E+01  0.10927270527E+02  0.51100000000E-03 0.  1.
        -12    1    3    3    0    0 -0.19826343082E+02  0.70765258106E+01 -0.33420856560E+02  0.39498287948E+02  0.00000000000E+00 0.  1.
</event>
<event>
 7    1  0.1999542E-015  0.9000774E+02  0.7816164E-02  0.1186339E+00
        -11   -1    0    0    0    0  0.00000000000E+00  0.00000000000E+00  0.45593999997E+02  0.45594000000E+02  0.51100000000E-03 0.  1.
         11   -1    0    0    0    0 -0.00000000000E+00 -0.00000000000E+00 -0.45593999997E+02  0.45594000000E+02  0.51100000000E-03 0. -1.
    9900012    2    1    2    0    0 -0.61780727681E+00 -0.96178643316E+00  0.29374693757E+00  0.90007743148E+02  0.90000004557E+02 0.  0.
         12    1    1    2    0    0  0.61780727681E+00  0.96178643316E+00 -0.29374693757E+00  0.11802568524E+01  0.00000000000E+00 0. -1.
         11    1    3    3    0    0 -0.87402576882E+01 -0.10064268033E+01  0.74771122045E+01  0.11546090531E+02  0.51100000000E-03 0. -1.
        -11    1    3    3    0    0 -0.17441547755E+02  0.16039003521E+02  0.24940404629E+02  0.34401758754E+02  0.51100000000E-03 0.  1.
         12    1    3    3    0    0  0.25563998167E+02 -0.15994363150E+02 -0.32123769896E+02  0.44059893863E+02  0.00000000000E+00 0. -1.
</event>
<event>
 7    1  0.1999542E-015  0.9000775E+02  0.7816164E-02  0.1186339E+00
        -11   -1    0    0    0    0  0.00000000000E+00  0.00000000000E+00  0.45593999997E+02  0.45594000000E+02  0.51100000000E-03 0. -1.
         11   -1    0    0    0    0 -0.00000000000E+00 -0.00000000000E+00 -0.45593999997E+02  0.45594000000E+02  0.51100000000E-03 0.  1.
    9900012    2    1    2    0    0  0.67458379869E+00 -0.26421278357E+00 -0.93172610166E+00  0.90007752049E+02  0.90000013576E+02 0.  0.
         12    1    1    2    0    0 -0.67458379869E+00  0.26421278357E+00  0.93172610166E+00  0.11802479506E+01  0.00000000000E+00 0. -1.
         11    1    3    3    0    0 -0.86095633631E+01  0.34492655628E+01 -0.22037913840E+00  0.92774232118E+01  0.51100000000E-03 0. -1.
        -11    1    3    3    0    0 -0.76875055074E+01  0.91869010643E+01 -0.36863435954E+02  0.38760931396E+02  0.51100000000E-03 0.  1.
         12    1    3    3    0    0  0.16971652669E+02 -0.12900379411E+02  0.36152088990E+02  0.41969397442E+02  0.00000000000E+00 0. -1.
</event>
<event>
 7    1  0.1999542E-015  0.9000716E+02  0.7816164E-02  0.1186340E+00
        -11   -1    0    0    0    0  0.00000000000E+00  0.00000000000E+00  0.45593999997E+02  0.45594000000E+02  0.51100000000E-03 0. -1.
         11   -1    0    0    0    0 -0.00000000000E+00 -0.00000000000E+00 -0.45593999997E+02  0.45594000000E+02  0.51100000000E-03 0.  1.
    9900012    2    1    2    0    0 -0.77735944621E+00 -0.82285294177E+00 -0.33618074096E+00  0.90007156165E+02  0.89999409824E+02 0.  0.
         12    1    1    2    0    0  0.77735944621E+00  0.82285294177E+00  0.33618074096E+00  0.11808438351E+01  0.00000000000E+00 0. -1.
         11    1    3    3    0    0  0.54278067092E+01 -0.55551391017E+01 -0.41089507376E+01  0.87865882194E+01  0.51100000000E-03 0. -1.
        -11    1    3    3    0    0 -0.22261785559E+02  0.34890306386E+02 -0.12698029564E+02  0.43291575752E+02  0.51100000000E-03 0.  1.
         12    1    3    3    0    0  0.16056619404E+02 -0.30158020226E+02  0.16470799561E+02  0.37928992194E+02  0.00000000000E+00 0. -1.
</event>
<event>
 7    1  0.1999542E-015  0.9000775E+02  0.7816164E-02  0.1186339E+00
        -11   -1    0    0    0    0  0.00000000000E+00  0.00000000000E+00  0.45593999997E+02  0.45594000000E+02  0.51100000000E-03 0.  1.
         11   -1    0    0    0    0 -0.00000000000E+00 -0.00000000000E+00 -0.45593999997E+02  0.45594000000E+02  0.51100000000E-03 0. -1.
    9900012    2    1    2    0    0  0.31229686574E-01  0.12673560892E+00  0.11730074701E+01  0.90007752681E+02  0.90000014217E+02 0.  0.
         12    1    1    2    0    0 -0.31229686574E-01 -0.12673560892E+00 -0.11730074701E+01  0.11802473185E+01  0.00000000000E+00 0. -1.
         11    1    3    3    0    0  0.14807273547E+02 -0.11266477360E+01 -0.74738233757E+01  0.16624762288E+02  0.51100000000E-03 0. -1.
        -11    1    3    3    0    0  0.80198323714E+01 -0.18230401858E+02  0.30395058483E+02  0.36339026454E+02  0.51100000000E-03 0.  1.
         12    1    3    3    0    0 -0.22795876232E+02  0.19483785203E+02 -0.21748227637E+02  0.37043963940E+02  0.00000000000E+00 0. -1.
</event>
<event>
 7    1  0.1999542E-015  0.9000772E+02  0.7816164E-02  0.1186339E+00
        -11   -1    0    0    0    0  0.00000000000E+00  0.00000000000E+00  0.45593999997E+02  0.45594000000E+02  0.51100000000E-03 0.  1.
         11   -1    0    0    0    0 -0.00000000000E+00 -0.00000000000E+00 -0.45593999997E+02  0.45594000000E+02  0.51100000000E-03 0. -1.
    9900012    2    1    2    0    0 -0.10445635060E+00  0.11479322554E+01 -0.25378636181E+00  0.90007717360E+02  0.89999978429E+02 0.  0.
         12    1    1    2    0    0  0.10445635060E+00 -0.11479322554E+01  0.25378636181E+00  0.11802826397E+01  0.00000000000E+00 0. -1.
         11    1    3    3    0    0  0.18995802160E+01  0.79815244264E+01  0.59605716362E+01  0.10141082371E+02  0.51100000000E-03 0. -1.
        -11    1    3    3    0    0  0.23757837087E+02  0.68622239677E+01  0.26354939969E+02  0.36140113473E+02  0.51100000000E-03 0.  1.
         12    1    3    3    0    0 -0.25761873654E+02 -0.13695816139E+02 -0.32569297967E+02  0.43726521516E+02  0.00000000000E+00 0. -1.
</event>
<event>
 7    1  0.1999542E-015  0.9000677E+02  0.7816164E-02  0.1186341E+00
        -11   -1    0    0    0    0  0.00000000000E+00  0.00000000000E+00  0.45593999997E+02  0.45594000000E+02  0.51100000000E-03 0. -1.
         11   -1    0    0    0    0 -0.00000000000E+00 -0.00000000000E+00 -0.45593999997E+02  0.45594000000E+02  0.51100000000E-03 0.  1.
    9900012    2    1    2    0    0  0.11243872480E+01  0.25786571231E+00 -0.25407169394E+00  0.90006774435E+02  0.89999023053E+02 0.  0.
         12    1    1    2    0    0 -0.11243872480E+01 -0.25786571231E+00  0.25407169394E+00  0.11812255647E+01  0.00000000000E+00 0. -1.
         11    1    3    3    0    0 -0.31856714507E+02 -0.20315799014E+02 -0.31913250174E+01  0.37917891613E+02  0.51100000000E-03 0. -1.
        -11    1    3    3    0    0 -0.33662700642E+01 -0.19264970336E+01  0.81484669477E+01  0.90244489485E+01  0.51100000000E-03 0.  1.
        -12    1    3    3    0    0  0.36347371819E+02  0.22500161760E+02 -0.52112136242E+01  0.43064433873E+02  0.00000000000E+00 0.  1.
</event>
<event>
 7    1  0.1999542E-015  0.9000757E+02  0.7816164E-02  0.1186339E+00
        -11   -1    0    0    0    0  0.00000000000E+00  0.00000000000E+00  0.45593999997E+02  0.45594000000E+02  0.51100000000E-03 0. -1.
         11   -1    0    0    0    0 -0.00000000000E+00 -0.00000000000E+00 -0.45593999997E+02  0.45594000000E+02  0.51100000000E-03 0.  1.
    9900012    2    1    2    0    0  0.10253978918E+01  0.56984633941E+00  0.13132456254E+00  0.90007571337E+02  0.89999830479E+02 0.  0.
         12    1    1    2    0    0 -0.10253978918E+01 -0.56984633941E+00 -0.13132456254E+00  0.11804286627E+01  0.00000000000E+00 0. -1.
         11    1    3    3    0    0 -0.78616193017E+01 -0.26333017343E+01 -0.66343014373E+00  0.83174200258E+01  0.51100000000E-03 0. -1.
        -11    1    3    3    0    0  0.23774310043E+01 -0.24129095651E+02 -0.30937644163E+02  0.39306529505E+02  0.51100000000E-03 0.  1.
         12    1    3    3    0    0  0.65095861892E+01  0.27332243725E+02  0.31732398869E+02  0.42383621806E+02  0.00000000000E+00 0. -1.
</event>
<event>
 7    1  0.1999542E-015  0.9000777E+02  0.7816164E-02  0.1186339E+00
        -11   -1    0    0    0    0  0.00000000000E+00  0.00000000000E+00  0.45593999997E+02  0.45594000000E+02  0.51100000000E-03 0.  1.
         11   -1    0    0    0    0 -0.00000000000E+00 -0.00000000000E+00 -0.45593999997E+02  0.45594000000E+02  0.51100000000E-03 0. -1.
    9900012    2    1    2    0    0  0.37275885555E-02  0.59369188216E+00  0.10200272977E+01  0.90007771364E+02  0.90000033146E+02 0.  0.
         12    1    1    2    0    0 -0.37275885555E-02 -0.59369188216E+00 -0.10200272977E+01  0.11802286363E+01  0.00000000000E+00 0. -1.
         11    1    3    3    0    0  0.18606355197E+02  0.23805637623E+02  0.24987721102E+02  0.39208303234E+02  0.51100000000E-03 0. -1.
        -11    1    3    3    0    0  0.29066636095E+01  0.68176871389E+01 -0.68328192503E+01  0.10080524313E+02  0.51100000000E-03 0.  1.
        -12    1    3    3    0    0 -0.21509291218E+02 -0.30029632879E+02 -0.17134874554E+02  0.40718943817E+02  0.00000000000E+00 0.  1.
</event>
<event>
 7    1  0.1999542E-015  0.9000766E+02  0.7816164E-02  0.1186339E+00
        -11   -1    0    0    0    0  0.00000000000E+00  0.00000000000E+00  0.45593999997E+02  0.45594000000E+02  0.51100000000E-03 0. -1.
         11   -1    0    0    0    0 -0.00000000000E+00 -0.00000000000E+00 -0.45593999997E+02  0.45594000000E+02  0.51100000000E-03 0.  1.
    9900012    2    1    2    0    0  0.14732803929E+00  0.11675614637E-01 -0.11710496625E+01  0.90007661412E+02  0.89999921742E+02 0.  0.
         12    1    1    2    0    0 -0.14732803929E+00 -0.11675614637E-01  0.11710496625E+01  0.11803385884E+01  0.00000000000E+00 0. -1.
         11    1    3    3    0    0 -0.33614675035E+01 -0.77818452053E+01 -0.43361880921E+01  0.95215075491E+01  0.51100000000E-03 0. -1.
        -11    1    3    3    0    0 -0.26646514826E+02 -0.10933652502E+02 -0.22611025358E+02  0.36617481855E+02  0.51100000000E-03 0.  1.
         12    1    3    3    0    0  0.30155310369E+02  0.18727173322E+02  0.25776163788E+02  0.43868672007E+02  0.00000000000E+00 0. -1.
</event>
<event>
 7    1  0.1999542E-015  0.9000776E+02  0.7816164E-02  0.1186339E+00
        -11   -1    0    0    0    0  0.00000000000E+00  0.00000000000E+00  0.45593999997E+02  0.45594000000E+02  0.51100000000E-03 0.  1.
         11   -1    0    0    0    0 -0.00000000000E+00 -0.00000000000E+00 -0.45593999997E+02  0.45594000000E+02  0.51100000000E-03 0. -1.
    9900012    2    1    2    0    0  0.52647016680E+00 -0.29955501063E+00  0.10129423681E+01  0.90007764311E+02  0.90000026000E+02 0.  0.
         12    1    1    2    0    0 -0.52647016680E+00  0.29955501063E+00 -0.10129423681E+01  0.11802356892E+01  0.00000000000E+00 0. -1.
         11    1    3    3    0    0  0.89971142279E+01  0.47875302404E+01  0.19689114216E+01  0.10380034811E+02  0.51100000000E-03 0. -1.
        -11    1    3    3    0    0  0.33812227255E+02 -0.12406483266E+02  0.47877873130E+01  0.36333324189E+02  0.51100000000E-03 0.  1.
         12    1    3    3    0    0 -0.42282871316E+02  0.73193980146E+01 -0.57437563666E+01  0.43294405311E+02  0.00000000000E+00 0. -1.
</event>
<event>
 7    1  0.1999542E-015  0.9000859E+02  0.7816164E-02  0.1186337E+00
        -11   -1    0    0    0    0  0.00000000000E+00  0.00000000000E+00  0.45593999997E+02  0.45594000000E+02  0.51100000000E-03 0.  1.
         11   -1    0    0    0    0 -0.00000000000E+00 -0.00000000000E+00 -0.45593999997E+02  0.45594000000E+02  0.51100000000E-03 0. -1.
    9900012    2    1    2    0    0 -0.10971929245E+00  0.90070990723E+00  0.75344805904E+00  0.90008593099E+02  0.90000865724E+02 0.  0.
         12    1    1    2    0    0  0.10971929245E+00 -0.90070990723E+00 -0.75344805904E+00  0.11794069009E+01  0.00000000000E+00 0. -1.
         11    1    3    3    0    0  0.17619848489E+00  0.97031850455E+01 -0.22662572008E+00  0.97074304227E+01  0.51100000000E-03 0. -1.
        -11    1    3    3    0    0 -0.39981887772E+02 -0.25454971046E+01 -0.87371052850E+00  0.40072362991E+02  0.51100000000E-03 0.  1.
         12    1    3    3    0    0  0.39695969994E+02 -0.62569780337E+01  0.18537843076E+01  0.40228799686E+02  0.00000000000E+00 0. -1.
</event>
<event>
 7    1  0.1999542E-015  0.9000770E+02  0.7816164E-02  0.1186339E+00
        -11   -1    0    0    0    0  0.00000000000E+00  0.00000000000E+00  0.45593999997E+02  0.45594000000E+02  0.51100000000E-03 0.  1.
         11   -1    0    0    0    0 -0.00000000000E+00 -0.00000000000E+00 -0.45593999997E+02  0.45594000000E+02  0.51100000000E-03 0. -1.
    9900012    2    1    2    0    0 -0.59447316958E+00  0.84399647808E+00 -0.57217297082E+00  0.90007699058E+02  0.89999959886E+02 0.  0.
         12    1    1    2    0    0  0.59447316958E+00 -0.84399647808E+00  0.57217297082E+00  0.11803009417E+01  0.00000000000E+00 0. -1.
         11    1    3    3    0    0  0.22471162692E+01 -0.81009967630E+01  0.67508032217E+01  0.10781884088E+02  0.51100000000E-03 0. -1.
        -11    1    3    3    0    0  0.20993561190E+02  0.18644059135E+02  0.25218032204E+02  0.37739630377E+02  0.51100000000E-03 0.  1.
         12    1    3    3    0    0 -0.23835150629E+02 -0.96990658945E+01 -0.32541008396E+02  0.41486184594E+02  0.00000000000E+00 0. -1.
</event>
<event>
 7    1  0.1999542E-015  0.9000778E+02  0.7816164E-02  0.1186339E+00
        -11   -1    0    0    0    0  0.00000000000E+00  0.00000000000E+00  0.45593999997E+02  0.45594000000E+02  0.51100000000E-03 0.  1.
         11   -1    0    0    0    0 -0.00000000000E+00 -0.00000000000E+00 -0.45593999997E+02  0.45594000000E+02  0.51100000000E-03 0. -1.
    9900012    2    1    2    0    0  0.42405253337E+00 -0.71982966022E+00  0.83363854855E+00  0.90007776072E+02  0.90000037916E+02 0.  0.
         12    1    1    2    0    0 -0.42405253337E+00  0.71982966022E+00 -0.83363854855E+00  0.11802239281E+01  0.00000000000E+00 0. -1.
         11    1    3    3    0    0  0.18932591835E+02  0.28467801054E+02 -0.15460291963E+02  0.37521718488E+02  0.51100000000E-03 0. -1.
        -11    1    3    3    0    0 -0.47677016684E+01 -0.13540572681E+01 -0.10416359172E+02  0.11535379878E+02  0.51100000000E-03 0.  1.
        -12    1    3    3    0    0 -0.13740837633E+02 -0.27833573446E+02  0.26710289683E+02  0.40950677706E+02  0.00000000000E+00 0.  1.
</event>
<event>
 7    1  0.2195931E-015  0.9000786E+02  0.7816164E-02  0.1186339E+00
        -11   -1    0    0    0    0  0.00000000000E+00  0.00000000000E+00  0.45593999997E+02  0.45594000000E+02  0.51100000000E-03 0. -1.
         11   -1    0    0    0    0 -0.00000000000E+00 -0.00000000000E+00 -0.45593999997E+02  0.45594000000E+02  0.51100000000E-03 0.  1.
    9900012    2    1    2    0    0 -0.16698968092E+00  0.25743266443E+00 -0.11395459881E+01  0.90007863487E+02  0.90000126485E+02 0.  0.
         12    1    1    2    0    0  0.16698968092E+00 -0.25743266443E+00  0.11395459881E+01  0.11801365130E+01  0.00000000000E+00 0. -1.
         11    1    3    3    0    0  0.74413623797E+01 -0.48178700223E+01  0.29847185097E+01  0.93538382742E+01  0.51100000000E-03 0. -1.
        -11    1    3    3    0    0 -0.68080173848E+01  0.28660299029E+02 -0.32423236595E+02  0.43806713101E+02  0.51100000000E-03 0.  1.
         12    1    3    3    0    0 -0.80033467581E+00 -0.23584996343E+02  0.28298972097E+02  0.36847312112E+02  0.00000000000E+00 0. -1.
</event>
<event>
 7    1  0.1999542E-015  0.9000763E+02  0.7816164E-02  0.1186339E+00
        -11   -1    0    0    0    0  0.00000000000E+00  0.00000000000E+00  0.45593999997E+02  0.45594000000E+02  0.51100000000E-03 0.  1.
         11   -1    0    0    0    0 -0.00000000000E+00 -0.00000000000E+00 -0.45593999997E+02  0.45594000000E+02  0.51100000000E-03 0. -1.
    9900012    2    1    2    0    0  0.82689430217E+00  0.55984805382E+00  0.62936192224E+00  0.90007626983E+02  0.89999886859E+02 0.  0.
         12    1    1    2    0    0 -0.82689430217E+00 -0.55984805382E+00 -0.62936192224E+00  0.11803730171E+01  0.00000000000E+00 0. -1.
         11    1    3    3    0    0 -0.22558367615E+02  0.36146024052E+02 -0.65143268488E+01  0.43102801055E+02  0.51100000000E-03 0. -1.
        -11    1    3    3    0    0  0.70104759673E+01 -0.48703706254E+01 -0.51737699759E+01  0.99817422999E+01  0.51100000000E-03 0.  1.
        -12    1    3    3    0    0  0.16374785950E+02 -0.30715805373E+02  0.12317458747E+02  0.36923083628E+02  0.00000000000E+00 0.  1.
</event>
<event>
 7    1  0.1999542E-015  0.9000766E+02  0.7816164E-02  0.1186339E+00
        -11   -1    0    0    0    0  0.00000000000E+00  0.00000000000E+00  0.45593999997E+02  0.45594000000E+02  0.51100000000E-03 0. -1.
         11   -1    0    0    0    0 -0.00000000000E+00 -0.00000000000E+00 -0.45593999997E+02  0.45594000000E+02  0.51100000000E-03 0.  1.
    9900012    2    1    2    0    0 -0.22244803368E+00 -0.10894442767E+01  0.39603237730E+00  0.90007655303E+02  0.89999915553E+02 0.  0.
         12    1    1    2    0    0  0.22244803368E+00  0.10894442767E+01 -0.39603237730E+00  0.11803446970E+01  0.00000000000E+00 0. -1.
         11    1    3    3    0    0 -0.21956460585E+02  0.13112030380E+02 -0.12001168771E+02  0.28249593877E+02  0.51100000000E-03 0. -1.
        -11    1    3    3    0    0 -0.49135064384E+01  0.56282904196E+01 -0.16256205573E+02  0.17890903232E+02  0.51100000000E-03 0.  1.
         12    1    3    3    0    0  0.26647518989E+02 -0.19829765076E+02  0.28653406721E+02  0.43867158194E+02  0.00000000000E+00 0. -1.
</event>
<event>
 7    1  0.1999542E-015  0.9000758E+02  0.7816164E-02  0.1186339E+00
        -11   -1    0    0    0    0  0.00000000000E+00  0.00000000000E+00  0.45593999997E+02  0.45594000000E+02  0.51100000000E-03 0.  1.
         11   -1    0    0    0    0 -0.00000000000E+00 -0.00000000000E+00 -0.45593999997E+02  0.45594000000E+02  0.51100000000E-03 0. -1.
    9900012    2    1    2    0    0  0.87931832996E+00  0.77187497961E+00 -0.15619250159E+00  0.90007581512E+02  0.89999840788E+02 0.  0.
         12    1    1    2    0    0 -0.87931832996E+00 -0.77187497961E+00  0.15619250159E+00  0.11804184881E+01  0.00000000000E+00 0. -1.
         11    1    3    3    0    0 -0.11979779971E+02  0.53040702294E+01 -0.40381952953E+02  0.42454097726E+02  0.51100000000E-03 0. -1.
        -11    1    3    3    0    0  0.82635276052E+01 -0.32040094883E+01  0.20731767877E+01  0.91021770768E+01  0.51100000000E-03 0.  1.
        -12    1    3    3    0    0  0.45955706958E+01 -0.13281857614E+01  0.38152583664E+02  0.38451306709E+02  0.00000000000E+00 0.  1.
</event>
<event>
 7    1  0.1999542E-015  0.9000775E+02  0.7816164E-02  0.1186339E+00
        -11   -1    0    0    0    0  0.00000000000E+00  0.00000000000E+00  0.45593999997E+02  0.45594000000E+02  0.51100000000E-03 0. -1.
         11   -1    0    0    0    0 -0.00000000000E+00 -0.00000000000E+00 -0.45593999997E+02  0.45594000000E+02  0.51100000000E-03 0.  1.
    9900012    2    1    2    0    0  0.10036332682E+01  0.61200612023E-01 -0.61803292019E+00  0.90007750051E+02  0.90000011552E+02 0.  0.
         12    1    1    2    0    0 -0.10036332682E+01 -0.61200612023E-01  0.61803292019E+00  0.11802499491E+01  0.00000000000E+00 0. -1.
         11    1    3    3    0    0 -0.34819052456E+01 -0.65770813102E+01  0.28822448687E+01  0.79805387315E+01  0.51100000000E-03 0. -1.
        -11    1    3    3    0    0 -0.15727832761E+02 -0.32714649947E+02 -0.91307725863E+01  0.37429721517E+02  0.51100000000E-03 0.  1.
         12    1    3    3    0    0  0.20213371275E+02  0.39352931870E+02  0.56304947973E+01  0.44597489803E+02  0.00000000000E+00 0. -1.
</event>
<event>
 7    1  0.1999542E-015  0.9000783E+02  0.7816164E-02  0.1186339E+00
        -11   -1    0    0    0    0  0.00000000000E+00  0.00000000000E+00  0.45593999997E+02  0.45594000000E+02  0.51100000000E-03 0.  1.
         11   -1    0    0    0    0 -0.00000000000E+00 -0.00000000000E+00 -0.45593999997E+02  0.45594000000E+02  0.51100000000E-03 0. -1.
    9900012    2    1    2    0    0  0.65368648560E+00 -0.37946305404E+00  0.90636871593E+00  0.90007829470E+02  0.90000092019E+02 0.  0.
         12    1    1    2    0    0 -0.65368648560E+00  0.37946305404E+00 -0.90636871593E+00  0.11801705301E+01  0.00000000000E+00 0. -1.
         11    1    3    3    0    0  0.35757144062E+01  0.52781687021E+01 -0.78587323407E+01  0.10119509505E+02  0.51100000000E-03 0. -1.
        -11    1    3    3    0    0  0.32100827972E+02 -0.17752549912E+02 -0.10460444371E+02  0.38144948310E+02  0.51100000000E-03 0.  1.
         12    1    3    3    0    0 -0.35022855893E+02  0.12094918156E+02  0.19225545428E+02  0.41743371654E+02  0.00000000000E+00 0. -1.
</event>
<event>
 7    1  0.1999542E-015  0.9000778E+02  0.7816164E-02  0.1186339E+00
        -11   -1    0    0    0    0  0.00000000000E+00  0.00000000000E+00  0.45593999997E+02  0.45594000000E+02  0.51100000000E-03 0.  1.
         11   -1    0    0    0    0 -0.00000000000E+00 -0.00000000000E+00 -0.45593999997E+02  0.45594000000E+02  0.51100000000E-03 0. -1.
    9900012    2    1    2    0    0 -0.17633403390E+00 -0.80269710016E+00  0.84705814832E+00  0.90007778058E+02  0.90000039928E+02 0.  0.
         12    1    1    2    0    0  0.17633403390E+00  0.80269710016E+00 -0.84705814832E+00  0.11802219422E+01  0.00000000000E+00 0. -1.
         11    1    3    3    0    0 -0.64513089465E+00  0.61140246211E+01 -0.45644026074E+01  0.76571053514E+01  0.51100000000E-03 0. -1.
        -11    1    3    3    0    0  0.21423410581E+02 -0.42669030812E+01 -0.32378820017E+02  0.39058378983E+02  0.51100000000E-03 0.  1.
         12    1    3    3    0    0 -0.20954613720E+02 -0.26498186401E+01  0.37790280773E+02  0.43292293724E+02  0.00000000000E+00 0. -1.
</event>
<event>
 7    1  0.1999542E-015  0.9000781E+02  0.7816164E-02  0.1186339E+00
        -11   -1    0    0    0    0  0.00000000000E+00  0.00000000000E+00  0.45593999997E+02  0.45594000000E+02  0.51100000000E-03 0. -1.
         11   -1    0    0    0    0 -0.00000000000E+00 -0.00000000000E+00 -0.45593999997E+02  0.45594000000E+02  0.51100000000E-03 0.  1.
    9900012    2    1    2    0    0  0.26174525844E+00 -0.63057443846E+00 -0.96266057748E+00  0.90007809299E+02  0.90000071582E+02 0.  0.
         12    1    1    2    0    0 -0.26174525844E+00  0.63057443846E+00  0.96266057748E+00  0.11801907008E+01  0.00000000000E+00 0. -1.
         11    1    3    3    0    0  0.19624785263E+01  0.72153285204E+01  0.42170529665E+01  0.85846271676E+01  0.51100000000E-03 0. -1.
        -11    1    3    3    0    0  0.67444425333E+01 -0.75471788874E+01 -0.42227631171E+02  0.43423729098E+02  0.51100000000E-03 0.  1.
         12    1    3    3    0    0 -0.84451758011E+01 -0.29872407145E+00  0.37047917627E+02  0.37999453034E+02  0.00000000000E+00 0. -1.
</event>
<event>
 7    1  0.1999542E-015  0.9000767E+02  0.7816164E-02  0.1186339E+00
        -11   -1    0    0    0    0  0.00000000000E+00  0.00000000000E+00  0.45593999997E+02  0.45594000000E+02  0.51100000000E-03 0. -1.
         11   -1    0    0    0    0 -0.00000000000E+00 -0.00000000000E+00 -0.45593999997E+02  0.45594000000E+02  0.51100000000E-03 0.  1.
    9900012    2    1    2    0    0  0.72803249288E+00 -0.35550467194E+00 -0.85834872103E+00  0.90007670635E+02  0.89999931088E+02 0.  0.
         12    1    1    2    0    0 -0.72803249288E+00  0.35550467194E+00  0.85834872103E+00  0.11803293648E+01  0.00000000000E+00 0. -1.
         11    1    3    3    0    0  0.54704825590E+01  0.74876692872E+01  0.20791821872E+01  0.95033872704E+01  0.51100000000E-03 0. -1.
        -11    1    3    3    0    0 -0.35840610834E+02  0.11459850441E+00  0.20007202479E+02  0.41046932517E+02  0.51100000000E-03 0.  1.
         12    1    3    3    0    0  0.31098160768E+02 -0.79577724635E+01 -0.22944733387E+02  0.39457350848E+02  0.00000000000E+00 0. -1.
</event>
<event>
 7    1  0.1999542E-015  0.9000707E+02  0.7816164E-02  0.1186340E+00
        -11   -1    0    0    0    0  0.00000000000E+00  0.00000000000E+00  0.45593999997E+02  0.45594000000E+02  0.51100000000E-03 0.  1.
         11   -1    0    0    0    0 -0.00000000000E+00 -0.00000000000E+00 -0.45593999997E+02  0.45594000000E+02  0.51100000000E-03 0. -1.
    9900012    2    1    2    0    0 -0.44008222724E+00  0.10688737755E+01  0.24172747561E+00  0.90007069991E+02  0.89999322512E+02 0.  0.
         12    1    1    2    0    0  0.44008222724E+00 -0.10688737755E+01 -0.24172747561E+00  0.11809300095E+01  0.00000000000E+00 0. -1.
         11    1    3    3    0    0 -0.11439668101E+02 -0.46314095315E+01 -0.23631977427E+02  0.26660576098E+02  0.51100000000E-03 0. -1.
        -11    1    3    3    0    0 -0.17302392224E+02  0.20404735032E+02  0.99065172147E+01  0.28528320525E+02  0.51100000000E-03 0.  1.
        -12    1    3    3    0    0  0.28301978097E+02 -0.14704451725E+02  0.13967187688E+02  0.34818173368E+02  0.00000000000E+00 0.  1.
</event>
<event>
 7    1  0.1999542E-015  0.9000770E+02  0.7816164E-02  0.1186339E+00
        -11   -1    0    0    0    0  0.00000000000E+00  0.00000000000E+00  0.45593999997E+02  0.45594000000E+02  0.51100000000E-03 0.  1.
         11   -1    0    0    0    0 -0.00000000000E+00 -0.00000000000E+00 -0.45593999997E+02  0.45594000000E+02  0.51100000000E-03 0. -1.
    9900012    2    1    2    0    0  0.57171693337E+00 -0.47691823442E+00 -0.91586246861E+00  0.90007696939E+02  0.89999957739E+02 0.  0.
         12    1    1    2    0    0 -0.57171693337E+00  0.47691823442E+00  0.91586246861E+00  0.11803030609E+01  0.00000000000E+00 0. -1.
         11    1    3    3    0    0  0.18532682618E+02  0.28450955978E+02 -0.83450923500E+01  0.34965093846E+02  0.51100000000E-03 0. -1.
        -11    1    3    3    0    0 -0.14789327625E+02 -0.13847552425E+01 -0.13681857372E+02  0.20194924612E+02  0.51100000000E-03 0.  1.
        -12    1    3    3    0    0 -0.31716380602E+01 -0.27543118969E+02  0.21111087253E+02  0.34847678482E+02  0.00000000000E+00 0.  1.
</event>
<event>
 7    1  0.1999542E-015  0.9000782E+02  0.7816164E-02  0.1186339E+00
        -11   -1    0    0    0    0  0.00000000000E+00  0.00000000000E+00  0.45593999997E+02  0.45594000000E+02  0.51100000000E-03 0.  1.
         11   -1    0    0    0    0 -0.00000000000E+00 -0.00000000000E+00 -0.45593999997E+02  0.45594000000E+02  0.51100000000E-03 0. -1.
    9900012    2    1    2    0    0 -0.64414701731E+00 -0.64273446767E+00  0.75152099532E+00  0.90007823411E+02  0.90000085880E+02 0.  0.
         12    1    1    2    0    0  0.64414701731E+00  0.64273446767E+00 -0.75152099532E+00  0.11801765894E+01  0.00000000000E+00 0. -1.
         11    1    3    3    0    0  0.44622389437E+01  0.35651024144E+02 -0.14789728971E+02  0.38854126964E+02  0.51100000000E-03 0. -1.
        -11    1    3    3    0    0 -0.92358586412E+01  0.21316459757E+01  0.64110359760E+01  0.11443180587E+02  0.51100000000E-03 0.  1.
        -12    1    3    3    0    0  0.41294726802E+01 -0.38425404587E+02  0.91302139899E+01  0.39710515859E+02  0.00000000000E+00 0.  1.
</event>
<event>
 7    1  0.1999542E-015  0.9000772E+02  0.7816164E-02  0.1186339E+00
        -11   -1    0    0    0    0  0.00000000000E+00  0.00000000000E+00  0.45593999997E+02  0.45594000000E+02  0.51100000000E-03 0. -1.
         11   -1    0    0    0    0 -0.00000000000E+00 -0.00000000000E+00 -0.45593999997E+02  0.45594000000E+02  0.51100000000E-03 0.  1.
    9900012    2    1    2    0    0  0.96746445138E-01  0.96501563749E+00 -0.67264187039E+00  0.90007719465E+02  0.89999980562E+02 0.  0.
         12    1    1    2    0    0 -0.96746445138E-01 -0.96501563749E+00  0.67264187039E+00  0.11802805349E+01  0.00000000000E+00 0. -1.
         11    1    3    3    0    0  0.21414071317E+02  0.91704183732E+01 -0.12133002878E+01  0.23326618301E+02  0.51100000000E-03 0. -1.
        -11    1    3    3    0    0  0.16680235443E+02  0.40758328212E+01 -0.15988685468E+02  0.23462325777E+02  0.51100000000E-03 0.  1.
        -12    1    3    3    0    0 -0.37997560315E+02 -0.12281235557E+02  0.16529343886E+02  0.43218775387E+02  0.00000000000E+00 0.  1.
</event>
<event>
 7    1  0.1999542E-015  0.9000779E+02  0.7816164E-02  0.1186339E+00
        -11   -1    0    0    0    0  0.00000000000E+00  0.00000000000E+00  0.45593999997E+02  0.45594000000E+02  0.51100000000E-03 0. -1.
         11   -1    0    0    0    0 -0.00000000000E+00 -0.00000000000E+00 -0.45593999997E+02  0.45594000000E+02  0.51100000000E-03 0.  1.
    9900012    2    1    2    0    0 -0.66670645397E+00  0.74196652378E+00 -0.63077216627E+00  0.90007794364E+02  0.90000056449E+02 0.  0.
         12    1    1    2    0    0  0.66670645397E+00 -0.74196652378E+00  0.63077216627E+00  0.11802056363E+01  0.00000000000E+00 0. -1.
         11    1    3    3    0    0 -0.14036276561E+02 -0.13910345708E+02  0.37715285389E+02  0.42578838989E+02  0.51100000000E-03 0. -1.
        -11    1    3    3    0    0 -0.18722614969E+01  0.92322740212E+01 -0.57418369614E+01  0.11032177422E+02  0.51100000000E-03 0.  1.
        -12    1    3    3    0    0  0.15241831604E+02  0.54200382105E+01 -0.32604220593E+02  0.36396777953E+02  0.00000000000E+00 0.  1.
</event>
<event>
 7    1  0.1999542E-015  0.9000742E+02  0.7816164E-02  0.1186340E+00
        -11   -1    0    0    0    0  0.00000000000E+00  0.00000000000E+00  0.45593999997E+02  0.45594000000E+02  0.51100000000E-03 0. -1.
         11   -1    0    0    0    0 -0.00000000000E+00 -0.00000000000E+00 -0.45593999997E+02  0.45594000000E+02  0.51100000000E-03 0.  1.
    9900012    2    1    2    0    0 -0.44326205737E+00  0.48494072592E+00 -0.98088270077E+00  0.90007415555E+02  0.89999672640E+02 0.  0.
         12    1    1    2    0    0  0.44326205737E+00 -0.48494072592E+00  0.98088270077E+00  0.11805844450E+01  0.00000000000E+00 0. -1.
         11    1    3    3    0    0 -0.27911758705E+02  0.13933508004E+02  0.21959704275E+02  0.38150197003E+02  0.51100000000E-03 0. -1.
        -11    1    3    3    0    0  0.14032322983E+01  0.42823971336E+01  0.70361828711E+01  0.83555882947E+01  0.51100000000E-03 0.  1.
        -12    1    3    3    0    0  0.26065264350E+02 -0.17730964412E+02 -0.29976769846E+02  0.43501630257E+02  0.00000000000E+00 0.  1.
</event>
<event>
 7    1  0.1999542E-015  0.9000774E+02  0.7816164E-02  0.1186339E+00
        -11   -1    0    0    0    0  0.00000000000E+00  0.00000000000E+00  0.45593999997E+02  0.45594000000E+02  0.51100000000E-03 0.  1.
         11   -1    0    0    0    0 -0.00000000000E+00 -0.00000000000E+00 -0.45593999997E+02  0.45594000000E+02  0.51100000000E-03 0. -1.
    9900012    2    1    2    0    0 -0.11591013294E+01 -0.11323519801E+00  0.19152453617E+00  0.90007737423E+02  0.89999998757E+02 0.  0.
         12    1    1    2    0    0  0.11591013294E+01  0.11323519801E+00 -0.19152453617E+00  0.11802625766E+01  0.00000000000E+00 0. -1.
         11    1    3    3    0    0  0.41697412590E+00 -0.51894923416E+01  0.47113108113E+01  0.70214776228E+01  0.51100000000E-03 0. -1.
        -11    1    3    3    0    0  0.23004586248E+01  0.40842567697E+01  0.39001108708E+02  0.39281799143E+02  0.51100000000E-03 0.  1.
         12    1    3    3    0    0 -0.38765340801E+01  0.99200037390E+00 -0.43520894983E+02  0.43704460657E+02  0.00000000000E+00 0. -1.
</event>
<event>
 7    1  0.1999542E-015  0.9000774E+02  0.7816164E-02  0.1186339E+00
        -11   -1    0    0    0    0  0.00000000000E+00  0.00000000000E+00  0.45593999997E+02  0.45594000000E+02  0.51100000000E-03 0. -1.
         11   -1    0    0    0    0 -0.00000000000E+00 -0.00000000000E+00 -0.45593999997E+02  0.45594000000E+02  0.51100000000E-03 0.  1.
    9900012    2    1    2    0    0 -0.42227446886E+00 -0.36836897448E+00 -0.10387559502E+01  0.90007735050E+02  0.89999996353E+02 0.  0.
         12    1    1    2    0    0  0.42227446886E+00  0.36836897448E+00  0.10387559502E+01  0.11802649502E+01  0.00000000000E+00 0. -1.
         11    1    3    3    0    0 -0.11088077951E+02 -0.15370803253E+02  0.19324748581E+02  0.27067563121E+02  0.51100000000E-03 0. -1.
        -11    1    3    3    0    0  0.18153769646E+02  0.10767947361E+02  0.15418384786E+02  0.26138757285E+02  0.51100000000E-03 0.  1.
        -12    1    3    3    0    0 -0.74879661639E+01  0.42344869175E+01 -0.35781889317E+02  0.36801414645E+02  0.00000000000E+00 0.  1.
</event>
<event>
 7    1  0.2175932E-015  0.9000763E+02  0.7816164E-02  0.1186339E+00
        -11   -1    0    0    0    0  0.00000000000E+00  0.00000000000E+00  0.45593999997E+02  0.45594000000E+02  0.51100000000E-03 0. -1.
         11   -1    0    0    0    0 -0.00000000000E+00 -0.00000000000E+00 -0.45593999997E+02  0.45594000000E+02  0.51100000000E-03 0.  1.
    9900012    2    1    2    0    0 -0.80893566810E-01  0.10988825471E+01 -0.42329342451E+00  0.90007633979E+02  0.89999893947E+02 0.  0.
         12    1    1    2    0    0  0.80893566810E-01 -0.10988825471E+01  0.42329342451E+00  0.11803660215E+01  0.00000000000E+00 0. -1.
         11    1    3    3    0    0 -0.74436594379E+01 -0.81340487683E+00  0.36063767308E+02  0.36832933714E+02  0.51100000000E-03 0. -1.
        -11    1    3    3    0    0 -0.71862918584E+01 -0.83742649623E+00  0.52172943456E+01  0.89198786069E+01  0.51100000000E-03 0.  1.
        -12    1    3    3    0    0  0.14549057730E+02  0.27497139201E+01 -0.41704355078E+02  0.44254821657E+02  0.00000000000E+00 0.  1.
</event>
<event>
 7    1  0.1999542E-015  0.9000772E+02  0.7816164E-02  0.1186339E+00
        -11   -1    0    0    0    0  0.00000000000E+00  0.00000000000E+00  0.45593999997E+02  0.45594000000E+02  0.51100000000E-03 0.  1.
         11   -1    0    0    0    0 -0.00000000000E+00 -0.00000000000E+00 -0.45593999997E+02  0.45594000000E+02  0.51100000000E-03 0. -1.
    9900012    2    1    2    0    0  0.92704592535E+00 -0.62263713703E-01  0.72785595501E+00  0.90007718165E+02  0.89999979245E+02 0.  0.
         12    1    1    2    0    0 -0.92704592535E+00  0.62263713703E-01 -0.72785595501E+00  0.11802818346E+01  0.00000000000E+00 0. -1.
         11    1    3    3    0    0  0.59340234045E+00  0.46129638159E+01 -0.77063201275E+01  0.90010516982E+01  0.51100000000E-03 0. -1.
        -11    1    3    3    0    0  0.17007282788E+02  0.23934094728E+02  0.29611440845E+02  0.41700431502E+02  0.51100000000E-03 0.  1.
         12    1    3    3    0    0 -0.16673639203E+02 -0.28609322258E+02 -0.21177264762E+02  0.39306234965E+02  0.00000000000E+00 0. -1.
</event>
<event>
 7    1  0.1999542E-015  0.9000775E+02  0.7816164E-02  0.1186339E+00
        -11   -1    0    0    0    0  0.00000000000E+00  0.00000000000E+00  0.45593999997E+02  0.45594000000E+02  0.51100000000E-03 0.  1.
         11   -1    0    0    0    0 -0.00000000000E+00 -0.00000000000E+00 -0.45593999997E+02  0.45594000000E+02  0.51100000000E-03 0. -1.
    9900012    2    1    2    0    0  0.52893972809E+00  0.38753814850E+00  0.98134144902E+00  0.90007748293E+02  0.90000009770E+02 0.  0.
         12    1    1    2    0    0 -0.52893972809E+00 -0.38753814850E+00 -0.98134144902E+00  0.11802517071E+01  0.00000000000E+00 0. -1.
         11    1    3    3    0    0 -0.15874204465E+01 -0.72584596532E+01  0.82179550388E+00  0.74753252988E+01  0.51100000000E-03 0. -1.
        -11    1    3    3    0    0  0.90439370589E+01  0.22723218893E+02  0.35720582490E+02  0.43290847625E+02  0.51100000000E-03 0.  1.
         12    1    3    3    0    0 -0.69275768843E+01 -0.15077221091E+02 -0.35561036545E+02  0.39241575369E+02  0.00000000000E+00 0. -1.
</event>
<event>
 7    1  0.1999542E-015  0.9000786E+02  0.7816164E-02  0.1186339E+00
        -11   -1    0    0    0    0  0.00000000000E+00  0.00000000000E+00  0.45593999997E+02  0.45594000000E+02  0.51100000000E-03 0. -1.
         11   -1    0    0    0    0 -0.00000000000E+00 -0.00000000000E+00 -0.45593999997E+02  0.45594000000E+02  0.51100000000E-03 0.  1.
    9900012    2    1    2    0    0  0.38902878349E+00 -0.83112625778E+00  0.74203004191E+00  0.90007863214E+02  0.90000126208E+02 0.  0.
         12    1    1    2    0    0 -0.38902878349E+00  0.83112625778E+00 -0.74203004191E+00  0.11801367861E+01  0.00000000000E+00 0. -1.
         11    1    3    3    0    0 -0.48311810724E+01  0.56941884518E+01  0.51004923317E+01  0.90431805780E+01  0.51100000000E-03 0. -1.
        -11    1    3    3    0    0 -0.25771322594E+02  0.25316527385E+02 -0.53479339211E+01  0.36519693653E+02  0.51100000000E-03 0.  1.
         12    1    3    3    0    0  0.30991532450E+02 -0.31841842094E+02  0.98947163134E+00  0.44444988982E+02  0.00000000000E+00 0. -1.
</event>
<event>
 7    1  0.1999542E-015  0.9000760E+02  0.7816164E-02  0.1186339E+00
        -11   -1    0    0    0    0  0.00000000000E+00  0.00000000000E+00  0.45593999997E+02  0.45594000000E+02  0.51100000000E-03 0.  1.
         11   -1    0    0    0    0 -0.00000000000E+00 -0.00000000000E+00 -0.45593999997E+02  0.45594000000E+02  0.51100000000E-03 0. -1.
    9900012    2    1    2    0    0  0.92273957756E+00 -0.71157703287E+00  0.18855254488E+00  0.90007600803E+02  0.89999860334E+02 0.  0.
         12    1    1    2    0    0 -0.92273957756E+00  0.71157703287E+00 -0.18855254488E+00  0.11803991968E+01  0.00000000000E+00 0. -1.
         11    1    3    3    0    0 -0.32944147004E+02 -0.20506572878E+02  0.10507037141E+02  0.40202415136E+02  0.51100000000E-03 0. -1.
        -11    1    3    3    0    0  0.28918175218E+01 -0.65850553812E+01 -0.50306928714E+01  0.87768692585E+01  0.51100000000E-03 0.  1.
        -12    1    3    3    0    0  0.30975069060E+02  0.26380051227E+02 -0.52877917251E+01  0.41028316408E+02  0.00000000000E+00 0.  1.
</event>
<event>
 7    1  0.1999542E-015  0.9000780E+02  0.7816164E-02  0.1186339E+00
        -11   -1    0    0    0    0  0.00000000000E+00  0.00000000000E+00  0.45593999997E+02  0.45594000000E+02  0.51100000000E-03 0. -1.
         11   -1    0    0    0    0 -0.00000000000E+00 -0.00000000000E+00 -0.45593999997E+02  0.45594000000E+02  0.51100000000E-03 0.  1.
    9900012    2    1    2    0    0  0.10371593182E+00  0.50026129224E+00 -0.10638835635E+01  0.90007802308E+02  0.90000064499E+02 0.  0.
         12    1    1    2    0    0 -0.10371593182E+00 -0.50026129224E+00  0.10638835635E+01  0.11801976918E+01  0.00000000000E+00 0. -1.
         11    1    3    3    0    0  0.73252440761E+01  0.55679533247E+01  0.55728771756E+01  0.10757242457E+02  0.51100000000E-03 0. -1.
        -11    1    3    3    0    0 -0.24777378134E+02  0.14033626425E+02  0.25308902092E+02  0.38097265823E+02  0.51100000000E-03 0.  1.
         12    1    3    3    0    0  0.17555849990E+02 -0.19101318458E+02 -0.31945662831E+02  0.41153294028E+02  0.00000000000E+00 0. -1.
</event>
<event>
 7    1  0.1999542E-015  0.9000644E+02  0.7816164E-02  0.1186342E+00
        -11   -1    0    0    0    0  0.00000000000E+00  0.00000000000E+00  0.45593999997E+02  0.45594000000E+02  0.51100000000E-03 0.  1.
         11   -1    0    0    0    0 -0.00000000000E+00 -0.00000000000E+00 -0.45593999997E+02  0.45594000000E+02  0.51100000000E-03 0. -1.
    9900012    2    1    2    0    0 -0.89281563880E+00  0.70598474390E+00 -0.31711278809E+00  0.90006435468E+02  0.89998679606E+02 0.  0.
         12    1    1    2    0    0  0.89281563880E+00 -0.70598474390E+00  0.31711278809E+00  0.11815645322E+01  0.00000000000E+00 0. -1.
         11    1    3    3    0    0 -0.72367772463E+01 -0.30845526951E+02 -0.22811614140E+02  0.39040840382E+02  0.51100000000E-03 0. -1.
        -11    1    3    3    0    0  0.35055356458E+00  0.89449232221E+01 -0.83603449121E+01  0.12248669583E+02  0.51100000000E-03 0.  1.
        -12    1    3    3    0    0  0.59934080429E+01  0.22606588473E+02  0.30854846264E+02  0.38716925502E+02  0.00000000000E+00 0.  1.
</event>
<event>
 7    1  0.1999542E-015  0.9000781E+02  0.7816164E-02  0.1186339E+00
        -11   -1    0    0    0    0  0.00000000000E+00  0.00000000000E+00  0.45593999997E+02  0.45594000000E+02  0.51100000000E-03 0.  1.
         11   -1    0    0    0    0 -0.00000000000E+00 -0.00000000000E+00 -0.45593999997E+02  0.45594000000E+02  0.51100000000E-03 0. -1.
    9900012    2    1    2    0    0  0.40008259132E+00  0.10374572688E+01 -0.39554685231E+00  0.90007813160E+02  0.90000075494E+02 0.  0.
         12    1    1    2    0    0 -0.40008259132E+00 -0.10374572688E+01  0.39554685231E+00  0.11801868398E+01  0.00000000000E+00 0. -1.
         11    1    3    3    0    0 -0.43238994326E+01  0.18215548862E+00  0.74777104940E+01  0.86397593380E+01  0.51100000000E-03 0. -1.
        -11    1    3    3    0    0 -0.37244219434E+02  0.25620597844E+01 -0.11873912109E+02  0.39175066313E+02  0.51100000000E-03 0.  1.
         12    1    3    3    0    0  0.41968201458E+02 -0.17067580043E+01  0.40006547627E+01  0.42192987510E+02  0.00000000000E+00 0. -1.
</event>
<event>
 7    1  0.1999542E-015  0.9000773E+02  0.7816164E-02  0.1186339E+00
        -11   -1    0    0    0    0  0.00000000000E+00  0.00000000000E+00  0.45593999997E+02  0.45594000000E+02  0.51100000000E-03 0. -1.
         11   -1    0    0    0    0 -0.00000000000E+00 -0.00000000000E+00 -0.45593999997E+02  0.45594000000E+02  0.51100000000E-03 0.  1.
    9900012    2    1    2    0    0 -0.10793342538E+01 -0.40452344286E+00 -0.25385956478E+00  0.90007726165E+02  0.89999987350E+02 0.  0.
         12    1    1    2    0    0  0.10793342538E+01  0.40452344286E+00  0.25385956478E+00  0.11802738351E+01  0.00000000000E+00 0. -1.
         11    1    3    3    0    0 -0.98308251035E+01  0.18725525491E+00  0.53254242887E+00  0.98470192671E+01  0.51100000000E-03 0. -1.
        -11    1    3    3    0    0  0.59882007401E+01  0.29478325590E+02 -0.26812662458E+02  0.40295770201E+02  0.51100000000E-03 0.  1.
         12    1    3    3    0    0  0.27632901096E+01 -0.30070104288E+02  0.26026260464E+02  0.39864936697E+02  0.00000000000E+00 0. -1.
</event>
<event>
 7    1  0.1999542E-015  0.9000781E+02  0.7816164E-02  0.1186339E+00
        -11   -1    0    0    0    0  0.00000000000E+00  0.00000000000E+00  0.45593999997E+02  0.45594000000E+02  0.51100000000E-03 0. -1.
         11   -1    0    0    0    0 -0.00000000000E+00 -0.00000000000E+00 -0.45593999997E+02  0.45594000000E+02  0.51100000000E-03 0.  1.
    9900012    2    1    2    0    0  0.70311804992E+00 -0.38534246306E+00 -0.86601237559E+00  0.90007813048E+02  0.90000075381E+02 0.  0.
         12    1    1    2    0    0 -0.70311804992E+00  0.38534246306E+00  0.86601237559E+00  0.11801869516E+01  0.00000000000E+00 0. -1.
         11    1    3    3    0    0 -0.26048010899E+00  0.10715680121E+02 -0.11163447507E+01  0.10776821248E+02  0.51100000000E-03 0. -1.
        -11    1    3    3    0    0  0.20197395524E+02  0.15039640913E+02 -0.26951186377E+02  0.36884848273E+02  0.51100000000E-03 0.  1.
        -12    1    3    3    0    0 -0.19233797365E+02 -0.26140663498E+02  0.27201518752E+02  0.42346143527E+02  0.00000000000E+00 0.  1.
</event>
<event>
 7    1  0.1999542E-015  0.9000804E+02  0.7816164E-02  0.1186338E+00
        -11   -1    0    0    0    0  0.00000000000E+00  0.00000000000E+00  0.45593999997E+02  0.45594000000E+02  0.51100000000E-03 0. -1.
         11   -1    0    0    0    0 -0.00000000000E+00 -0.00000000000E+00 -0.45593999997E+02  0.45594000000E+02  0.51100000000E-03 0.  1.
    9900012    2    1    2    0    0 -0.89764454685E+00 -0.28104549631E+00 -0.71242970591E+00  0.90008038819E+02  0.90000304131E+02 0.  0.
         12    1    1    2    0    0  0.89764454685E+00  0.28104549631E+00  0.71242970591E+00  0.11799611813E+01  0.00000000000E+00 0. -1.
         11    1    3    3    0    0 -0.55313283117E+01 -0.18114841167E+02  0.34580317286E+02  0.39427673115E+02  0.51100000000E-03 0. -1.
        -11    1    3    3    0    0  0.14167177915E+02  0.33826216740E+01 -0.44830379379E+01  0.15239707637E+02  0.51100000000E-03 0.  1.
        -12    1    3    3    0    0 -0.95334941500E+01  0.14451173997E+02 -0.30809709054E+02  0.35340658067E+02  0.00000000000E+00 0.  1.
</event>
<event>
 7    1  0.1999542E-015  0.9000775E+02  0.7816164E-02  0.1186339E+00
        -11   -1    0    0    0    0  0.00000000000E+00  0.00000000000E+00  0.45593999997E+02  0.45594000000E+02  0.51100000000E-03 0. -1.
         11   -1    0    0    0    0 -0.00000000000E+00 -0.00000000000E+00 -0.45593999997E+02  0.45594000000E+02  0.51100000000E-03 0.  1.
    9900012    2    1    2    0    0  0.11782011372E+01 -0.42143011187E-01  0.55244804494E-01  0.90007751746E+02  0.90000013269E+02 0.  0.
         12    1    1    2    0    0 -0.11782011372E+01  0.42143011187E-01 -0.55244804494E-01  0.11802482542E+01  0.00000000000E+00 0. -1.
         11    1    3    3    0    0  0.33552588287E+01 -0.76469585621E+01  0.55891546612E+01  0.10048501736E+02  0.51100000000E-03 0. -1.
        -11    1    3    3    0    0 -0.39931897067E+02 -0.14945349940E+01 -0.90263894619E+01  0.40966641859E+02  0.51100000000E-03 0.  1.
         12    1    3    3    0    0  0.37754839375E+02  0.90993505449E+01  0.34924796052E+01  0.38992608151E+02  0.00000000000E+00 0. -1.
</event>
<event>
 7    1  0.1999542E-015  0.9000764E+02  0.7816164E-02  0.1186339E+00
        -11   -1    0    0    0    0  0.00000000000E+00  0.00000000000E+00  0.45593999997E+02  0.45594000000E+02  0.51100000000E-03 0. -1.
         11   -1    0    0    0    0 -0.00000000000E+00 -0.00000000000E+00 -0.45593999997E+02  0.45594000000E+02  0.51100000000E-03 0.  1.
    9900012    2    1    2    0    0  0.45867578456E+00 -0.81215663844E+00 -0.72337853493E+00  0.90007636333E+02  0.89999896333E+02 0.  0.
         12    1    1    2    0    0 -0.45867578456E+00  0.81215663844E+00  0.72337853493E+00  0.11803636666E+01  0.00000000000E+00 0. -1.
         11    1    3    3    0    0  0.11844010717E+02  0.66179743537E+01  0.10603138651E+02  0.17219312527E+02  0.51100000000E-03 0. -1.
        -11    1    3    3    0    0 -0.26152708624E+02  0.24341868457E+02  0.73075261221E+00  0.35735482758E+02  0.51100000000E-03 0.  1.
         12    1    3    3    0    0  0.14767373691E+02 -0.31771999449E+02 -0.12057269798E+02  0.37052841048E+02  0.00000000000E+00 0. -1.
</event>
<event>
 7    1  0.1999542E-015  0.9000778E+02  0.7816164E-02  0.1186339E+00
        -11   -1    0    0    0    0  0.00000000000E+00  0.00000000000E+00  0.45593999997E+02  0.45594000000E+02  0.51100000000E-03 0. -1.
         11   -1    0    0    0    0 -0.00000000000E+00 -0.00000000000E+00 -0.45593999997E+02  0.45594000000E+02  0.51100000000E-03 0.  1.
    9900012    2    1    2    0    0  0.52857068425E+00 -0.54695227384E+00 -0.90242681525E+00  0.90007780565E+02  0.90000042468E+02 0.  0.
         12    1    1    2    0    0 -0.52857068425E+00  0.54695227384E+00  0.90242681525E+00  0.11802194351E+01  0.00000000000E+00 0. -1.
         11    1    3    3    0    0  0.24307040616E+02 -0.12082863573E+02  0.27899444815E+02  0.38925657822E+02  0.51100000000E-03 0. -1.
        -11    1    3    3    0    0  0.82337700642E+01  0.21668983653E+01 -0.85189517940E+01  0.12044208481E+02  0.51100000000E-03 0.  1.
        -12    1    3    3    0    0 -0.32012239996E+02  0.93690129337E+01 -0.20282919836E+02  0.39037914263E+02  0.00000000000E+00 0.  1.
</event>
<event>
 7    1  0.1999542E-015  0.9000761E+02  0.7816164E-02  0.1186339E+00
        -11   -1    0    0    0    0  0.00000000000E+00  0.00000000000E+00  0.45593999997E+02  0.45594000000E+02  0.51100000000E-03 0. -1.
         11   -1    0    0    0    0 -0.00000000000E+00 -0.00000000000E+00 -0.45593999997E+02  0.45594000000E+02  0.51100000000E-03 0.  1.
    9900012    2    1    2    0    0 -0.11068216304E+01 -0.12167754147E+00  0.39174953739E+00  0.90007607165E+02  0.89999866779E+02 0.  0.
         12    1    1    2    0    0  0.11068216304E+01  0.12167754147E+00 -0.39174953739E+00  0.11803928353E+01  0.00000000000E+00 0. -1.
         11    1    3    3    0    0 -0.59031084688E+01 -0.30152691443E+01  0.28239547420E+01  0.72050855827E+01  0.51100000000E-03 0. -1.
        -11    1    3    3    0    0  0.17667509894E+02 -0.31567354846E+02 -0.20754431906E+02  0.41705937729E+02  0.51100000000E-03 0.  1.
         12    1    3    3    0    0 -0.12871223055E+02  0.34460946449E+02  0.18322226701E+02  0.41096583853E+02  0.00000000000E+00 0. -1.
</event>
<event>
 7    1  0.1999542E-015  0.9000772E+02  0.7816164E-02  0.1186339E+00
        -11   -1    0    0    0    0  0.00000000000E+00  0.00000000000E+00  0.45593999997E+02  0.45594000000E+02  0.51100000000E-03 0.  1.
         11   -1    0    0    0    0 -0.00000000000E+00 -0.00000000000E+00 -0.45593999997E+02  0.45594000000E+02  0.51100000000E-03 0. -1.
    9900012    2    1    2    0    0 -0.45099754654E+00  0.14934593770E+00  0.10804484488E+01  0.90007715354E+02  0.89999976396E+02 0.  0.
         12    1    1    2    0    0  0.45099754654E+00 -0.14934593770E+00 -0.10804484488E+01  0.11802846464E+01  0.00000000000E+00 0. -1.
         11    1    3    3    0    0 -0.20988786728E+02  0.29701709875E+02 -0.62181772010E+01  0.36896970957E+02  0.51100000000E-03 0. -1.
        -11    1    3    3    0    0  0.46785648266E+01  0.91001856537E+01 -0.17010272719E+01  0.10372841549E+02  0.51100000000E-03 0.  1.
        -12    1    3    3    0    0  0.15859224355E+02 -0.38652549591E+02  0.89996529217E+01  0.42737902847E+02  0.00000000000E+00 0.  1.
</event>
<event>
 7    1  0.1999542E-015  0.9000778E+02  0.7816164E-02  0.1186339E+00
        -11   -1    0    0    0    0  0.00000000000E+00  0.00000000000E+00  0.45593999997E+02  0.45594000000E+02  0.51100000000E-03 0.  1.
         11   -1    0    0    0    0 -0.00000000000E+00 -0.00000000000E+00 -0.45593999997E+02  0.45594000000E+02  0.51100000000E-03 0. -1.
    9900012    2    1    2    0    0  0.41090831920E+00 -0.10585234243E+01  0.32186873850E+00  0.90007780965E+02  0.90000042873E+02 0.  0.
         12    1    1    2    0    0 -0.41090831920E+00  0.10585234243E+01 -0.32186873850E+00  0.11802190354E+01  0.00000000000E+00 0. -1.
         11    1    3    3    0    0  0.46588406895E+01 -0.34130945934E+02 -0.17351907194E+02  0.38570908085E+02  0.51100000000E-03 0. -1.
        -11    1    3    3    0    0  0.10127188437E+02 -0.12955375614E+01  0.13745619443E-01  0.10209728323E+02  0.51100000000E-03 0.  1.
        -12    1    3    3    0    0 -0.14375120808E+02  0.34367960071E+02  0.17660030313E+02  0.41227144557E+02  0.00000000000E+00 0.  1.
</event>
<event>
 7    1  0.1999542E-015  0.9000782E+02  0.7816164E-02  0.1186339E+00
        -11   -1    0    0    0    0  0.00000000000E+00  0.00000000000E+00  0.45593999997E+02  0.45594000000E+02  0.51100000000E-03 0.  1.
         11   -1    0    0    0    0 -0.00000000000E+00 -0.00000000000E+00 -0.45593999997E+02  0.45594000000E+02  0.51100000000E-03 0. -1.
    9900012    2    1    2    0    0  0.68439627081E+00 -0.99777955109E-01  0.95628281920E+00  0.90007817503E+02  0.90000079894E+02 0.  0.
         12    1    1    2    0    0 -0.68439627081E+00  0.99777955109E-01 -0.95628281920E+00  0.11801824970E+01  0.00000000000E+00 0. -1.
         11    1    3    3    0    0  0.25317993549E+01 -0.84223817659E+01 -0.35139059867E+01  0.94706947015E+01  0.51100000000E-03 0. -1.
        -11    1    3    3    0    0  0.33865398610E+02  0.23898871202E+02  0.25963018076E+01  0.41530254648E+02  0.51100000000E-03 0.  1.
         12    1    3    3    0    0 -0.35712801694E+02 -0.15576267391E+02  0.18738869983E+01  0.39006868154E+02  0.00000000000E+00 0. -1.
</event>
<event>
 7    1  0.2262133E-015  0.9000773E+02  0.7816164E-02  0.1186339E+00
        -11   -1    0    0    0    0  0.00000000000E+00  0.00000000000E+00  0.45593999997E+02  0.45594000000E+02  0.51100000000E-03 0. -1.
         11   -1    0    0    0    0 -0.00000000000E+00 -0.00000000000E+00 -0.45593999997E+02  0.45594000000E+02  0.51100000000E-03 0.  1.
    9900012    2    1    2    0    0  0.24397804901E-01  0.92614964646E+00 -0.73122017448E+00  0.90007732503E+02  0.89999993772E+02 0.  0.
         12    1    1    2    0    0 -0.24397804901E-01 -0.92614964646E+00  0.73122017448E+00  0.11802674968E+01  0.00000000000E+00 0. -1.
         11    1    3    3    0    0 -0.32408176313E+02  0.67501804935E+01  0.16862121660E+02  0.37150854307E+02  0.51100000000E-03 0. -1.
        -11    1    3    3    0    0 -0.53891556233E+01 -0.70129146972E+01  0.35265684225E+01  0.95215889421E+01  0.51100000000E-03 0.  1.
        -12    1    3    3    0    0  0.37821729741E+02  0.11888838502E+01 -0.21119910257E+02  0.43335289254E+02  0.00000000000E+00 0.  1.
</event>
<event>
 7    1  0.1999542E-015  0.9000781E+02  0.7816164E-02  0.1186339E+00
        -11   -1    0    0    0    0  0.00000000000E+00  0.00000000000E+00  0.45593999997E+02  0.45594000000E+02  0.51100000000E-03 0. -1.
         11   -1    0    0    0    0 -0.00000000000E+00 -0.00000000000E+00 -0.45593999997E+02  0.45594000000E+02  0.51100000000E-03 0.  1.
    9900012    2    1    2    0    0  0.50527778447E+00 -0.10639942882E+01 -0.73897919504E-01  0.90007809173E+02  0.90000071454E+02 0.  0.
         12    1    1    2    0    0 -0.50527778447E+00  0.10639942882E+01  0.73897919504E-01  0.11801908267E+01  0.00000000000E+00 0. -1.
         11    1    3    3    0    0 -0.73958423545E+00 -0.29446784092E+00  0.10328623426E+02  0.10359254716E+02  0.51100000000E-03 0. -1.
        -11    1    3    3    0    0 -0.10414505664E+02 -0.85850327272E+01 -0.42513095812E+02  0.44604125716E+02  0.51100000000E-03 0.  1.
         12    1    3    3    0    0  0.11659367683E+02  0.78155062799E+01  0.32110574467E+02  0.35044428741E+02  0.00000000000E+00 0. -1.
</event>
<event>
 7    1  0.1999542E-015  0.9000773E+02  0.7816164E-02  0.1186339E+00
        -11   -1    0    0    0    0  0.00000000000E+00  0.00000000000E+00  0.45593999997E+02  0.45594000000E+02  0.51100000000E-03 0. -1.
         11   -1    0    0    0    0 -0.00000000000E+00 -0.00000000000E+00 -0.45593999997E+02  0.45594000000E+02  0.51100000000E-03 0.  1.
    9900012    2    1    2    0    0 -0.82549953519E+00  0.55439519145E+00 -0.63579342590E+00  0.90007730204E+02  0.89999991443E+02 0.  0.
         12    1    1    2    0    0  0.82549953519E+00 -0.55439519145E+00  0.63579342590E+00  0.11802697960E+01  0.00000000000E+00 0. -1.
         11    1    3    3    0    0  0.11844645644E+02 -0.38587057212E+01 -0.10258905266E+02  0.16137855428E+02  0.51100000000E-03 0. -1.
        -11    1    3    3    0    0  0.32094943467E+01 -0.22344943436E+02 -0.20550246110E+02  0.30527200438E+02  0.51100000000E-03 0.  1.
         12    1    3    3    0    0 -0.15879639526E+02  0.26758044349E+02  0.30173357950E+02  0.43342674339E+02  0.00000000000E+00 0. -1.
</event>
<event>
 7    1  0.1999542E-015  0.9000777E+02  0.7816164E-02  0.1186339E+00
        -11   -1    0    0    0    0  0.00000000000E+00  0.00000000000E+00  0.45593999997E+02  0.45594000000E+02  0.51100000000E-03 0.  1.
         11   -1    0    0    0    0 -0.00000000000E+00 -0.00000000000E+00 -0.45593999997E+02  0.45594000000E+02  0.51100000000E-03 0. -1.
    9900012    2    1    2    0    0  0.41454620913E+00  0.72476993666E+00 -0.83414639438E+00  0.90007771112E+02  0.90000032891E+02 0.  0.
         12    1    1    2    0    0 -0.41454620913E+00 -0.72476993666E+00  0.83414639438E+00  0.11802288879E+01  0.00000000000E+00 0. -1.
         11    1    3    3    0    0  0.19303404985E+02 -0.32858596432E+02 -0.82368193807E+01  0.38989152302E+02  0.51100000000E-03 0. -1.
        -11    1    3    3    0    0 -0.45363532659E+01 -0.63658627261E+01 -0.52918170916E+00  0.78347139541E+01  0.51100000000E-03 0.  1.
        -12    1    3    3    0    0 -0.14352505510E+02  0.39949229094E+02  0.79318546955E+01  0.43183904856E+02  0.00000000000E+00 0.  1.
</event>
<event>
 7    1  0.1999542E-015  0.9000780E+02  0.7816164E-02  0.1186339E+00
        -11   -1    0    0    0    0  0.00000000000E+00  0.00000000000E+00  0.45593999997E+02  0.45594000000E+02  0.51100000000E-03 0. -1.
         11   -1    0    0    0    0 -0.00000000000E+00 -0.00000000000E+00 -0.45593999997E+02  0.45594000000E+02  0.51100000000E-03 0.  1.
    9900012    2    1    2    0    0 -0.80432430869E+00  0.86361081638E+00 -0.10697697705E-01  0.90007798459E+02  0.90000060599E+02 0.  0.
         12    1    1    2    0    0  0.80432430869E+00 -0.86361081638E+00  0.10697697705E-01  0.11802015406E+01  0.00000000000E+00 0. -1.
         11    1    3    3    0    0  0.80031915234E+01 -0.60563658503E+01 -0.20457101187E+01  0.10242830274E+02  0.51100000000E-03 0. -1.
        -11    1    3    3    0    0  0.10141834266E+02 -0.23990537768E+02 -0.23770617821E+02  0.35262515175E+02  0.51100000000E-03 0.  1.
         12    1    3    3    0    0 -0.18949350098E+02  0.30910514434E+02  0.25805630242E+02  0.44502453010E+02  0.00000000000E+00 0. -1.
</event>
<event>
 7    1  0.1999542E-015  0.9000770E+02  0.7816164E-02  0.1186339E+00
        -11   -1    0    0    0    0  0.00000000000E+00  0.00000000000E+00  0.45593999997E+02  0.45594000000E+02  0.51100000000E-03 0.  1.
         11   -1    0    0    0    0 -0.00000000000E+00 -0.00000000000E+00 -0.45593999997E+02  0.45594000000E+02  0.51100000000E-03 0. -1.
    9900012    2    1    2    0    0 -0.46713630915E+00 -0.10823547587E+01 -0.58363614574E-01  0.90007697299E+02  0.89999958103E+02 0.  0.
         12    1    1    2    0    0  0.46713630915E+00  0.10823547587E+01  0.58363614574E-01  0.11803027013E+01  0.00000000000E+00 0. -1.
         11    1    3    3    0    0  0.14579301412E+02  0.13381563734E+02 -0.30267437434E+02  0.36162688599E+02  0.51100000000E-03 0. -1.
        -11    1    3    3    0    0  0.85246576886E+01 -0.23337309819E+01 -0.47009040721E+01  0.10010723668E+02  0.51100000000E-03 0.  1.
        -12    1    3    3    0    0 -0.23571095410E+02 -0.12130187511E+02  0.34909977891E+02  0.43834285032E+02  0.00000000000E+00 0.  1.
</event>
<event>
 7    1  0.1999542E-015  0.9000760E+02  0.7816164E-02  0.1186339E+00
        -11   -1    0    0    0    0  0.00000000000E+00  0.00000000000E+00  0.45593999997E+02  0.45594000000E+02  0.51100000000E-03 0. -1.
         11   -1    0    0    0    0 -0.00000000000E+00 -0.00000000000E+00 -0.45593999997E+02  0.45594000000E+02  0.51100000000E-03 0.  1.
    9900012    2    1    2    0    0  0.10178638956E+00 -0.16897959634E+00 -0.11637951122E+01  0.90007604458E+02  0.89999864036E+02 0.  0.
         12    1    1    2    0    0 -0.10178638956E+00  0.16897959634E+00  0.11637951122E+01  0.11803955423E+01  0.00000000000E+00 0. -1.
         11    1    3    3    0    0 -0.72734677390E+01 -0.72962943543E+01 -0.40465761419E+01  0.11068605286E+02  0.51100000000E-03 0. -1.
        -11    1    3    3    0    0 -0.13464857488E+02 -0.38520641480E+01 -0.33094813566E+02  0.35936158262E+02  0.51100000000E-03 0.  1.
         12    1    3    3    0    0  0.20840111617E+02  0.10979378906E+02  0.35977594596E+02  0.43002840909E+02  0.00000000000E+00 0. -1.
</event>
<event>
 7    1  0.1999542E-015  0.9000775E+02  0.7816164E-02  0.1186339E+00
        -11   -1    0    0    0    0  0.00000000000E+00  0.00000000000E+00  0.45593999997E+02  0.45594000000E+02  0.51100000000E-03 0.  1.
         11   -1    0    0    0    0 -0.00000000000E+00 -0.00000000000E+00 -0.45593999997E+02  0.45594000000E+02  0.51100000000E-03 0. -1.
    9900012    2    1    2    0    0  0.90866546949E-01  0.11310579796E+01 -0.32472094659E+00  0.90007748935E+02  0.90000010421E+02 0.  0.
         12    1    1    2    0    0 -0.90866546949E-01 -0.11310579796E+01  0.32472094659E+00  0.11802510647E+01  0.00000000000E+00 0. -1.
         11    1    3    3    0    0 -0.26151056737E+00 -0.38067079564E+01 -0.62512922375E+01  0.73238014816E+01  0.51100000000E-03 0. -1.
        -11    1    3    3    0    0 -0.40975035967E+02  0.25385263206E+01  0.38767165361E+01  0.41236229456E+02  0.51100000000E-03 0.  1.
         12    1    3    3    0    0  0.41327413081E+02  0.23992396154E+01  0.20498547548E+01  0.41447717998E+02  0.00000000000E+00 0. -1.
</event>
<event>
 7    1  0.1999542E-015  0.9000810E+02  0.7816164E-02  0.1186338E+00
        -11   -1    0    0    0    0  0.00000000000E+00  0.00000000000E+00  0.45593999997E+02  0.45594000000E+02  0.51100000000E-03 0.  1.
         11   -1    0    0    0    0 -0.00000000000E+00 -0.00000000000E+00 -0.45593999997E+02  0.45594000000E+02  0.51100000000E-03 0. -1.
    9900012    2    1    2    0    0 -0.79884255670E+00 -0.81131478443E+00 -0.30949424634E+00  0.90008098395E+02  0.90000364493E+02 0.  0.
         12    1    1    2    0    0  0.79884255670E+00  0.81131478443E+00  0.30949424634E+00  0.11799016054E+01  0.00000000000E+00 0. -1.
         11    1    3    3    0    0 -0.89218202219E+01 -0.17751276784E+01 -0.20761576267E+01  0.93306154727E+01  0.51100000000E-03 0. -1.
        -11    1    3    3    0    0 -0.13535001141E+02  0.19318402394E+02  0.31640740611E+02  0.39465597596E+02  0.51100000000E-03 0.  1.
         12    1    3    3    0    0  0.21657978806E+02 -0.18354589500E+02 -0.29874077231E+02  0.41211885326E+02  0.00000000000E+00 0. -1.
</event>
<event>
 7    1  0.1999542E-015  0.9000770E+02  0.7816164E-02  0.1186339E+00
        -11   -1    0    0    0    0  0.00000000000E+00  0.00000000000E+00  0.45593999997E+02  0.45594000000E+02  0.51100000000E-03 0. -1.
         11   -1    0    0    0    0 -0.00000000000E+00 -0.00000000000E+00 -0.45593999997E+02  0.45594000000E+02  0.51100000000E-03 0.  1.
    9900012    2    1    2    0    0 -0.88084490950E+00 -0.78052486852E+00 -0.89508129796E-01  0.90007695577E+02  0.89999956359E+02 0.  0.
         12    1    1    2    0    0  0.88084490950E+00  0.78052486852E+00  0.89508129796E-01  0.11803044227E+01  0.00000000000E+00 0. -1.
         11    1    3    3    0    0 -0.14916245094E+02  0.32729263018E+02 -0.66071902532E+01  0.36569850816E+02  0.51100000000E-03 0. -1.
        -11    1    3    3    0    0  0.10077861331E+01  0.76732767447E+01 -0.43762142927E+01  0.88907851559E+01  0.51100000000E-03 0.  1.
        -12    1    3    3    0    0  0.13027614051E+02 -0.41183064632E+02  0.10893896416E+02  0.44547059605E+02  0.00000000000E+00 0.  1.
</event>
<event>
 7    1  0.1999542E-015  0.9000789E+02  0.7816164E-02  0.1186339E+00
        -11   -1    0    0    0    0  0.00000000000E+00  0.00000000000E+00  0.45593999997E+02  0.45594000000E+02  0.51100000000E-03 0.  1.
         11   -1    0    0    0    0 -0.00000000000E+00 -0.00000000000E+00 -0.45593999997E+02  0.45594000000E+02  0.51100000000E-03 0. -1.
    9900012    2    1    2    0    0 -0.28399865925E-01  0.11795969911E+01  0.20332368771E-01  0.90007886014E+02  0.90000149310E+02 0.  0.
         12    1    1    2    0    0  0.28399865925E-01 -0.11795969911E+01 -0.20332368771E-01  0.11801139856E+01  0.00000000000E+00 0. -1.
         11    1    3    3    0    0  0.15760084894E+00  0.10369453483E+02 -0.16335571780E+01  0.10498519556E+02  0.51100000000E-03 0. -1.
        -11    1    3    3    0    0  0.65504816039E+01  0.23298252617E+02  0.28096058863E+02  0.37082420473E+02  0.51100000000E-03 0.  1.
         12    1    3    3    0    0 -0.67364823188E+01 -0.32488109109E+02 -0.26442169316E+02  0.42426945985E+02  0.00000000000E+00 0. -1.
</event>
<event>
 7    1  0.1999542E-015  0.9000761E+02  0.7816164E-02  0.1186339E+00
        -11   -1    0    0    0    0  0.00000000000E+00  0.00000000000E+00  0.45593999997E+02  0.45594000000E+02  0.51100000000E-03 0. -1.
         11   -1    0    0    0    0 -0.00000000000E+00 -0.00000000000E+00 -0.45593999997E+02  0.45594000000E+02  0.51100000000E-03 0.  1.
    9900012    2    1    2    0    0 -0.46010765239E+00 -0.40866921894E+00 -0.10072734940E+01  0.90007614693E+02  0.89999874406E+02 0.  0.
         12    1    1    2    0    0  0.46010765239E+00  0.40866921894E+00  0.10072734940E+01  0.11803853074E+01  0.00000000000E+00 0. -1.
         11    1    3    3    0    0 -0.17798520263E+02  0.80772286306E+01  0.34887017584E+02  0.39989160307E+02  0.51100000000E-03 0. -1.
        -11    1    3    3    0    0 -0.48961412445E+01 -0.22770459931E+01  0.19061129404E+01  0.57262906269E+01  0.51100000000E-03 0.  1.
        -12    1    3    3    0    0  0.22234553855E+02 -0.62088518564E+01 -0.37800404018E+02  0.44292163759E+02  0.00000000000E+00 0.  1.
</event>
<event>
 7    1  0.1999542E-015  0.9000770E+02  0.7816164E-02  0.1186339E+00
        -11   -1    0    0    0    0  0.00000000000E+00  0.00000000000E+00  0.45593999997E+02  0.45594000000E+02  0.51100000000E-03 0.  1.
         11   -1    0    0    0    0 -0.00000000000E+00 -0.00000000000E+00 -0.45593999997E+02  0.45594000000E+02  0.51100000000E-03 0. -1.
    9900012    2    1    2    0    0 -0.88995551324E+00  0.20637423320E+00  0.74732038332E+00  0.90007703895E+02  0.89999964787E+02 0.  0.
         12    1    1    2    0    0  0.88995551324E+00 -0.20637423320E+00 -0.74732038332E+00  0.11802961048E+01  0.00000000000E+00 0. -1.
         11    1    3    3    0    0 -0.53227861936E+01 -0.23640311642E+01 -0.60698206389E+01  0.84120995630E+01  0.51100000000E-03 0. -1.
        -11    1    3    3    0    0 -0.28008362371E+02 -0.24160306048E+02  0.12790560187E+02  0.39138052854E+02  0.51100000000E-03 0.  1.
         12    1    3    3    0    0  0.32441193051E+02  0.26730711446E+02 -0.59734191643E+01  0.42457551478E+02  0.00000000000E+00 0. -1.
</event>
<event>
 7    1  0.1999542E-015  0.9000772E+02  0.7816164E-02  0.1186339E+00
        -11   -1    0    0    0    0  0.00000000000E+00  0.00000000000E+00  0.45593999997E+02  0.45594000000E+02  0.51100000000E-03 0.  1.
         11   -1    0    0    0    0 -0.00000000000E+00 -0.00000000000E+00 -0.45593999997E+02  0.45594000000E+02  0.51100000000E-03 0. -1.
    9900012    2    1    2    0    0 -0.10536035891E+01 -0.33427521065E+00  0.41382296031E+00  0.90007716186E+02  0.89999977240E+02 0.  0.
         12    1    1    2    0    0  0.10536035891E+01  0.33427521065E+00 -0.41382296031E+00  0.11802838141E+01  0.00000000000E+00 0. -1.
         11    1    3    3    0    0  0.14388356827E+02  0.14952283567E+02  0.12436693429E+02  0.24192290916E+02  0.51100000000E-03 0. -1.
        -11    1    3    3    0    0 -0.88431734429E+01 -0.19071828425E+02  0.22307514597E+02  0.30652268493E+02  0.51100000000E-03 0.  1.
         12    1    3    3    0    0 -0.65987869733E+01  0.37852696477E+01 -0.34330385065E+02  0.35163156777E+02  0.00000000000E+00 0. -1.
</event>
<event>
 7    1  0.1999542E-015  0.9000779E+02  0.7816164E-02  0.1186339E+00
        -11   -1    0    0    0    0  0.00000000000E+00  0.00000000000E+00  0.45593999997E+02  0.45594000000E+02  0.51100000000E-03 0.  1.
         11   -1    0    0    0    0 -0.00000000000E+00 -0.00000000000E+00 -0.45593999997E+02  0.45594000000E+02  0.51100000000E-03 0. -1.
    9900012    2    1    2    0    0  0.10074366335E+00 -0.10748652220E+01  0.47687363093E+00  0.90007791124E+02  0.90000053167E+02 0.  0.
         12    1    1    2    0    0 -0.10074366335E+00  0.10748652220E+01 -0.47687363093E+00  0.11802088760E+01  0.00000000000E+00 0. -1.
         11    1    3    3    0    0  0.78793454543E-01 -0.62267911113E+01  0.13400811317E+01  0.63698472237E+01  0.51100000000E-03 0. -1.
        -11    1    3    3    0    0 -0.24699591357E+02  0.85744545015E+01  0.32665388419E+02  0.41840395362E+02  0.51100000000E-03 0.  1.
         12    1    3    3    0    0  0.24721541566E+02 -0.34225286122E+01 -0.33528595919E+02  0.41797548539E+02  0.00000000000E+00 0. -1.
</event>
<event>
 7    1  0.1999542E-015  0.9000750E+02  0.7816164E-02  0.1186340E+00
        -11   -1    0    0    0    0  0.00000000000E+00  0.00000000000E+00  0.45593999997E+02  0.45594000000E+02  0.51100000000E-03 0. -1.
         11   -1    0    0    0    0 -0.00000000000E+00 -0.00000000000E+00 -0.45593999997E+02  0.45594000000E+02  0.51100000000E-03 0.  1.
    9900012    2    1    2    0    0  0.19621376339E+00  0.20630640808E+00 -0.11456500677E+01  0.90007501693E+02  0.89999759915E+02 0.  0.
         12    1    1    2    0    0 -0.19621376339E+00 -0.20630640808E+00  0.11456500677E+01  0.11804983069E+01  0.00000000000E+00 0. -1.
         11    1    3    3    0    0 -0.89631497954E+01 -0.99589957668E+01  0.96203365792E+01  0.16494560531E+02  0.51100000000E-03 0. -1.
        -11    1    3    3    0    0 -0.24037728814E+02  0.16399824213E+02 -0.23511649409E+02  0.37410751114E+02  0.51100000000E-03 0.  1.
         12    1    3    3    0    0  0.33197092373E+02 -0.62345220382E+01  0.12745662762E+02  0.36102190048E+02  0.00000000000E+00 0. -1.
</event>
<event>
 7    1  0.1999542E-015  0.9000777E+02  0.7816164E-02  0.1186339E+00
        -11   -1    0    0    0    0  0.00000000000E+00  0.00000000000E+00  0.45593999997E+02  0.45594000000E+02  0.51100000000E-03 0. -1.
         11   -1    0    0    0    0 -0.00000000000E+00 -0.00000000000E+00 -0.45593999997E+02  0.45594000000E+02  0.51100000000E-03 0.  1.
    9900012    2    1    2    0    0 -0.21398044341E+00  0.81791051205E+00 -0.82352085662E+00  0.90007766194E+02  0.90000027908E+02 0.  0.
         12    1    1    2    0    0  0.21398044341E+00 -0.81791051205E+00  0.82352085662E+00  0.11802338062E+01  0.00000000000E+00 0. -1.
         11    1    3    3    0    0  0.12751179687E+01 -0.95076984221E+01 -0.36144933502E+01  0.10251186154E+02  0.51100000000E-03 0. -1.
        -11    1    3    3    0    0 -0.21774576256E+02  0.37819199268E+02 -0.70382651905E+01  0.44203633126E+02  0.51100000000E-03 0.  1.
         12    1    3    3    0    0  0.20285477844E+02 -0.27493590334E+02  0.98292376841E+01  0.35552946914E+02  0.00000000000E+00 0. -1.
</event>
<event>
 7    1  0.1999542E-015  0.9000753E+02  0.7816164E-02  0.1186339E+00
        -11   -1    0    0    0    0  0.00000000000E+00  0.00000000000E+00  0.45593999997E+02  0.45594000000E+02  0.51100000000E-03 0.  1.
         11   -1    0    0    0    0 -0.00000000000E+00 -0.00000000000E+00 -0.45593999997E+02  0.45594000000E+02  0.51100000000E-03 0. -1.
    9900012    2    1    2    0    0  0.10738774442E+01 -0.31307604587E+00  0.37720918757E+00  0.90007527151E+02  0.89999785709E+02 0.  0.
         12    1    1    2    0    0 -0.10738774442E+01  0.31307604587E+00 -0.37720918757E+00  0.11804728488E+01  0.00000000000E+00 0. -1.
         11    1    3    3    0    0 -0.58828523769E+01 -0.24038135106E+01  0.30204080622E+01  0.70362729200E+01  0.51100000000E-03 0. -1.
        -11    1    3    3    0    0 -0.42143316783E+01 -0.11906625883E+02  0.37201391542E+02  0.39287044485E+02  0.51100000000E-03 0.  1.
         12    1    3    3    0    0  0.11171061499E+02  0.13997363347E+02 -0.39844590417E+02  0.43684209747E+02  0.00000000000E+00 0. -1.
</event>
<event>
 7    1  0.1999542E-015  0.9000775E+02  0.7816164E-02  0.1186339E+00
        -11   -1    0    0    0    0  0.00000000000E+00  0.00000000000E+00  0.45593999997E+02  0.45594000000E+02  0.51100000000E-03 0. -1.
         11   -1    0    0    0    0 -0.00000000000E+00 -0.00000000000E+00 -0.45593999997E+02  0.45594000000E+02  0.51100000000E-03 0.  1.
    9900012    2    1    2    0    0 -0.65358930265E+00  0.88007434235E+00 -0.43734884707E+00  0.90007752637E+02  0.90000014171E+02 0.  0.
         12    1    1    2    0    0  0.65358930265E+00 -0.88007434235E+00  0.43734884707E+00  0.11802473633E+01  0.00000000000E+00 0. -1.
         11    1    3    3    0    0  0.49443778965E+01 -0.49627631463E+01  0.62190799930E+01  0.93676489607E+01  0.51100000000E-03 0. -1.
        -11    1    3    3    0    0  0.16460416342E+02 -0.17149357655E+02 -0.32045405382E+02  0.39899295488E+02  0.51100000000E-03 0.  1.
         12    1    3    3    0    0 -0.22058383541E+02  0.22992195144E+02  0.25388976542E+02  0.40740808188E+02  0.00000000000E+00 0. -1.
</event>
<event>
 7    1  0.1999542E-015  0.9000782E+02  0.7816164E-02  0.1186339E+00
        -11   -1    0    0    0    0  0.00000000000E+00  0.00000000000E+00  0.45593999997E+02  0.45594000000E+02  0.51100000000E-03 0. -1.
         11   -1    0    0    0    0 -0.00000000000E+00 -0.00000000000E+00 -0.45593999997E+02  0.45594000000E+02  0.51100000000E-03 0.  1.
    9900012    2    1    2    0    0 -0.18330955115E+00  0.10386350531E+01  0.52959325839E+00  0.90007816038E+02  0.90000078410E+02 0.  0.
         12    1    1    2    0    0  0.18330955115E+00 -0.10386350531E+01 -0.52959325839E+00  0.11801839621E+01  0.00000000000E+00 0. -1.
         11    1    3    3    0    0 -0.10467531861E+01 -0.27469393070E+02  0.14344875114E+02  0.31007074841E+02  0.51100000000E-03 0. -1.
        -11    1    3    3    0    0  0.54197235397E+01 -0.93779345144E+01  0.93942006402E+01  0.14337714774E+02  0.51100000000E-03 0.  1.
        -12    1    3    3    0    0 -0.45562799047E+01  0.37885962638E+02 -0.23209482496E+02  0.44663026423E+02  0.00000000000E+00 0.  1.
</event>
<event>
 7    1  0.1999542E-015  0.9000768E+02  0.7816164E-02  0.1186339E+00
        -11   -1    0    0    0    0  0.00000000000E+00  0.00000000000E+00  0.45593999997E+02  0.45594000000E+02  0.51100000000E-03 0. -1.
         11   -1    0    0    0    0 -0.00000000000E+00 -0.00000000000E+00 -0.45593999997E+02  0.45594000000E+02  0.51100000000E-03 0.  1.
    9900012    2    1    2    0    0 -0.32637562894E-01 -0.11764736404E+01  0.89437539256E-01  0.90007680335E+02  0.89999940916E+02 0.  0.
         12    1    1    2    0    0  0.32637562894E-01  0.11764736404E+01 -0.89437539256E-01  0.11803196646E+01  0.00000000000E+00 0. -1.
         11    1    3    3    0    0 -0.99237735321E+01  0.34820074956E+02 -0.12330539796E+02  0.38248674657E+02  0.51100000000E-03 0. -1.
        -11    1    3    3    0    0 -0.93368096097E+01 -0.29425127529E+01 -0.34180685543E+01  0.10369068805E+02  0.51100000000E-03 0.  1.
        -12    1    3    3    0    0  0.19227945579E+02 -0.33054035844E+02  0.15838045890E+02  0.41389936873E+02  0.00000000000E+00 0.  1.
</event>
<event>
 7    1  0.1999542E-015  0.9000776E+02  0.7816164E-02  0.1186339E+00
        -11   -1    0    0    0    0  0.00000000000E+00  0.00000000000E+00  0.45593999997E+02  0.45594000000E+02  0.51100000000E-03 0.  1.
         11   -1    0    0    0    0 -0.00000000000E+00 -0.00000000000E+00 -0.45593999997E+02  0.45594000000E+02  0.51100000000E-03 0. -1.
    9900012    2    1    2    0    0 -0.72339828597E-01  0.10802605266E+01  0.46987230792E+00  0.90007756024E+02  0.90000017604E+02 0.  0.
         12    1    1    2    0    0  0.72339828597E-01 -0.10802605266E+01 -0.46987230792E+00  0.11802439755E+01  0.00000000000E+00 0. -1.
         11    1    3    3    0    0 -0.80029745371E+01 -0.35574832321E+02  0.20631358987E+02  0.41895933812E+02  0.51100000000E-03 0. -1.
        -11    1    3    3    0    0  0.65298352730E+01 -0.14330697473E+00 -0.52596617182E+01  0.83859005022E+01  0.51100000000E-03 0.  1.
        -12    1    3    3    0    0  0.14007994356E+01  0.36798399822E+02 -0.14901824961E+02  0.39725921710E+02  0.00000000000E+00 0.  1.
</event>
<event>
 7    1  0.1999542E-015  0.9000774E+02  0.7816164E-02  0.1186339E+00
        -11   -1    0    0    0    0  0.00000000000E+00  0.00000000000E+00  0.45593999997E+02  0.45594000000E+02  0.51100000000E-03 0. -1.
         11   -1    0    0    0    0 -0.00000000000E+00 -0.00000000000E+00 -0.45593999997E+02  0.45594000000E+02  0.51100000000E-03 0.  1.
    9900012    2    1    2    0    0  0.37616449195E+00  0.91852031817E+00 -0.63862094991E+00  0.90007739004E+02  0.90000000359E+02 0.  0.
         12    1    1    2    0    0 -0.37616449195E+00 -0.91852031817E+00  0.63862094991E+00  0.11802609955E+01  0.00000000000E+00 0. -1.
         11    1    3    3    0    0 -0.35408619927E+01 -0.40179012681E+00 -0.14478092272E+02  0.14910207747E+02  0.51100000000E-03 0. -1.
        -11    1    3    3    0    0 -0.13528610991E+02  0.23312394895E+02 -0.18182810244E+02  0.32513161331E+02  0.51100000000E-03 0.  1.
         12    1    3    3    0    0  0.17445637476E+02 -0.21992084450E+02  0.32022281566E+02  0.42584369927E+02  0.00000000000E+00 0. -1.
</event>
<event>
 7    1  0.1999542E-015  0.9000776E+02  0.7816164E-02  0.1186339E+00
        -11   -1    0    0    0    0  0.00000000000E+00  0.00000000000E+00  0.45593999997E+02  0.45594000000E+02  0.51100000000E-03 0.  1.
         11   -1    0    0    0    0 -0.00000000000E+00 -0.00000000000E+00 -0.45593999997E+02  0.45594000000E+02  0.51100000000E-03 0. -1.
    9900012    2    1    2    0    0 -0.11131706927E+01  0.38261575926E+00 -0.86135599610E-01  0.90007761400E+02  0.90000023051E+02 0.  0.
         12    1    1    2    0    0  0.11131706927E+01 -0.38261575926E+00  0.86135599610E-01  0.11802385995E+01  0.00000000000E+00 0. -1.
         11    1    3    3    0    0 -0.14787043448E-02  0.10240205868E+02 -0.29410147424E+01  0.10654172252E+02  0.51100000000E-03 0. -1.
        -11    1    3    3    0    0  0.73541069242E+01  0.20756066084E+02  0.30245106861E+02  0.37412079028E+02  0.51100000000E-03 0.  1.
         12    1    3    3    0    0 -0.84657989125E+01 -0.30613656193E+02 -0.27390227718E+02  0.41941510120E+02  0.00000000000E+00 0. -1.
</event>
<event>
 7    1  0.1999542E-015  0.9000779E+02  0.7816164E-02  0.1186339E+00
        -11   -1    0    0    0    0  0.00000000000E+00  0.00000000000E+00  0.45593999997E+02  0.45594000000E+02  0.51100000000E-03 0. -1.
         11   -1    0    0    0    0 -0.00000000000E+00 -0.00000000000E+00 -0.45593999997E+02  0.45594000000E+02  0.51100000000E-03 0.  1.
    9900012    2    1    2    0    0 -0.11333317411E+01 -0.28216515275E-01  0.32809726511E+00  0.90007794585E+02  0.90000056673E+02 0.  0.
         12    1    1    2    0    0  0.11333317411E+01  0.28216515275E-01 -0.32809726511E+00  0.11802054154E+01  0.00000000000E+00 0. -1.
         11    1    3    3    0    0  0.82806819359E+01  0.36988918726E+02  0.67222032063E+01  0.38495945476E+02  0.51100000000E-03 0. -1.
        -11    1    3    3    0    0  0.50971961275E+01  0.32589752117E+01 -0.62535472865E+01  0.87011023278E+01  0.51100000000E-03 0.  1.
        -12    1    3    3    0    0 -0.14511209805E+02 -0.40276110453E+02 -0.14055865462E+00  0.42810746781E+02  0.00000000000E+00 0.  1.
</event>
<event>
 7    1  0.1999542E-015  0.9000775E+02  0.7816164E-02  0.1186339E+00
        -11   -1    0    0    0    0  0.00000000000E+00  0.00000000000E+00  0.45593999997E+02  0.45594000000E+02  0.51100000000E-03 0.  1.
         11   -1    0    0    0    0 -0.00000000000E+00 -0.00000000000E+00 -0.45593999997E+02  0.45594000000E+02  0.51100000000E-03 0. -1.
    9900012    2    1    2    0    0 -0.50799124697E+00 -0.21544526760E+00  0.10433234867E+01  0.90007747625E+02  0.90000009094E+02 0.  0.
         12    1    1    2    0    0  0.50799124697E+00  0.21544526760E+00 -0.10433234867E+01  0.11802523748E+01  0.00000000000E+00 0. -1.
         11    1    3    3    0    0  0.89046088335E+01 -0.12253253518E+01  0.21134309948E+01  0.92336380439E+01  0.51100000000E-03 0. -1.
        -11    1    3    3    0    0  0.16250703148E+02 -0.49055761568E+01  0.33357546935E+02  0.37428277652E+02  0.51100000000E-03 0.  1.
         12    1    3    3    0    0 -0.25663303228E+02  0.59154562410E+01 -0.34427654444E+02  0.43345831929E+02  0.00000000000E+00 0. -1.
</event>
<event>
 7    1  0.1999542E-015  0.9000773E+02  0.7816164E-02  0.1186339E+00
        -11   -1    0    0    0    0  0.00000000000E+00  0.00000000000E+00  0.45593999997E+02  0.45594000000E+02  0.51100000000E-03 0.  1.
         11   -1    0    0    0    0 -0.00000000000E+00 -0.00000000000E+00 -0.45593999997E+02  0.45594000000E+02  0.51100000000E-03 0. -1.
    9900012    2    1    2    0    0  0.75467108519E+00 -0.90696065463E+00  0.30691362846E-01  0.90007725441E+02  0.89999986616E+02 0.  0.
         12    1    1    2    0    0 -0.75467108519E+00  0.90696065463E+00 -0.30691362846E-01  0.11802745594E+01  0.00000000000E+00 0. -1.
         11    1    3    3    0    0  0.37572294688E+02  0.12970761847E+02 -0.16435140721E+02  0.43011996487E+02  0.51100000000E-03 0. -1.
        -11    1    3    3    0    0 -0.18303832801E+01 -0.24537607778E+01  0.89124910560E+01  0.94235737378E+01  0.51100000000E-03 0.  1.
        -12    1    3    3    0    0 -0.34987240323E+02 -0.11423961724E+02  0.75533410276E+01  0.37572155216E+02  0.00000000000E+00 0.  1.
</event>
<event>
 7    1  0.2004674E-015  0.9000771E+02  0.7816164E-02  0.1186339E+00
        -11   -1    0    0    0    0  0.00000000000E+00  0.00000000000E+00  0.45593999997E+02  0.45594000000E+02  0.51100000000E-03 0.  1.
         11   -1    0    0    0    0 -0.00000000000E+00 -0.00000000000E+00 -0.45593999997E+02  0.45594000000E+02  0.51100000000E-03 0. -1.
    9900012    2    1    2    0    0 -0.67821593531E-01 -0.54367234362E+00 -0.10454197948E+01  0.90007711081E+02  0.89999972067E+02 0.  0.
         12    1    1    2    0    0  0.67821593531E-01  0.54367234362E+00  0.10454197948E+01  0.11802889194E+01  0.00000000000E+00 0. -1.
         11    1    3    3    0    0  0.39187523004E+02 -0.10114342124E+02  0.89965237582E+01  0.41459610656E+02  0.51100000000E-03 0. -1.
        -11    1    3    3    0    0 -0.53235330754E+01  0.20139772312E+01  0.76554692107E+01  0.95395134986E+01  0.51100000000E-03 0.  1.
        -12    1    3    3    0    0 -0.33931811522E+02  0.75566925488E+01 -0.17697412764E+02  0.39008586926E+02  0.00000000000E+00 0.  1.
</event>
<event>
 7    1  0.1999542E-015  0.9000773E+02  0.7816164E-02  0.1186339E+00
        -11   -1    0    0    0    0  0.00000000000E+00  0.00000000000E+00  0.45593999997E+02  0.45594000000E+02  0.51100000000E-03 0.  1.
         11   -1    0    0    0    0 -0.00000000000E+00 -0.00000000000E+00 -0.45593999997E+02  0.45594000000E+02  0.51100000000E-03 0. -1.
    9900012    2    1    2    0    0  0.53455669505E+00 -0.10428641808E+01 -0.14040270690E+00  0.90007733301E+02  0.89999994581E+02 0.  0.
         12    1    1    2    0    0 -0.53455669505E+00  0.10428641808E+01  0.14040270690E+00  0.11802666987E+01  0.00000000000E+00 0. -1.
         11    1    3    3    0    0  0.52260346922E+01  0.50048893609E+01 -0.58685652247E+01  0.93166739869E+01  0.51100000000E-03 0. -1.
        -11    1    3    3    0    0  0.20864513104E+02  0.27239610888E+02 -0.10211994246E+02  0.35799568924E+02  0.51100000000E-03 0.  1.
         12    1    3    3    0    0 -0.25555991101E+02 -0.33287364430E+02  0.15940156763E+02  0.44891490391E+02  0.00000000000E+00 0. -1.
</event>
<event>
 7    1  0.1999542E-015  0.9000788E+02  0.7816164E-02  0.1186339E+00
        -11   -1    0    0    0    0  0.00000000000E+00  0.00000000000E+00  0.45593999997E+02  0.45594000000E+02  0.51100000000E-03 0. -1.
         11   -1    0    0    0    0 -0.00000000000E+00 -0.00000000000E+00 -0.45593999997E+02  0.45594000000E+02  0.51100000000E-03 0.  1.
    9900012    2    1    2    0    0 -0.82998641376E+00 -0.41217908667E+00  0.73069495048E+00  0.90007879601E+02  0.90000142811E+02 0.  0.
         12    1    1    2    0    0  0.82998641376E+00  0.41217908667E+00 -0.73069495048E+00  0.11801203994E+01  0.00000000000E+00 0. -1.
         11    1    3    3    0    0 -0.25233666167E+00 -0.70915364241E+01 -0.32119082001E+01  0.77890896254E+01  0.51100000000E-03 0. -1.
        -11    1    3    3    0    0 -0.85371891451E+01  0.25033430924E+02 -0.31736956157E+02  0.41313322896E+02  0.51100000000E-03 0.  1.
         12    1    3    3    0    0  0.79595393930E+01 -0.18354073586E+02  0.35679559308E+02  0.40905467079E+02  0.00000000000E+00 0. -1.
</event>
<event>
 7    1  0.1999542E-015  0.9000785E+02  0.7816164E-02  0.1186339E+00
        -11   -1    0    0    0    0  0.00000000000E+00  0.00000000000E+00  0.45593999997E+02  0.45594000000E+02  0.51100000000E-03 0. -1.
         11   -1    0    0    0    0 -0.00000000000E+00 -0.00000000000E+00 -0.45593999997E+02  0.45594000000E+02  0.51100000000E-03 0.  1.
    9900012    2    1    2    0    0  0.90543962889E+00 -0.25482903313E+00 -0.71273202386E+00  0.90007853528E+02  0.90000116394E+02 0.  0.
         12    1    1    2    0    0 -0.90543962889E+00  0.25482903313E+00  0.71273202386E+00  0.11801464721E+01  0.00000000000E+00 0. -1.
         11    1    3    3    0    0 -0.21420024457E+01 -0.67196743401E+01  0.93298412648E+01  0.11695646028E+02  0.51100000000E-03 0. -1.
        -11    1    3    3    0    0  0.57106579785E+01  0.33586450940E+02  0.18567827957E+02  0.38799813616E+02  0.51100000000E-03 0.  1.
         12    1    3    3    0    0 -0.26632159039E+01 -0.27121605633E+02 -0.28610401246E+02  0.39512393885E+02  0.00000000000E+00 0. -1.
</event>
<event>
 7    1  0.1999542E-015  0.9000775E+02  0.7816164E-02  0.1186339E+00
        -11   -1    0    0    0    0  0.00000000000E+00  0.00000000000E+00  0.45593999997E+02  0.45594000000E+02  0.51100000000E-03 0.  1.
         11   -1    0    0    0    0 -0.00000000000E+00 -0.00000000000E+00 -0.45593999997E+02  0.45594000000E+02  0.51100000000E-03 0. -1.
    9900012    2    1    2    0    0 -0.16540758413E+00 -0.11331487570E+01  0.28567902738E+00  0.90007746518E+02  0.90000007972E+02 0.  0.
         12    1    1    2    0    0  0.16540758413E+00  0.11331487570E+01 -0.28567902738E+00  0.11802534817E+01  0.00000000000E+00 0. -1.
         11    1    3    3    0    0  0.30286824290E+02  0.15452867557E+02 -0.45625425054E+01  0.34305970846E+02  0.51100000000E-03 0. -1.
        -11    1    3    3    0    0  0.54262452186E+01  0.92620346410E+01 -0.21042659349E+01  0.10938800586E+02  0.51100000000E-03 0.  1.
        -12    1    3    3    0    0 -0.35878477093E+02 -0.25848050955E+02  0.69524874676E+01  0.44762975087E+02  0.00000000000E+00 0.  1.
</event>
<event>
 7    1  0.1999542E-015  0.9000778E+02  0.7816164E-02  0.1186339E+00
        -11   -1    0    0    0    0  0.00000000000E+00  0.00000000000E+00  0.45593999997E+02  0.45594000000E+02  0.51100000000E-03 0.  1.
         11   -1    0    0    0    0 -0.00000000000E+00 -0.00000000000E+00 -0.45593999997E+02  0.45594000000E+02  0.51100000000E-03 0. -1.
    9900012    2    1    2    0    0 -0.15858886628E+00  0.58778887056E+00  0.10110729208E+01  0.90007781954E+02  0.90000043876E+02 0.  0.
         12    1    1    2    0    0  0.15858886628E+00 -0.58778887056E+00 -0.10110729208E+01  0.11802180459E+01  0.00000000000E+00 0. -1.
         11    1    3    3    0    0  0.26874594696E+02  0.19840430631E+02 -0.15076513296E+02  0.36649526342E+02  0.51100000000E-03 0. -1.
        -11    1    3    3    0    0  0.94391401433E+01 -0.14076446838E+01 -0.35830460278E+00  0.95502467324E+01  0.51100000000E-03 0.  1.
        -12    1    3    3    0    0 -0.36472323705E+02 -0.17844997077E+02  0.16445890820E+02  0.43808008879E+02  0.00000000000E+00 0.  1.
</event>
<event>
 7    1  0.1999542E-015  0.9000779E+02  0.7816164E-02  0.1186339E+00
        -11   -1    0    0    0    0  0.00000000000E+00  0.00000000000E+00  0.45593999997E+02  0.45594000000E+02  0.51100000000E-03 0.  1.
         11   -1    0    0    0    0 -0.00000000000E+00 -0.00000000000E+00 -0.45593999997E+02  0.45594000000E+02  0.51100000000E-03 0. -1.
    9900012    2    1    2    0    0  0.25932284785E+00  0.52548367409E+00  0.10244573861E+01  0.90007790541E+02  0.90000052576E+02 0.  0.
         12    1    1    2    0    0 -0.25932284785E+00 -0.52548367409E+00 -0.10244573861E+01  0.11802094590E+01  0.00000000000E+00 0. -1.
         11    1    3    3    0    0  0.57252862042E+01 -0.82021614839E+01 -0.98001574141E+01  0.14003479594E+02  0.51100000000E-03 0. -1.
        -11    1    3    3    0    0  0.73915613512E+00  0.69413562432E+01  0.42809119500E+02  0.43374525829E+02  0.51100000000E-03 0.  1.
         12    1    3    3    0    0 -0.62051194914E+01  0.17862889147E+01 -0.31984504700E+02  0.32629785118E+02  0.00000000000E+00 0. -1.
</event>
<event>
 7    1  0.1999542E-015  0.9000677E+02  0.7816164E-02  0.1186341E+00
        -11   -1    0    0    0    0  0.00000000000E+00  0.00000000000E+00  0.45593999997E+02  0.45594000000E+02  0.51100000000E-03 0.  1.
         11   -1    0    0    0    0 -0.00000000000E+00 -0.00000000000E+00 -0.45593999997E+02  0.45594000000E+02  0.51100000000E-03 0. -1.
    9900012    2    1    2    0    0  0.71821890214E+00 -0.93381734432E+00  0.86355167832E-01  0.90006767407E+02  0.89999015931E+02 0.  0.
         12    1    1    2    0    0 -0.71821890214E+00  0.93381734432E+00 -0.86355167832E-01  0.11812325931E+01  0.00000000000E+00 0. -1.
         11    1    3    3    0    0 -0.77211819808E+01 -0.18690195947E+01 -0.52962519535E+01  0.95477835356E+01  0.51100000000E-03 0. -1.
        -11    1    3    3    0    0 -0.14332328445E+02  0.21638170601E+02 -0.25835759753E+02  0.36621203528E+02  0.51100000000E-03 0.  1.
         12    1    3    3    0    0  0.22771729328E+02 -0.20702968351E+02  0.31218366874E+02  0.43837780343E+02  0.00000000000E+00 0. -1.
</event>
<event>
 7    1  0.1999542E-015  0.9000773E+02  0.7816164E-02  0.1186339E+00
        -11   -1    0    0    0    0  0.00000000000E+00  0.00000000000E+00  0.45593999997E+02  0.45594000000E+02  0.51100000000E-03 0.  1.
         11   -1    0    0    0    0 -0.00000000000E+00 -0.00000000000E+00 -0.45593999997E+02  0.45594000000E+02  0.51100000000E-03 0. -1.
    9900012    2    1    2    0    0  0.31795236983E+00  0.28233895050E+00  0.11010146918E+01  0.90007727852E+02  0.89999989059E+02 0.  0.
         12    1    1    2    0    0 -0.31795236983E+00 -0.28233895050E+00 -0.11010146918E+01  0.11802721483E+01  0.00000000000E+00 0. -1.
         11    1    3    3    0    0 -0.41348945562E+01  0.23876519019E+02 -0.24703889585E+02  0.34604445876E+02  0.51100000000E-03 0. -1.
        -11    1    3    3    0    0 -0.57083660955E+01  0.11276182839E+02  0.54071345065E+01  0.13746812239E+02  0.51100000000E-03 0.  1.
        -12    1    3    3    0    0  0.10161213022E+02 -0.34870362907E+02  0.20397769770E+02  0.41656469737E+02  0.00000000000E+00 0.  1.
</event>
<event>
 7    1  0.1999542E-015  0.9000775E+02  0.7816164E-02  0.1186339E+00
        -11   -1    0    0    0    0  0.00000000000E+00  0.00000000000E+00  0.45593999997E+02  0.45594000000E+02  0.51100000000E-03 0.  1.
         11   -1    0    0    0    0 -0.00000000000E+00 -0.00000000000E+00 -0.45593999997E+02  0.45594000000E+02  0.51100000000E-03 0. -1.
    9900012    2    1    2    0    0  0.81244520143E-01 -0.64300552757E+00  0.98637956900E+00  0.90007745182E+02  0.90000006619E+02 0.  0.
         12    1    1    2    0    0 -0.81244520143E-01  0.64300552757E+00 -0.98637956900E+00  0.11802548177E+01  0.00000000000E+00 0. -1.
         11    1    3    3    0    0  0.41032321707E+01  0.14485474867E+01 -0.38765109242E+02  0.39008569557E+02  0.51100000000E-03 0. -1.
        -11    1    3    3    0    0  0.85318595468E+01  0.41546180555E+01  0.71016978131E+00  0.95161872561E+01  0.51100000000E-03 0.  1.
        -12    1    3    3    0    0 -0.12553847197E+02 -0.62461710698E+01  0.39041319030E+02  0.41482988369E+02  0.00000000000E+00 0.  1.
</event>
<event>
 7    1  0.1999542E-015  0.9000784E+02  0.7816164E-02  0.1186339E+00
        -11   -1    0    0    0    0  0.00000000000E+00  0.00000000000E+00  0.45593999997E+02  0.45594000000E+02  0.51100000000E-03 0.  1.
         11   -1    0    0    0    0 -0.00000000000E+00 -0.00000000000E+00 -0.45593999997E+02  0.45594000000E+02  0.51100000000E-03 0. -1.
    9900012    2    1    2    0    0  0.96888595717E+00  0.54746436252E+00 -0.39283725698E+00  0.90007839699E+02  0.90000102383E+02 0.  0.
         12    1    1    2    0    0 -0.96888595717E+00 -0.54746436252E+00  0.39283725698E+00  0.11801603013E+01  0.00000000000E+00 0. -1.
         11    1    3    3    0    0 -0.51943183210E+01 -0.10863415720E+01 -0.42180943099E+00  0.53234391410E+01  0.51100000000E-03 0. -1.
        -11    1    3    3    0    0 -0.31916107748E+02 -0.67094214050E+01 -0.22535521857E+02  0.39642199926E+02  0.51100000000E-03 0.  1.
         12    1    3    3    0    0  0.38079312026E+02  0.83432273396E+01  0.22564494031E+02  0.45042200631E+02  0.00000000000E+00 0. -1.
</event>
<event>
 7    1  0.1999542E-015  0.9000774E+02  0.7816164E-02  0.1186339E+00
        -11   -1    0    0    0    0  0.00000000000E+00  0.00000000000E+00  0.45593999997E+02  0.45594000000E+02  0.51100000000E-03 0.  1.
         11   -1    0    0    0    0 -0.00000000000E+00 -0.00000000000E+00 -0.45593999997E+02  0.45594000000E+02  0.51100000000E-03 0. -1.
    9900012    2    1    2    0    0  0.38416432269E-01 -0.46771930360E+00  0.10829436157E+01  0.90007744077E+02  0.90000005499E+02 0.  0.
         12    1    1    2    0    0 -0.38416432269E-01  0.46771930360E+00 -0.10829436157E+01  0.11802559231E+01  0.00000000000E+00 0. -1.
         11    1    3    3    0    0 -0.35186713223E+01  0.56698836147E+01  0.68632962231E+01  0.95725369357E+01  0.51100000000E-03 0. -1.
        -11    1    3    3    0    0 -0.15313430155E+02 -0.35797956235E+02  0.12393876786E+02  0.40860775761E+02  0.51100000000E-03 0.  1.
         12    1    3    3    0    0  0.18870517909E+02  0.29660353317E+02 -0.18174229393E+02  0.39574431380E+02  0.00000000000E+00 0. -1.
</event>
<event>
 7    1  0.1999542E-015  0.9000773E+02  0.7816164E-02  0.1186339E+00
        -11   -1    0    0    0    0  0.00000000000E+00  0.00000000000E+00  0.45593999997E+02  0.45594000000E+02  0.51100000000E-03 0. -1.
         11   -1    0    0    0    0 -0.00000000000E+00 -0.00000000000E+00 -0.45593999997E+02  0.45594000000E+02  0.51100000000E-03 0.  1.
    9900012    2    1    2    0    0  0.11428430359E+01  0.16698844297E+00 -0.24303783834E+00  0.90007727686E+02  0.89999988891E+02 0.  0.
         12    1    1    2    0    0 -0.11428430359E+01 -0.16698844297E+00  0.24303783834E+00  0.11802723142E+01  0.00000000000E+00 0. -1.
         11    1    3    3    0    0 -0.42145171259E+01 -0.31366919487E+02  0.12474875507E+02  0.34018646532E+02  0.51100000000E-03 0. -1.
        -11    1    3    3    0    0 -0.69855098316E+01 -0.79774143671E+01 -0.98872469610E+01  0.14498073676E+02  0.51100000000E-03 0.  1.
        -12    1    3    3    0    0  0.12342869993E+02  0.39511322297E+02 -0.28306663839E+01  0.41491007478E+02  0.00000000000E+00 0.  1.
</event>
<event>
 7    1  0.1999542E-015  0.9000780E+02  0.7816164E-02  0.1186339E+00
        -11   -1    0    0    0    0  0.00000000000E+00  0.00000000000E+00  0.45593999997E+02  0.45594000000E+02  0.51100000000E-03 0.  1.
         11   -1    0    0    0    0 -0.00000000000E+00 -0.00000000000E+00 -0.45593999997E+02  0.45594000000E+02  0.51100000000E-03 0. -1.
    9900012    2    1    2    0    0  0.70459041106E+00 -0.94295097266E+00 -0.85308545440E-01  0.90007795894E+02  0.90000058000E+02 0.  0.
         12    1    1    2    0    0 -0.70459041106E+00  0.94295097266E+00  0.85308545440E-01  0.11802041061E+01  0.00000000000E+00 0. -1.
         11    1    3    3    0    0  0.21802575584E+01 -0.11295822403E+02 -0.31799253500E+02  0.33816292674E+02  0.51100000000E-03 0. -1.
        -11    1    3    3    0    0  0.72621937493E+01 -0.74183715633E+01 -0.71278257597E+01  0.12592759627E+02  0.51100000000E-03 0.  1.
        -12    1    3    3    0    0 -0.87378608967E+01  0.17771242994E+02  0.38841770715E+02  0.43598743593E+02  0.00000000000E+00 0.  1.
</event>
<event>
 7    1  0.1999542E-015  0.9000769E+02  0.7816164E-02  0.1186339E+00
        -11   -1    0    0    0    0  0.00000000000E+00  0.00000000000E+00  0.45593999997E+02  0.45594000000E+02  0.51100000000E-03 0.  1.
         11   -1    0    0    0    0 -0.00000000000E+00 -0.00000000000E+00 -0.45593999997E+02  0.45594000000E+02  0.51100000000E-03 0. -1.
    9900012    2    1    2    0    0  0.61667642600E+00  0.43442863430E+00  0.90780860961E+00  0.90007688802E+02  0.89999949494E+02 0.  0.
         12    1    1    2    0    0 -0.61667642600E+00 -0.43442863430E+00 -0.90780860961E+00  0.11803111981E+01  0.00000000000E+00 0. -1.
         11    1    3    3    0    0 -0.30449982131E+02  0.20257601710E+02 -0.30175569094E+01  0.36697104638E+02  0.51100000000E-03 0. -1.
        -11    1    3    3    0    0  0.48649126543E+01  0.11109164591E+02 -0.21590477316E+01  0.12318376533E+02  0.51100000000E-03 0.  1.
        -12    1    3    3    0    0  0.26201745903E+02 -0.30932337667E+02  0.60844132506E+01  0.40992207631E+02  0.00000000000E+00 0.  1.
</event>
<event>
 7    1  0.1999542E-015  0.9000779E+02  0.7816164E-02  0.1186339E+00
        -11   -1    0    0    0    0  0.00000000000E+00  0.00000000000E+00  0.45593999997E+02  0.45594000000E+02  0.51100000000E-03 0. -1.
         11   -1    0    0    0    0 -0.00000000000E+00 -0.00000000000E+00 -0.45593999997E+02  0.45594000000E+02  0.51100000000E-03 0.  1.
    9900012    2    1    2    0    0  0.37013799868E+00  0.80660789010E+00 -0.77798988709E+00  0.90007793793E+02  0.90000055871E+02 0.  0.
         12    1    1    2    0    0 -0.37013799868E+00 -0.80660789010E+00  0.77798988709E+00  0.11802062069E+01  0.00000000000E+00 0. -1.
         11    1    3    3    0    0 -0.83529092598E+01  0.35259681404E+02  0.69753671400E+01  0.36900839730E+02  0.51100000000E-03 0. -1.
        -11    1    3    3    0    0 -0.31163835822E+01  0.75819609164E+01 -0.44105788306E+01  0.93086617648E+01  0.51100000000E-03 0.  1.
        -12    1    3    3    0    0  0.11839430841E+02 -0.42035034430E+02 -0.33427781965E+01  0.43798292298E+02  0.00000000000E+00 0.  1.
</event>
<event>
 7    1  0.1999542E-015  0.9000754E+02  0.7816164E-02  0.1186339E+00
        -11   -1    0    0    0    0  0.00000000000E+00  0.00000000000E+00  0.45593999997E+02  0.45594000000E+02  0.51100000000E-03 0.  1.
         11   -1    0    0    0    0 -0.00000000000E+00 -0.00000000000E+00 -0.45593999997E+02  0.45594000000E+02  0.51100000000E-03 0. -1.
    9900012    2    1    2    0    0 -0.38781906299E+00  0.10565049325E+01  0.35620886945E+00  0.90007537778E+02  0.89999796477E+02 0.  0.
         12    1    1    2    0    0  0.38781906299E+00 -0.10565049325E+01 -0.35620886945E+00  0.11804622216E+01  0.00000000000E+00 0. -1.
         11    1    3    3    0    0 -0.16555850667E+01  0.94729730298E+01  0.48579615268E+01  0.10773948691E+02  0.51100000000E-03 0. -1.
        -11    1    3    3    0    0 -0.16384056533E+02  0.41564668207E+01  0.32339687411E+02  0.36490668766E+02  0.51100000000E-03 0.  1.
         12    1    3    3    0    0  0.17651822537E+02 -0.12572934918E+02 -0.36841440068E+02  0.42742920321E+02  0.00000000000E+00 0. -1.
</event>
<event>
 7    1  0.1999542E-015  0.9000777E+02  0.7816164E-02  0.1186339E+00
        -11   -1    0    0    0    0  0.00000000000E+00  0.00000000000E+00  0.45593999997E+02  0.45594000000E+02  0.51100000000E-03 0. -1.
         11   -1    0    0    0    0 -0.00000000000E+00 -0.00000000000E+00 -0.45593999997E+02  0.45594000000E+02  0.51100000000E-03 0.  1.
    9900012    2    1    2    0    0 -0.38369387743E+00 -0.57545991512E+00 -0.95632996824E+00  0.90007770313E+02  0.90000032081E+02 0.  0.
         12    1    1    2    0    0  0.38369387743E+00  0.57545991512E+00  0.95632996824E+00  0.11802296868E+01  0.00000000000E+00 0. -1.
         11    1    3    3    0    0  0.79320368125E+01  0.24286652285E+02  0.32290921695E+02  0.41175991929E+02  0.51100000000E-03 0. -1.
        -11    1    3    3    0    0 -0.78341377960E+00  0.42632780443E+01 -0.97132932128E+01  0.10636603882E+02  0.51100000000E-03 0.  1.
        -12    1    3    3    0    0 -0.75323169104E+01 -0.29125390244E+02 -0.23533958451E+02  0.38195174502E+02  0.00000000000E+00 0.  1.
</event>
<event>
 7    1  0.1999542E-015  0.9000784E+02  0.7816164E-02  0.1186339E+00
        -11   -1    0    0    0    0  0.00000000000E+00  0.00000000000E+00  0.45593999997E+02  0.45594000000E+02  0.51100000000E-03 0. -1.
         11   -1    0    0    0    0 -0.00000000000E+00 -0.00000000000E+00 -0.45593999997E+02  0.45594000000E+02  0.51100000000E-03 0.  1.
    9900012    2    1    2    0    0 -0.60763463876E+00  0.31346822181E+00  0.96192706409E+00  0.90007836513E+02  0.90000099155E+02 0.  0.
         12    1    1    2    0    0  0.60763463876E+00 -0.31346822181E+00 -0.96192706409E+00  0.11801634874E+01  0.00000000000E+00 0. -1.
         11    1    3    3    0    0  0.54865734692E+01 -0.52808634443E+01  0.51304951003E+01  0.91821559226E+01  0.51100000000E-03 0. -1.
        -11    1    3    3    0    0 -0.16459345973E+02 -0.95493284221E+01 -0.37909384943E+02  0.42417227752E+02  0.51100000000E-03 0.  1.
         12    1    3    3    0    0  0.10365137865E+02  0.15143660088E+02  0.33740816907E+02  0.38408452838E+02  0.00000000000E+00 0. -1.
</event>
<event>
 7    1  0.1999542E-015  0.9000791E+02  0.7816164E-02  0.1186339E+00
        -11   -1    0    0    0    0  0.00000000000E+00  0.00000000000E+00  0.45593999997E+02  0.45594000000E+02  0.51100000000E-03 0.  1.
         11   -1    0    0    0    0 -0.00000000000E+00 -0.00000000000E+00 -0.45593999997E+02  0.45594000000E+02  0.51100000000E-03 0. -1.
    9900012    2    1    2    0    0  0.31625651572E+00  0.67126322085E+00  0.91760874334E+00  0.90007907503E+02  0.90000171082E+02 0.  0.
         12    1    1    2    0    0 -0.31625651572E+00 -0.67126322085E+00 -0.91760874334E+00  0.11800924969E+01  0.00000000000E+00 0. -1.
         11    1    3    3    0    0 -0.72702914430E+01  0.50072971981E+01 -0.25857758531E+01  0.91987172975E+01  0.51100000000E-03 0. -1.
        -11    1    3    3    0    0  0.15744190957E+02  0.35992114829E+02  0.52093350205E+01  0.39628891612E+02  0.51100000000E-03 0.  1.
         12    1    3    3    0    0 -0.81576429987E+01 -0.40328148806E+02 -0.17059504240E+01  0.41180298594E+02  0.00000000000E+00 0. -1.
</event>
<event>
 7    1  0.1999542E-015  0.9000772E+02  0.7816164E-02  0.1186339E+00
        -11   -1    0    0    0    0  0.00000000000E+00  0.00000000000E+00  0.45593999997E+02  0.45594000000E+02  0.51100000000E-03 0.  1.
         11   -1    0    0    0    0 -0.00000000000E+00 -0.00000000000E+00 -0.45593999997E+02  0.45594000000E+02  0.51100000000E-03 0. -1.
    9900012    2    1    2    0    0  0.71002729082E+00  0.48845502284E+00  0.80642585727E+00  0.90007724724E+02  0.89999985891E+02 0.  0.
         12    1    1    2    0    0 -0.71002729082E+00 -0.48845502284E+00 -0.80642585727E+00  0.11802752756E+01  0.00000000000E+00 0. -1.
         11    1    3    3    0    0 -0.86634106363E+01  0.63191963491E+01 -0.54927067137E+01  0.12048101662E+02  0.51100000000E-03 0. -1.
        -11    1    3    3    0    0  0.73837476566E+01  0.11528045742E+02  0.38753680177E+02  0.41100648360E+02  0.51100000000E-03 0.  1.
         12    1    3    3    0    0  0.19896902705E+01 -0.17358787068E+02 -0.32454547606E+02  0.36858974703E+02  0.00000000000E+00 0. -1.
</event>
<event>
 7    1  0.1999542E-015  0.9000775E+02  0.7816164E-02  0.1186339E+00
        -11   -1    0    0    0    0  0.00000000000E+00  0.00000000000E+00  0.45593999997E+02  0.45594000000E+02  0.51100000000E-03 0.  1.
         11   -1    0    0    0    0 -0.00000000000E+00 -0.00000000000E+00 -0.45593999997E+02  0.45594000000E+02  0.51100000000E-03 0. -1.
    9900012    2    1    2    0    0 -0.76931636939E+00  0.89244643255E+00  0.68388003683E-01  0.90007752047E+02  0.90000013574E+02 0.  0.
         12    1    1    2    0    0  0.76931636939E+00 -0.89244643255E+00 -0.68388003683E-01  0.11802479529E+01  0.00000000000E+00 0. -1.
         11    1    3    3    0    0  0.10077050779E+02 -0.27063129815E+02 -0.30151247282E+02  0.41749942044E+02  0.51100000000E-03 0. -1.
        -11    1    3    3    0    0  0.68891963752E+01  0.45855693049E+01  0.71313247812E+01  0.10924480122E+02  0.51100000000E-03 0.  1.
        -12    1    3    3    0    0 -0.17735563524E+02  0.23370006943E+02  0.23088310504E+02  0.37333329880E+02  0.00000000000E+00 0.  1.
</event>
<event>
 7    1  0.1999542E-015  0.9000780E+02  0.7816164E-02  0.1186339E+00
        -11   -1    0    0    0    0  0.00000000000E+00  0.00000000000E+00  0.45593999997E+02  0.45594000000E+02  0.51100000000E-03 0.  1.
         11   -1    0    0    0    0 -0.00000000000E+00 -0.00000000000E+00 -0.45593999997E+02  0.45594000000E+02  0.51100000000E-03 0. -1.
    9900012    2    1    2    0    0 -0.13881949118E+00 -0.73121067545E+00  0.91593276813E+00  0.90007799704E+02  0.90000061860E+02 0.  0.
         12    1    1    2    0    0  0.13881949118E+00  0.73121067545E+00 -0.91593276813E+00  0.11802002960E+01  0.00000000000E+00 0. -1.
         11    1    3    3    0    0  0.35503588754E+00  0.67889456016E+01  0.57150073088E+01  0.88812804067E+01  0.51100000000E-03 0. -1.
        -11    1    3    3    0    0 -0.36777744039E+01 -0.67156133055E+01  0.37715722137E+02  0.38485077409E+02  0.51100000000E-03 0.  1.
         12    1    3    3    0    0  0.31839190252E+01 -0.80454297150E+00 -0.42514796677E+02  0.42641441888E+02  0.00000000000E+00 0. -1.
</event>
<event>
 7    1  0.1999542E-015  0.9000775E+02  0.7816164E-02  0.1186339E+00
        -11   -1    0    0    0    0  0.00000000000E+00  0.00000000000E+00  0.45593999997E+02  0.45594000000E+02  0.51100000000E-03 0.  1.
         11   -1    0    0    0    0 -0.00000000000E+00 -0.00000000000E+00 -0.45593999997E+02  0.45594000000E+02  0.51100000000E-03 0. -1.
    9900012    2    1    2    0    0  0.10025261336E+01  0.60852003254E+00  0.13280271191E+00  0.90007749248E+02  0.90000010738E+02 0.  0.
         12    1    1    2    0    0 -0.10025261336E+01 -0.60852003254E+00 -0.13280271191E+00  0.11802507525E+01  0.00000000000E+00 0. -1.
         11    1    3    3    0    0  0.28915180728E+02  0.30973053805E+02  0.54940409991E+00  0.42375931655E+02  0.51100000000E-03 0. -1.
        -11    1    3    3    0    0  0.20488958039E+01 -0.52336871301E+01  0.57526114825E+01  0.80425116799E+01  0.51100000000E-03 0.  1.
        -12    1    3    3    0    0 -0.29961550398E+02 -0.25130846642E+02 -0.61692128705E+01  0.39589305913E+02  0.00000000000E+00 0.  1.
</event>
<event>
 7    1  0.1999542E-015  0.9000770E+02  0.7816164E-02  0.1186339E+00
        -11   -1    0    0    0    0  0.00000000000E+00  0.00000000000E+00  0.45593999997E+02  0.45594000000E+02  0.51100000000E-03 0. -1.
         11   -1    0    0    0    0 -0.00000000000E+00 -0.00000000000E+00 -0.45593999997E+02  0.45594000000E+02  0.51100000000E-03 0.  1.
    9900012    2    1    2    0    0 -0.93255028055E+00  0.10445898943E+00 -0.71592623244E+00  0.90007698311E+02  0.89999959129E+02 0.  0.
         12    1    1    2    0    0  0.93255028055E+00 -0.10445898943E+00  0.71592623244E+00  0.11803016888E+01  0.00000000000E+00 0. -1.
         11    1    3    3    0    0  0.83086252601E+01 -0.19855797670E+02  0.27050615381E+02  0.34569086588E+02  0.51100000000E-03 0. -1.
        -11    1    3    3    0    0  0.85965228190E+00 -0.78055207603E+01  0.64994050710E+01  0.10193499052E+02  0.51100000000E-03 0.  1.
        -12    1    3    3    0    0 -0.10100827823E+02  0.27765777420E+02 -0.34265946684E+02  0.45245112671E+02  0.00000000000E+00 0.  1.
</event>
<event>
 7    1  0.1999542E-015  0.9000780E+02  0.7816164E-02  0.1186339E+00
        -11   -1    0    0    0    0  0.00000000000E+00  0.00000000000E+00  0.45593999997E+02  0.45594000000E+02  0.51100000000E-03 0.  1.
         11   -1    0    0    0    0 -0.00000000000E+00 -0.00000000000E+00 -0.45593999997E+02  0.45594000000E+02  0.51100000000E-03 0. -1.
    9900012    2    1    2    0    0  0.11725840910E+01  0.87451878612E-01  0.10132577416E+00  0.90007801629E+02  0.90000063811E+02 0.  0.
         12    1    1    2    0    0 -0.11725840910E+01 -0.87451878612E-01 -0.10132577416E+00  0.11801983706E+01  0.00000000000E+00 0. -1.
         11    1    3    3    0    0 -0.17120043083E+02  0.25329310320E+02  0.22520405958E+02  0.37971548839E+02  0.51100000000E-03 0. -1.
        -11    1    3    3    0    0 -0.20779572324E+01  0.45551039198E+01  0.47171297165E+01  0.68788219197E+01  0.51100000000E-03 0.  1.
        -12    1    3    3    0    0  0.20370584407E+02 -0.29796962361E+02 -0.27136209901E+02  0.45157430870E+02  0.00000000000E+00 0.  1.
</event>
<event>
 7    1  0.1999542E-015  0.9000771E+02  0.7816164E-02  0.1186339E+00
        -11   -1    0    0    0    0  0.00000000000E+00  0.00000000000E+00  0.45593999997E+02  0.45594000000E+02  0.51100000000E-03 0.  1.
         11   -1    0    0    0    0 -0.00000000000E+00 -0.00000000000E+00 -0.45593999997E+02  0.45594000000E+02  0.51100000000E-03 0. -1.
    9900012    2    1    2    0    0 -0.42759395651E+00  0.69688930826E+00  0.85123175617E+00  0.90007709018E+02  0.89999969977E+02 0.  0.
         12    1    1    2    0    0  0.42759395651E+00 -0.69688930826E+00 -0.85123175617E+00  0.11802909821E+01  0.00000000000E+00 0. -1.
         11    1    3    3    0    0  0.62960981295E+01  0.23857110809E+00  0.64795031124E+01  0.90377944585E+01  0.51100000000E-03 0. -1.
        -11    1    3    3    0    0 -0.23213731936E+02  0.10158335743E+02  0.30763654728E+02  0.39855634331E+02  0.51100000000E-03 0.  1.
         12    1    3    3    0    0  0.16490039850E+02 -0.97000175424E+01 -0.36391926084E+02  0.41114280228E+02  0.00000000000E+00 0. -1.
</event>
<event>
 7    1  0.1999542E-015  0.9000771E+02  0.7816164E-02  0.1186339E+00
        -11   -1    0    0    0    0  0.00000000000E+00  0.00000000000E+00  0.45593999997E+02  0.45594000000E+02  0.51100000000E-03 0. -1.
         11   -1    0    0    0    0 -0.00000000000E+00 -0.00000000000E+00 -0.45593999997E+02  0.45594000000E+02  0.51100000000E-03 0.  1.
    9900012    2    1    2    0    0  0.98814896615E+00 -0.59394678509E+00 -0.25274095928E+00  0.90007708021E+02  0.89999968967E+02 0.  0.
         12    1    1    2    0    0 -0.98814896615E+00  0.59394678509E+00  0.25274095928E+00  0.11802919788E+01  0.00000000000E+00 0. -1.
         11    1    3    3    0    0  0.13417788653E+02 -0.31089569839E+02  0.18710064731E+02  0.38686753904E+02  0.51100000000E-03 0. -1.
        -11    1    3    3    0    0  0.34110863989E+01 -0.64543147565E+01 -0.13241328012E+01  0.74193677178E+01  0.51100000000E-03 0.  1.
        -12    1    3    3    0    0 -0.15840726086E+02  0.36949937810E+02 -0.17638672889E+02  0.43901586400E+02  0.00000000000E+00 0.  1.
</event>
<event>
 7    1  0.1999542E-015  0.9000773E+02  0.7816164E-02  0.1186339E+00
        -11   -1    0    0    0    0  0.00000000000E+00  0.00000000000E+00  0.45593999997E+02  0.45594000000E+02  0.51100000000E-03 0.  1.
         11   -1    0    0    0    0 -0.00000000000E+00 -0.00000000000E+00 -0.45593999997E+02  0.45594000000E+02  0.51100000000E-03 0. -1.
    9900012    2    1    2    0    0  0.52324671215E+00 -0.10049185534E+01  0.33074576453E+00  0.90007728344E+02  0.89999989558E+02 0.  0.
         12    1    1    2    0    0 -0.52324671215E+00  0.10049185534E+01 -0.33074576453E+00  0.11802716558E+01  0.00000000000E+00 0. -1.
         11    1    3    3    0    0  0.10168833632E+02 -0.82782232675E+01 -0.35045062381E+01  0.13572609260E+02  0.51100000000E-03 0. -1.
        -11    1    3    3    0    0 -0.13326897699E+02 -0.14081195390E+02  0.34091858548E+02  0.39219141824E+02  0.51100000000E-03 0.  1.
         12    1    3    3    0    0  0.36813107799E+01  0.21354500104E+02 -0.30256606545E+02  0.37215977260E+02  0.00000000000E+00 0. -1.
</event>
<event>
 7    1  0.1999542E-015  0.9000757E+02  0.7816164E-02  0.1186339E+00
        -11   -1    0    0    0    0  0.00000000000E+00  0.00000000000E+00  0.45593999997E+02  0.45594000000E+02  0.51100000000E-03 0.  1.
         11   -1    0    0    0    0 -0.00000000000E+00 -0.00000000000E+00 -0.45593999997E+02  0.45594000000E+02  0.51100000000E-03 0. -1.
    9900012    2    1    2    0    0  0.86634937792E+00 -0.40125787949E+00  0.69415530589E+00  0.90007567571E+02  0.89999826663E+02 0.  0.
         12    1    1    2    0    0 -0.86634937792E+00  0.40125787949E+00 -0.69415530589E+00  0.11804324289E+01  0.00000000000E+00 0. -1.
         11    1    3    3    0    0  0.15082823089E+02  0.27039911581E+01 -0.41948484033E+01  0.15887097718E+02  0.51100000000E-03 0. -1.
        -11    1    3    3    0    0  0.35372141925E+01  0.15679887290E+02  0.32525566674E+02  0.36280617930E+02  0.51100000000E-03 0.  1.
        -12    1    3    3    0    0 -0.17753687904E+02 -0.18785136328E+02 -0.27636562965E+02  0.37839851923E+02  0.00000000000E+00 0.  1.
</event>
<event>
 7    1  0.1999542E-015  0.9000786E+02  0.7816164E-02  0.1186339E+00
        -11   -1    0    0    0    0  0.00000000000E+00  0.00000000000E+00  0.45593999997E+02  0.45594000000E+02  0.51100000000E-03 0. -1.
         11   -1    0    0    0    0 -0.00000000000E+00 -0.00000000000E+00 -0.45593999997E+02  0.45594000000E+02  0.51100000000E-03 0.  1.
    9900012    2    1    2    0    0  0.12768147644E+00 -0.33700981268E+00 -0.11237654088E+01  0.90007861505E+02  0.90000124477E+02 0.  0.
         12    1    1    2    0    0 -0.12768147644E+00  0.33700981268E+00  0.11237654088E+01  0.11801384949E+01  0.00000000000E+00 0. -1.
         11    1    3    3    0    0 -0.10489345120E+02 -0.70396288174E+00  0.30900270616E+02  0.32639679060E+02  0.51100000000E-03 0. -1.
        -11    1    3    3    0    0 -0.11017924532E+02 -0.19519844527E+01  0.66332679322E+01  0.13007887915E+02  0.51100000000E-03 0.  1.
        -12    1    3    3    0    0  0.21634951128E+02  0.23189375217E+01 -0.38657303957E+02  0.44360294529E+02  0.00000000000E+00 0.  1.
</event>
<event>
 7    1  0.1999542E-015  0.9000783E+02  0.7816164E-02  0.1186339E+00
        -11   -1    0    0    0    0  0.00000000000E+00  0.00000000000E+00  0.45593999997E+02  0.45594000000E+02  0.51100000000E-03 0. -1.
         11   -1    0    0    0    0 -0.00000000000E+00 -0.00000000000E+00 -0.45593999997E+02  0.45594000000E+02  0.51100000000E-03 0.  1.
    9900012    2    1    2    0    0  0.29977213960E+00  0.40245388322E+00 -0.10681668265E+01  0.90007825084E+02  0.90000087575E+02 0.  0.
         12    1    1    2    0    0 -0.29977213960E+00 -0.40245388322E+00  0.10681668265E+01  0.11801749163E+01  0.00000000000E+00 0. -1.
         11    1    3    3    0    0  0.48693101996E+01 -0.43811151655E+01  0.72575874864E+01  0.97763453447E+01  0.51100000000E-03 0. -1.
        -11    1    3    3    0    0 -0.27380315308E+02  0.13262567219E+02  0.24714220595E+02  0.39196556679E+02  0.51100000000E-03 0.  1.
         12    1    3    3    0    0  0.22810777248E+02 -0.84789981700E+01 -0.33039974908E+02  0.41034923060E+02  0.00000000000E+00 0. -1.
</event>
<event>
 7    1  0.1999542E-015  0.9000773E+02  0.7816164E-02  0.1186339E+00
        -11   -1    0    0    0    0  0.00000000000E+00  0.00000000000E+00  0.45593999997E+02  0.45594000000E+02  0.51100000000E-03 0.  1.
         11   -1    0    0    0    0 -0.00000000000E+00 -0.00000000000E+00 -0.45593999997E+02  0.45594000000E+02  0.51100000000E-03 0. -1.
    9900012    2    1    2    0    0 -0.10455401542E+01 -0.54698399772E+00 -0.26201919530E-01  0.90007732129E+02  0.89999993393E+02 0.  0.
         12    1    1    2    0    0  0.10455401542E+01  0.54698399772E+00  0.26201919530E-01  0.11802678714E+01  0.00000000000E+00 0. -1.
         11    1    3    3    0    0 -0.26975465606E+02  0.32801657939E+01 -0.11468850202E+02  0.29495249745E+02  0.51100000000E-03 0. -1.
        -11    1    3    3    0    0 -0.14969184155E+02 -0.65832760699E+01 -0.37822575051E+01  0.16784560470E+02  0.51100000000E-03 0.  1.
        -12    1    3    3    0    0  0.40899109607E+02  0.27561262783E+01  0.15224905787E+02  0.43727921914E+02  0.00000000000E+00 0.  1.
</event>
<event>
 7    1  0.2909814E-015  0.9000791E+02  0.7816164E-02  0.1186339E+00
        -11   -1    0    0    0    0  0.00000000000E+00  0.00000000000E+00  0.45593999997E+02  0.45594000000E+02  0.51100000000E-03 0.  1.
         11   -1    0    0    0    0 -0.00000000000E+00 -0.00000000000E+00 -0.45593999997E+02  0.45594000000E+02  0.51100000000E-03 0. -1.
    9900012    2    1    2    0    0  0.11080122082E+01 -0.35629437643E+00 -0.19489344650E+00  0.90007906702E+02  0.90000170270E+02 0.  0.
         12    1    1    2    0    0 -0.11080122082E+01  0.35629437643E+00  0.19489344650E+00  0.11800932978E+01  0.00000000000E+00 0. -1.
         11    1    3    3    0    0  0.68141286540E+01  0.16285177924E+02 -0.32468508824E+02  0.36957319097E+02  0.51100000000E-03 0. -1.
        -11    1    3    3    0    0  0.78756071285E+01  0.29999933305E+01 -0.42302054212E+01  0.94297288292E+01  0.51100000000E-03 0.  1.
        -12    1    3    3    0    0 -0.13581723574E+02 -0.19641465631E+02  0.36503820799E+02  0.43620858775E+02  0.00000000000E+00 0.  1.
</event>
<event>
 7    1  0.1999542E-015  0.9000797E+02  0.7816164E-02  0.1186339E+00
        -11   -1    0    0    0    0  0.00000000000E+00  0.00000000000E+00  0.45593999997E+02  0.45594000000E+02  0.51100000000E-03 0. -1.
         11   -1    0    0    0    0 -0.00000000000E+00 -0.00000000000E+00 -0.45593999997E+02  0.45594000000E+02  0.51100000000E-03 0.  1.
    9900012    2    1    2    0    0  0.95551176495E+00 -0.29446398723E+00 -0.62670695314E+00  0.90007968908E+02  0.90000233297E+02 0.  0.
         12    1    1    2    0    0 -0.95551176495E+00  0.29446398723E+00  0.62670695314E+00  0.11800310919E+01  0.00000000000E+00 0. -1.
         11    1    3    3    0    0  0.29544120009E+02  0.13270626615E+02  0.22623944837E+02  0.39507055549E+02  0.51100000000E-03 0. -1.
        -11    1    3    3    0    0  0.40431216529E+01  0.56049605184E+01 -0.46601973936E+01  0.83354577032E+01  0.51100000000E-03 0.  1.
        -12    1    3    3    0    0 -0.32631729897E+02 -0.19170051121E+02 -0.18590454397E+02  0.42165455656E+02  0.00000000000E+00 0.  1.
</event>
<event>
 7    1  0.1999542E-015  0.9000773E+02  0.7816164E-02  0.1186339E+00
        -11   -1    0    0    0    0  0.00000000000E+00  0.00000000000E+00  0.45593999997E+02  0.45594000000E+02  0.51100000000E-03 0.  1.
         11   -1    0    0    0    0 -0.00000000000E+00 -0.00000000000E+00 -0.45593999997E+02  0.45594000000E+02  0.51100000000E-03 0. -1.
    9900012    2    1    2    0    0 -0.76425792824E+00 -0.25075729900E+00  0.86375825592E+00  0.90007725571E+02  0.89999986748E+02 0.  0.
         12    1    1    2    0    0  0.76425792824E+00  0.25075729900E+00 -0.86375825592E+00  0.11802744293E+01  0.00000000000E+00 0. -1.
         11    1    3    3    0    0 -0.41813385766E+01  0.84462668753E+01  0.15525036719E+00  0.94258749917E+01  0.51100000000E-03 0. -1.
        -11    1    3    3    0    0 -0.16957301600E+02 -0.38826847650E+02 -0.81537029072E+01  0.43145765115E+02  0.51100000000E-03 0.  1.
         12    1    3    3    0    0  0.20374382249E+02  0.30129823476E+02  0.88622107959E+01  0.37436085464E+02  0.00000000000E+00 0. -1.
</event>
<event>
 7    1  0.1999542E-015  0.9000769E+02  0.7816164E-02  0.1186339E+00
        -11   -1    0    0    0    0  0.00000000000E+00  0.00000000000E+00  0.45593999997E+02  0.45594000000E+02  0.51100000000E-03 0. -1.
         11   -1    0    0    0    0 -0.00000000000E+00 -0.00000000000E+00 -0.45593999997E+02  0.45594000000E+02  0.51100000000E-03 0.  1.
    9900012    2    1    2    0    0  0.66769417883E+00 -0.26080685283E+00 -0.93770339244E+00  0.90007693522E+02  0.89999954276E+02 0.  0.
         12    1    1    2    0    0 -0.66769417883E+00  0.26080685283E+00  0.93770339244E+00  0.11803064785E+01  0.00000000000E+00 0. -1.
         11    1    3    3    0    0 -0.57303674693E+01  0.54637102131E+01 -0.56170144341E+01  0.97077336202E+01  0.51100000000E-03 0. -1.
        -11    1    3    3    0    0  0.23165705733E+02 -0.17346431710E+02 -0.28970079497E+02  0.40948920883E+02  0.51100000000E-03 0.  1.
         12    1    3    3    0    0 -0.16767644085E+02  0.11621914644E+02  0.33649390539E+02  0.39351039018E+02  0.00000000000E+00 0. -1.
</event>
<event>
 7    1  0.1999542E-015  0.9000773E+02  0.7816164E-02  0.1186339E+00
        -11   -1    0    0    0    0  0.00000000000E+00  0.00000000000E+00  0.45593999997E+02  0.45594000000E+02  0.51100000000E-03 0.  1.
         11   -1    0    0    0    0 -0.00000000000E+00 -0.00000000000E+00 -0.45593999997E+02  0.45594000000E+02  0.51100000000E-03 0. -1.
    9900012    2    1    2    0    0 -0.24976176048E+00 -0.10350610200E+01 -0.50922374555E+00  0.90007728389E+02  0.89999989604E+02 0.  0.
         12    1    1    2    0    0  0.24976176048E+00  0.10350610200E+01  0.50922374555E+00  0.11802716107E+01  0.00000000000E+00 0. -1.
         11    1    3    3    0    0 -0.68846542886E+01  0.20408688175E+02 -0.28217809235E+02  0.35498701046E+02  0.51100000000E-03 0. -1.
        -11    1    3    3    0    0 -0.43276507492E+01  0.98347730820E+01 -0.82263474478E+00  0.10776272582E+02  0.51100000000E-03 0.  1.
        -12    1    3    3    0    0  0.10962543277E+02 -0.31278522277E+02  0.28531220234E+02  0.43732754761E+02  0.00000000000E+00 0.  1.
</event>
<event>
 7    1  0.1999542E-015  0.9000775E+02  0.7816164E-02  0.1186339E+00
        -11   -1    0    0    0    0  0.00000000000E+00  0.00000000000E+00  0.45593999997E+02  0.45594000000E+02  0.51100000000E-03 0.  1.
         11   -1    0    0    0    0 -0.00000000000E+00 -0.00000000000E+00 -0.45593999997E+02  0.45594000000E+02  0.51100000000E-03 0. -1.
    9900012    2    1    2    0    0 -0.76886795362E+00  0.46392587277E+00 -0.76590864350E+00  0.90007745284E+02  0.90000006721E+02 0.  0.
         12    1    1    2    0    0  0.76886795362E+00 -0.46392587277E+00  0.76590864350E+00  0.11802547165E+01  0.00000000000E+00 0. -1.
         11    1    3    3    0    0  0.61767426426E+01  0.80891995207E+01 -0.15319376691E+02  0.18392134216E+02  0.51100000000E-03 0. -1.
        -11    1    3    3    0    0  0.18084016825E+02 -0.29581721903E+02 -0.13914728782E+01  0.34699367895E+02  0.51100000000E-03 0.  1.
         12    1    3    3    0    0 -0.25029627421E+02  0.21956448255E+02  0.15944940926E+02  0.36916243172E+02  0.00000000000E+00 0. -1.
</event>
<event>
 7    1  0.1999542E-015  0.9000787E+02  0.7816164E-02  0.1186339E+00
        -11   -1    0    0    0    0  0.00000000000E+00  0.00000000000E+00  0.45593999997E+02  0.45594000000E+02  0.51100000000E-03 0. -1.
         11   -1    0    0    0    0 -0.00000000000E+00 -0.00000000000E+00 -0.45593999997E+02  0.45594000000E+02  0.51100000000E-03 0.  1.
    9900012    2    1    2    0    0 -0.14201641968E+00  0.11707968952E+01  0.42083535391E-01  0.90007870746E+02  0.90000133839E+02 0.  0.
         12    1    1    2    0    0  0.14201641968E+00 -0.11707968952E+01 -0.42083535391E-01  0.11801292545E+01  0.00000000000E+00 0. -1.
         11    1    3    3    0    0 -0.22105649086E+02  0.19757007447E+02 -0.24037903558E+02  0.38168309794E+02  0.51100000000E-03 0. -1.
        -11    1    3    3    0    0 -0.56800102570E+01  0.56903385684E+01  0.90284096936E+01  0.12089443800E+02  0.51100000000E-03 0.  1.
        -12    1    3    3    0    0  0.27643642924E+02 -0.24276549120E+02  0.15051577400E+02  0.39750117151E+02  0.00000000000E+00 0.  1.
</event>
<event>
 7    1  0.1999542E-015  0.9000792E+02  0.7816164E-02  0.1186339E+00
        -11   -1    0    0    0    0  0.00000000000E+00  0.00000000000E+00  0.45593999997E+02  0.45594000000E+02  0.51100000000E-03 0.  1.
         11   -1    0    0    0    0 -0.00000000000E+00 -0.00000000000E+00 -0.45593999997E+02  0.45594000000E+02  0.51100000000E-03 0. -1.
    9900012    2    1    2    0    0  0.10193345273E+00  0.15609460097E+00  0.11652629679E+01  0.90007917911E+02  0.90000181627E+02 0.  0.
         12    1    1    2    0    0 -0.10193345273E+00 -0.15609460097E+00 -0.11652629679E+01  0.11800820893E+01  0.00000000000E+00 0. -1.
         11    1    3    3    0    0 -0.26093742900E+01  0.62552149300E+01 -0.70812752229E+01  0.98020919731E+01  0.51100000000E-03 0. -1.
        -11    1    3    3    0    0 -0.25125193653E+02  0.83998952807E+01 -0.23609347255E+02  0.35485699583E+02  0.51100000000E-03 0.  1.
         12    1    3    3    0    0  0.27836501395E+02 -0.14499015610E+02  0.31855885446E+02  0.44720126354E+02  0.00000000000E+00 0. -1.
</event>
<event>
 7    1  0.1999542E-015  0.9000792E+02  0.7816164E-02  0.1186339E+00
        -11   -1    0    0    0    0  0.00000000000E+00  0.00000000000E+00  0.45593999997E+02  0.45594000000E+02  0.51100000000E-03 0.  1.
         11   -1    0    0    0    0 -0.00000000000E+00 -0.00000000000E+00 -0.45593999997E+02  0.45594000000E+02  0.51100000000E-03 0. -1.
    9900012    2    1    2    0    0  0.12910452843E-01  0.10856840425E+01  0.46229193795E+00  0.90007919344E+02  0.90000183079E+02 0.  0.
         12    1    1    2    0    0 -0.12910452843E-01 -0.10856840425E+01 -0.46229193795E+00  0.11800806565E+01  0.00000000000E+00 0. -1.
         11    1    3    3    0    0  0.28631948379E+01  0.10704483917E+02  0.11743020497E+01  0.11142838336E+02  0.51100000000E-03 0. -1.
        -11    1    3    3    0    0 -0.22836145706E+02 -0.10159493168E+02 -0.32690739307E+02  0.41150811521E+02  0.51100000000E-03 0.  1.
         12    1    3    3    0    0  0.19985861321E+02  0.54069329396E+00  0.31978729196E+02  0.37714269487E+02  0.00000000000E+00 0. -1.
</event>
<event>
 7    1  0.1999542E-015  0.9000780E+02  0.7816164E-02  0.1186339E+00
        -11   -1    0    0    0    0  0.00000000000E+00  0.00000000000E+00  0.45593999997E+02  0.45594000000E+02  0.51100000000E-03 0.  1.
         11   -1    0    0    0    0 -0.00000000000E+00 -0.00000000000E+00 -0.45593999997E+02  0.45594000000E+02  0.51100000000E-03 0. -1.
    9900012    2    1    2    0    0  0.45479022083E-01 -0.28487620094E+00 -0.11444009470E+01  0.90007798187E+02  0.90000060323E+02 0.  0.
         12    1    1    2    0    0 -0.45479022083E-01  0.28487620094E+00  0.11444009470E+01  0.11802018127E+01  0.00000000000E+00 0. -1.
         11    1    3    3    0    0  0.65400091438E+01 -0.97954145057E+00  0.70874748991E+01  0.96934783108E+01  0.51100000000E-03 0. -1.
        -11    1    3    3    0    0  0.33456376817E+02  0.46838368257E+01  0.11357488546E+02  0.35640707393E+02  0.51100000000E-03 0.  1.
         12    1    3    3    0    0 -0.39950906939E+02 -0.39891715760E+01 -0.19589364392E+02  0.44673612484E+02  0.00000000000E+00 0. -1.
</event>
<event>
 7    1  0.1999542E-015  0.9000770E+02  0.7816164E-02  0.1186339E+00
        -11   -1    0    0    0    0  0.00000000000E+00  0.00000000000E+00  0.45593999997E+02  0.45594000000E+02  0.51100000000E-03 0. -1.
         11   -1    0    0    0    0 -0.00000000000E+00 -0.00000000000E+00 -0.45593999997E+02  0.45594000000E+02  0.51100000000E-03 0.  1.
    9900012    2    1    2    0    0  0.46320656176E+00 -0.77473294610E+00 -0.76048016945E+00  0.90007702773E+02  0.89999963649E+02 0.  0.
         12    1    1    2    0    0 -0.46320656176E+00  0.77473294610E+00  0.76048016945E+00  0.11802972273E+01  0.00000000000E+00 0. -1.
         11    1    3    3    0    0 -0.36861000645E+01  0.64091749891E+01 -0.58533605572E+01  0.94300947928E+01  0.51100000000E-03 0. -1.
        -11    1    3    3    0    0 -0.16130314446E+02  0.15555980664E+02 -0.27822347701E+02  0.35724761866E+02  0.51100000000E-03 0.  1.
         12    1    3    3    0    0  0.20279621072E+02 -0.22739888600E+02  0.32915228089E+02  0.44852846114E+02  0.00000000000E+00 0. -1.
</event>
<event>
 7    1  0.1999542E-015  0.9000777E+02  0.7816164E-02  0.1186339E+00
        -11   -1    0    0    0    0  0.00000000000E+00  0.00000000000E+00  0.45593999997E+02  0.45594000000E+02  0.51100000000E-03 0. -1.
         11   -1    0    0    0    0 -0.00000000000E+00 -0.00000000000E+00 -0.45593999997E+02  0.45594000000E+02  0.51100000000E-03 0.  1.
    9900012    2    1    2    0    0 -0.10147098290E+01  0.45606067869E+00 -0.39408878409E+00  0.90007774026E+02  0.90000035843E+02 0.  0.
         12    1    1    2    0    0  0.10147098290E+01 -0.45606067869E+00  0.39408878409E+00  0.11802259739E+01  0.00000000000E+00 0. -1.
         11    1    3    3    0    0 -0.28313715714E+02  0.16272573157E+02  0.25030913066E+02  0.41146199628E+02  0.51100000000E-03 0. -1.
        -11    1    3    3    0    0  0.16469828974E+02  0.56925531117E+01 -0.82311604117E+01  0.19272063443E+02  0.51100000000E-03 0.  1.
        -12    1    3    3    0    0  0.10829176911E+02 -0.21509065590E+02 -0.17193841438E+02  0.29589510955E+02  0.00000000000E+00 0.  1.
</event>
<event>
 7    1  0.1999542E-015  0.9000791E+02  0.7816164E-02  0.1186339E+00
        -11   -1    0    0    0    0  0.00000000000E+00  0.00000000000E+00  0.45593999997E+02  0.45594000000E+02  0.51100000000E-03 0. -1.
         11   -1    0    0    0    0 -0.00000000000E+00 -0.00000000000E+00 -0.45593999997E+02  0.45594000000E+02  0.51100000000E-03 0.  1.
    9900012    2    1    2    0    0 -0.64293568594E+00  0.23791353558E+00 -0.96053735249E+00  0.90007914769E+02  0.90000178444E+02 0.  0.
         12    1    1    2    0    0  0.64293568594E+00 -0.23791353558E+00  0.96053735249E+00  0.11800852309E+01  0.00000000000E+00 0. -1.
         11    1    3    3    0    0 -0.30480070264E+02  0.64959750495E+01  0.21238065629E+02  0.37713231194E+02  0.51100000000E-03 0. -1.
        -11    1    3    3    0    0 -0.73304668873E+01 -0.28719276043E+01  0.15961052643E+01  0.80331354542E+01  0.51100000000E-03 0.  1.
        -12    1    3    3    0    0  0.37167601465E+02 -0.33861339096E+01 -0.23794708246E+02  0.44261548121E+02  0.00000000000E+00 0.  1.
</event>
<event>
 7    1  0.1999542E-015  0.9000768E+02  0.7816164E-02  0.1186339E+00
        -11   -1    0    0    0    0  0.00000000000E+00  0.00000000000E+00  0.45593999997E+02  0.45594000000E+02  0.51100000000E-03 0.  1.
         11   -1    0    0    0    0 -0.00000000000E+00 -0.00000000000E+00 -0.45593999997E+02  0.45594000000E+02  0.51100000000E-03 0. -1.
    9900012    2    1    2    0    0 -0.44488221086E+00 -0.45731802751E+00  0.99301925544E+00  0.90007683432E+02  0.89999944053E+02 0.  0.
         12    1    1    2    0    0  0.44488221086E+00  0.45731802751E+00 -0.99301925544E+00  0.11803165683E+01  0.00000000000E+00 0. -1.
         11    1    3    3    0    0 -0.41865321286E+01 -0.10580362702E+02  0.14741336815E+01  0.11473630487E+02  0.51100000000E-03 0. -1.
        -11    1    3    3    0    0 -0.44753044964E+01 -0.10737461599E+02  0.34821706482E+02  0.36713385495E+02  0.51100000000E-03 0.  1.
         12    1    3    3    0    0  0.82169544142E+01  0.20860506274E+02 -0.35302820908E+02  0.41820667450E+02  0.00000000000E+00 0. -1.
</event>
<event>
 7    1  0.1999542E-015  0.9000779E+02  0.7816164E-02  0.1186339E+00
        -11   -1    0    0    0    0  0.00000000000E+00  0.00000000000E+00  0.45593999997E+02  0.45594000000E+02  0.51100000000E-03 0.  1.
         11   -1    0    0    0    0 -0.00000000000E+00 -0.00000000000E+00 -0.45593999997E+02  0.45594000000E+02  0.51100000000E-03 0. -1.
    9900012    2    1    2    0    0  0.51004350422E+00  0.10234076767E+01  0.29221872621E+00  0.90007788395E+02  0.90000050402E+02 0.  0.
         12    1    1    2    0    0 -0.51004350422E+00 -0.10234076767E+01 -0.29221872621E+00  0.11802116051E+01  0.00000000000E+00 0. -1.
         11    1    3    3    0    0  0.25806779810E+02 -0.25335522927E+02 -0.11209441502E+02  0.37861988659E+02  0.51100000000E-03 0. -1.
        -11    1    3    3    0    0  0.41949719846E+01  0.20120301743E+01 -0.79718442622E+01  0.92301872448E+01  0.51100000000E-03 0.  1.
        -12    1    3    3    0    0 -0.29491708291E+02  0.24346900429E+02  0.19473504490E+02  0.42915612491E+02  0.00000000000E+00 0.  1.
</event>
<event>
 7    1  0.1999542E-015  0.9000776E+02  0.7816164E-02  0.1186339E+00
        -11   -1    0    0    0    0  0.00000000000E+00  0.00000000000E+00  0.45593999997E+02  0.45594000000E+02  0.51100000000E-03 0.  1.
         11   -1    0    0    0    0 -0.00000000000E+00 -0.00000000000E+00 -0.45593999997E+02  0.45594000000E+02  0.51100000000E-03 0. -1.
    9900012    2    1    2    0    0 -0.19547837392E-01 -0.11796356415E+01  0.32278679487E-01  0.90007760923E+02  0.90000022568E+02 0.  0.
         12    1    1    2    0    0  0.19547837392E-01  0.11796356415E+01 -0.32278679487E-01  0.11802390765E+01  0.00000000000E+00 0. -1.
         11    1    3    3    0    0  0.11334352962E+02  0.18557614105E+02 -0.32373535662E+02  0.38998697540E+02  0.51100000000E-03 0. -1.
        -11    1    3    3    0    0 -0.37819393393E+01  0.58008426044E+01 -0.22663314313E+01  0.72862266301E+01  0.51100000000E-03 0.  1.
        -12    1    3    3    0    0 -0.75719614600E+01 -0.25538092351E+02  0.34672145773E+02  0.43722836753E+02  0.00000000000E+00 0.  1.
</event>
<event>
 7    1  0.1999542E-015  0.9000785E+02  0.7816164E-02  0.1186339E+00
        -11   -1    0    0    0    0  0.00000000000E+00  0.00000000000E+00  0.45593999997E+02  0.45594000000E+02  0.51100000000E-03 0. -1.
         11   -1    0    0    0    0 -0.00000000000E+00 -0.00000000000E+00 -0.45593999997E+02  0.45594000000E+02  0.51100000000E-03 0.  1.
    9900012    2    1    2    0    0  0.95379396261E+00 -0.56051177860E+00 -0.41092155579E+00  0.90007850475E+02  0.90000113301E+02 0.  0.
         12    1    1    2    0    0 -0.95379396261E+00  0.56051177860E+00  0.41092155579E+00  0.11801495253E+01  0.00000000000E+00 0. -1.
         11    1    3    3    0    0 -0.40151551822E+01  0.61475869755E+01 -0.58996689855E+01  0.94191502355E+01  0.51100000000E-03 0. -1.
        -11    1    3    3    0    0 -0.19352169653E+02 -0.10254613891E+02 -0.30169245970E+02  0.37280651536E+02  0.51100000000E-03 0.  1.
         12    1    3    3    0    0  0.24321118798E+02  0.35465151372E+01  0.35657993399E+02  0.43308048703E+02  0.00000000000E+00 0. -1.
</event>
<event>
 7    1  0.1999542E-015  0.9000775E+02  0.7816164E-02  0.1186339E+00
        -11   -1    0    0    0    0  0.00000000000E+00  0.00000000000E+00  0.45593999997E+02  0.45594000000E+02  0.51100000000E-03 0.  1.
         11   -1    0    0    0    0 -0.00000000000E+00 -0.00000000000E+00 -0.45593999997E+02  0.45594000000E+02  0.51100000000E-03 0. -1.
    9900012    2    1    2    0    0 -0.24831355651E+00  0.11086080980E+01  0.31988246094E+00  0.90007747346E+02  0.90000008811E+02 0.  0.
         12    1    1    2    0    0  0.24831355651E+00 -0.11086080980E+01 -0.31988246094E+00  0.11802526535E+01  0.00000000000E+00 0. -1.
         11    1    3    3    0    0 -0.17823508069E+02 -0.35661516626E+02 -0.14052853097E+02  0.42271785961E+02  0.51100000000E-03 0. -1.
        -11    1    3    3    0    0  0.53179053117E+01  0.59283584816E+01 -0.49067821166E+01  0.93542536951E+01  0.51100000000E-03 0.  1.
        -12    1    3    3    0    0  0.12257289201E+02  0.30841766242E+02  0.19279517674E+02  0.38381707690E+02  0.00000000000E+00 0.  1.
</event>
<event>
 7    1  0.1999542E-015  0.9000818E+02  0.7816164E-02  0.1186338E+00
        -11   -1    0    0    0    0  0.00000000000E+00  0.00000000000E+00  0.45593999997E+02  0.45594000000E+02  0.51100000000E-03 0.  1.
         11   -1    0    0    0    0 -0.00000000000E+00 -0.00000000000E+00 -0.45593999997E+02  0.45594000000E+02  0.51100000000E-03 0. -1.
    9900012    2    1    2    0    0  0.21700649154E+00  0.11227027953E+01  0.29054299780E+00  0.90008182803E+02  0.90000450015E+02 0.  0.
         12    1    1    2    0    0 -0.21700649154E+00 -0.11227027953E+01 -0.29054299780E+00  0.11798171966E+01  0.00000000000E+00 0. -1.
         11    1    3    3    0    0 -0.10478620782E+01  0.38323165231E+02 -0.96769261999E+01  0.39539928037E+02  0.51100000000E-03 0. -1.
        -11    1    3    3    0    0 -0.80289023542E+01  0.88360289687E+00 -0.37903976175E+01  0.89225075765E+01  0.51100000000E-03 0.  1.
        -12    1    3    3    0    0  0.92937709240E+01 -0.38084065333E+02  0.13757866815E+02  0.41545747190E+02  0.00000000000E+00 0.  1.
</event>
<event>
 7    1  0.1999542E-015  0.9000771E+02  0.7816164E-02  0.1186339E+00
        -11   -1    0    0    0    0  0.00000000000E+00  0.00000000000E+00  0.45593999997E+02  0.45594000000E+02  0.51100000000E-03 0.  1.
         11   -1    0    0    0    0 -0.00000000000E+00 -0.00000000000E+00 -0.45593999997E+02  0.45594000000E+02  0.51100000000E-03 0. -1.
    9900012    2    1    2    0    0 -0.16645250294E+00 -0.98406634506E+00  0.63008148887E+00  0.90007705253E+02  0.89999966162E+02 0.  0.
         12    1    1    2    0    0  0.16645250294E+00  0.98406634506E+00 -0.63008148887E+00  0.11802947470E+01  0.00000000000E+00 0. -1.
         11    1    3    3    0    0 -0.21420211374E+01  0.63282303346E+01 -0.10816260868E+02  0.12713231420E+02  0.51100000000E-03 0. -1.
        -11    1    3    3    0    0 -0.16425669194E+02  0.22852841256E+02  0.26713177554E+02  0.38802690850E+02  0.51100000000E-03 0.  1.
         12    1    3    3    0    0  0.18401237828E+02 -0.30165137935E+02 -0.15266835197E+02  0.38491782983E+02  0.00000000000E+00 0. -1.
</event>
<event>
 7    1  0.1999542E-015  0.9000776E+02  0.7816164E-02  0.1186339E+00
        -11   -1    0    0    0    0  0.00000000000E+00  0.00000000000E+00  0.45593999997E+02  0.45594000000E+02  0.51100000000E-03 0.  1.
         11   -1    0    0    0    0 -0.00000000000E+00 -0.00000000000E+00 -0.45593999997E+02  0.45594000000E+02  0.51100000000E-03 0. -1.
    9900012    2    1    2    0    0  0.56059615780E+00  0.79615022786E+00 -0.66696105530E+00  0.90007762614E+02  0.90000024281E+02 0.  0.
         12    1    1    2    0    0 -0.56059615780E+00 -0.79615022786E+00  0.66696105530E+00  0.11802373858E+01  0.00000000000E+00 0. -1.
         11    1    3    3    0    0  0.52905955029E+01  0.26403672141E+01  0.81234505569E+01  0.10047506607E+02  0.51100000000E-03 0. -1.
        -11    1    3    3    0    0  0.18191899403E+02 -0.30843288858E+01  0.29804984032E+02  0.35054177525E+02  0.51100000000E-03 0.  1.
         12    1    3    3    0    0 -0.22921898748E+02  0.12401118995E+01 -0.38595395644E+02  0.44906078482E+02  0.00000000000E+00 0. -1.
</event>
<event>
 7    1  0.1999542E-015  0.9000774E+02  0.7816164E-02  0.1186339E+00
        -11   -1    0    0    0    0  0.00000000000E+00  0.00000000000E+00  0.45593999997E+02  0.45594000000E+02  0.51100000000E-03 0.  1.
         11   -1    0    0    0    0 -0.00000000000E+00 -0.00000000000E+00 -0.45593999997E+02  0.45594000000E+02  0.51100000000E-03 0. -1.
    9900012    2    1    2    0    0 -0.93195365643E+00 -0.22248429207E+00  0.68917809662E+00  0.90007744381E+02  0.90000005807E+02 0.  0.
         12    1    1    2    0    0  0.93195365643E+00  0.22248429207E+00 -0.68917809662E+00  0.11802556193E+01  0.00000000000E+00 0. -1.
         11    1    3    3    0    0  0.12968309352E+02 -0.98699173633E+01  0.24703936525E+02  0.29595215767E+02  0.51100000000E-03 0. -1.
        -11    1    3    3    0    0  0.12575518924E+02  0.86701973415E+01  0.92725207438E+01  0.17868845496E+02  0.51100000000E-03 0.  1.
         12    1    3    3    0    0 -0.26475781932E+02  0.97723572976E+00 -0.33287279172E+02  0.42543683118E+02  0.00000000000E+00 0. -1.
</event>
<event>
 7    1  0.1999542E-015  0.9000775E+02  0.7816164E-02  0.1186339E+00
        -11   -1    0    0    0    0  0.00000000000E+00  0.00000000000E+00  0.45593999997E+02  0.45594000000E+02  0.51100000000E-03 0.  1.
         11   -1    0    0    0    0 -0.00000000000E+00 -0.00000000000E+00 -0.45593999997E+02  0.45594000000E+02  0.51100000000E-03 0. -1.
    9900012    2    1    2    0    0  0.30867304232E+00  0.10926384046E+01 -0.32224618545E+00  0.90007754121E+02  0.90000015676E+02 0.  0.
         12    1    1    2    0    0 -0.30867304232E+00 -0.10926384046E+01  0.32224618545E+00  0.11802458788E+01  0.00000000000E+00 0. -1.
         11    1    3    3    0    0 -0.83245679418E+01  0.55934244550E+01  0.28929254116E+01  0.10438095911E+02  0.51100000000E-03 0. -1.
        -11    1    3    3    0    0 -0.27965909365E+02 -0.83194502194E+01  0.20618940598E+02  0.35727385157E+02  0.51100000000E-03 0.  1.
         12    1    3    3    0    0  0.36599150349E+02  0.38186641690E+01 -0.23834112195E+02  0.43842273053E+02  0.00000000000E+00 0. -1.
</event>
<event>
 7    1  0.1999542E-015  0.9000779E+02  0.7816164E-02  0.1186339E+00
        -11   -1    0    0    0    0  0.00000000000E+00  0.00000000000E+00  0.45593999997E+02  0.45594000000E+02  0.51100000000E-03 0.  1.
         11   -1    0    0    0    0 -0.00000000000E+00 -0.00000000000E+00 -0.45593999997E+02  0.45594000000E+02  0.51100000000E-03 0. -1.
    9900012    2    1    2    0    0  0.39240057252E+00  0.10920277849E+01  0.21541121763E+00  0.90007786085E+02  0.90000048061E+02 0.  0.
         12    1    1    2    0    0 -0.39240057252E+00 -0.10920277849E+01 -0.21541121763E+00  0.11802139150E+01  0.00000000000E+00 0. -1.
         11    1    3    3    0    0 -0.94454999925E+00 -0.30559732635E+02 -0.17802345994E+02  0.35379555629E+02  0.51100000000E-03 0. -1.
        -11    1    3    3    0    0 -0.67955902224E+00 -0.70035928858E+01 -0.58522358234E+01  0.91520914642E+01  0.51100000000E-03 0.  1.
        -12    1    3    3    0    0  0.20165095940E+01  0.38655353305E+02  0.23869993035E+02  0.45476138991E+02  0.00000000000E+00 0.  1.
</event>
<event>
 7    1  0.1999542E-015  0.9000771E+02  0.7816164E-02  0.1186339E+00
        -11   -1    0    0    0    0  0.00000000000E+00  0.00000000000E+00  0.45593999997E+02  0.45594000000E+02  0.51100000000E-03 0. -1.
         11   -1    0    0    0    0 -0.00000000000E+00 -0.00000000000E+00 -0.45593999997E+02  0.45594000000E+02  0.51100000000E-03 0.  1.
    9900012    2    1    2    0    0 -0.19636967757E+00  0.10554747411E+01  0.49040922028E+00  0.90007708010E+02  0.89999968955E+02 0.  0.
         12    1    1    2    0    0  0.19636967757E+00 -0.10554747411E+01 -0.49040922028E+00  0.11802919904E+01  0.00000000000E+00 0. -1.
         11    1    3    3    0    0 -0.14174941906E+02  0.23492498308E+02  0.77239610541E+01  0.28504140566E+02  0.51100000000E-03 0. -1.
        -11    1    3    3    0    0  0.91633032599E+01  0.12505864468E+02  0.13526278918E+02  0.20574814564E+02  0.51100000000E-03 0.  1.
        -12    1    3    3    0    0  0.48152689686E+01 -0.34942888035E+02 -0.20759830752E+02  0.40928752880E+02  0.00000000000E+00 0.  1.
</event>
<event>
 7    1  0.1999542E-015  0.9000765E+02  0.7816164E-02  0.1186339E+00
        -11   -1    0    0    0    0  0.00000000000E+00  0.00000000000E+00  0.45593999997E+02  0.45594000000E+02  0.51100000000E-03 0.  1.
         11   -1    0    0    0    0 -0.00000000000E+00 -0.00000000000E+00 -0.45593999997E+02  0.45594000000E+02  0.51100000000E-03 0. -1.
    9900012    2    1    2    0    0 -0.31656512678E+00 -0.11026169244E+01  0.27794208945E+00  0.90007648626E+02  0.89999908788E+02 0.  0.
         12    1    1    2    0    0  0.31656512678E+00  0.11026169244E+01 -0.27794208945E+00  0.11803513742E+01  0.00000000000E+00 0. -1.
         11    1    3    3    0    0  0.48171269068E+01 -0.31222381454E+01  0.73268276636E+01  0.93078185708E+01  0.51100000000E-03 0. -1.
        -11    1    3    3    0    0  0.10684264537E+02  0.12370337097E+02  0.32770693259E+02  0.36620992416E+02  0.51100000000E-03 0.  1.
         12    1    3    3    0    0 -0.15817956570E+02 -0.10350715876E+02 -0.39819578833E+02  0.44078837639E+02  0.00000000000E+00 0. -1.
</event>
<event>
 7    1  0.1999542E-015  0.9000771E+02  0.7816164E-02  0.1186339E+00
        -11   -1    0    0    0    0  0.00000000000E+00  0.00000000000E+00  0.45593999997E+02  0.45594000000E+02  0.51100000000E-03 0.  1.
         11   -1    0    0    0    0 -0.00000000000E+00 -0.00000000000E+00 -0.45593999997E+02  0.45594000000E+02  0.51100000000E-03 0. -1.
    9900012    2    1    2    0    0 -0.58124106627E+00  0.29370894738E+00  0.98436334387E+00  0.90007713037E+02  0.89999974049E+02 0.  0.
         12    1    1    2    0    0  0.58124106627E+00 -0.29370894738E+00 -0.98436334387E+00  0.11802869633E+01  0.00000000000E+00 0. -1.
         11    1    3    3    0    0 -0.38066428984E+02 -0.15347913887E+02 -0.73899250660E+01  0.41703986249E+02  0.51100000000E-03 0. -1.
        -11    1    3    3    0    0  0.33762950855E+01  0.60379127101E+01 -0.68510396202E+01  0.97361441309E+01  0.51100000000E-03 0.  1.
        -12    1    3    3    0    0  0.34108892832E+02  0.96037101247E+01  0.15225328030E+02  0.38567582657E+02  0.00000000000E+00 0.  1.
</event>
<event>
 7    1  0.1999542E-015  0.9000791E+02  0.7816164E-02  0.1186339E+00
        -11   -1    0    0    0    0  0.00000000000E+00  0.00000000000E+00  0.45593999997E+02  0.45594000000E+02  0.51100000000E-03 0.  1.
         11   -1    0    0    0    0 -0.00000000000E+00 -0.00000000000E+00 -0.45593999997E+02  0.45594000000E+02  0.51100000000E-03 0. -1.
    9900012    2    1    2    0    0  0.38939259308E-01  0.10985001119E+01  0.42941182477E+00  0.90007909632E+02  0.90000173239E+02 0.  0.
         12    1    1    2    0    0 -0.38939259308E-01 -0.10985001119E+01 -0.42941182477E+00  0.11800903682E+01  0.00000000000E+00 0. -1.
         11    1    3    3    0    0  0.36141517789E+01 -0.23952543224E+01  0.77079096276E+01  0.88437100494E+01  0.51100000000E-03 0. -1.
        -11    1    3    3    0    0  0.24623572056E+02 -0.24989925524E+02  0.11476170920E+02  0.36912317426E+02  0.51100000000E-03 0.  1.
         12    1    3    3    0    0 -0.28198784575E+02  0.28483679959E+02 -0.18754668723E+02  0.44251882157E+02  0.00000000000E+00 0. -1.
</event>
<event>
 7    1  0.1999542E-015  0.9000772E+02  0.7816164E-02  0.1186339E+00
        -11   -1    0    0    0    0  0.00000000000E+00  0.00000000000E+00  0.45593999997E+02  0.45594000000E+02  0.51100000000E-03 0. -1.
         11   -1    0    0    0    0 -0.00000000000E+00 -0.00000000000E+00 -0.45593999997E+02  0.45594000000E+02  0.51100000000E-03 0.  1.
    9900012    2    1    2    0    0 -0.78050451902E+00 -0.72199989085E-01 -0.88242249402E+00  0.90007716305E+02  0.89999977360E+02 0.  0.
         12    1    1    2    0    0  0.78050451902E+00  0.72199989085E-01  0.88242249402E+00  0.11802836950E+01  0.00000000000E+00 0. -1.
         11    1    3    3    0    0  0.21480573042E+01  0.12825272743E+01  0.37565910980E+02  0.37649126078E+02  0.51100000000E-03 0. -1.
        -11    1    3    3    0    0 -0.97019872802E+01  0.57102528084E+01  0.13830671699E+01  0.11342328658E+02  0.51100000000E-03 0.  1.
        -12    1    3    3    0    0  0.67734254570E+01 -0.70649800718E+01 -0.39831400644E+02  0.41016261569E+02  0.00000000000E+00 0.  1.
</event>
<event>
 7    1  0.1999542E-015  0.9000776E+02  0.7816164E-02  0.1186339E+00
        -11   -1    0    0    0    0  0.00000000000E+00  0.00000000000E+00  0.45593999997E+02  0.45594000000E+02  0.51100000000E-03 0. -1.
         11   -1    0    0    0    0 -0.00000000000E+00 -0.00000000000E+00 -0.45593999997E+02  0.45594000000E+02  0.51100000000E-03 0.  1.
    9900012    2    1    2    0    0  0.36988925861E+00 -0.50437474429E+00 -0.10008779111E+01  0.90007759118E+02  0.90000020738E+02 0.  0.
         12    1    1    2    0    0 -0.36988925861E+00  0.50437474429E+00  0.10008779111E+01  0.11802408819E+01  0.00000000000E+00 0. -1.
         11    1    3    3    0    0  0.84471635527E+01 -0.27241033642E+02  0.27110711959E+02  0.39349957931E+02  0.51100000000E-03 0. -1.
        -11    1    3    3    0    0  0.75502846464E+01  0.15637034310E+01  0.24508645421E+01  0.80906553460E+01  0.51100000000E-03 0.  1.
        -12    1    3    3    0    0 -0.15627558941E+02  0.25172955467E+02 -0.30562454412E+02  0.42567145841E+02  0.00000000000E+00 0.  1.
</event>
<event>
 7    1  0.1999542E-015  0.9000771E+02  0.7816164E-02  0.1186339E+00
        -11   -1    0    0    0    0  0.00000000000E+00  0.00000000000E+00  0.45593999997E+02  0.45594000000E+02  0.51100000000E-03 0. -1.
         11   -1    0    0    0    0 -0.00000000000E+00 -0.00000000000E+00 -0.45593999997E+02  0.45594000000E+02  0.51100000000E-03 0.  1.
    9900012    2    1    2    0    0 -0.34974544254E+00 -0.96704938782E+00  0.57929152011E+00  0.90007709757E+02  0.89999970726E+02 0.  0.
         12    1    1    2    0    0  0.34974544254E+00  0.96704938782E+00 -0.57929152011E+00  0.11802902433E+01  0.00000000000E+00 0. -1.
         11    1    3    3    0    0  0.40050891886E+01  0.28065654519E+01 -0.69655245211E+01  0.85109389117E+01  0.51100000000E-03 0. -1.
        -11    1    3    3    0    0 -0.38865776977E+02  0.98245330487E+00 -0.13071054885E+02  0.41016658940E+02  0.51100000000E-03 0.  1.
         12    1    3    3    0    0  0.34510942346E+02 -0.47560681446E+01  0.20615870926E+02  0.40480111905E+02  0.00000000000E+00 0. -1.
</event>
<event>
 7    1  0.1999542E-015  0.9000777E+02  0.7816164E-02  0.1186339E+00
        -11   -1    0    0    0    0  0.00000000000E+00  0.00000000000E+00  0.45593999997E+02  0.45594000000E+02  0.51100000000E-03 0. -1.
         11   -1    0    0    0    0 -0.00000000000E+00 -0.00000000000E+00 -0.45593999997E+02  0.45594000000E+02  0.51100000000E-03 0.  1.
    9900012    2    1    2    0    0  0.61184448680E+00 -0.75585020999E+00 -0.66879597381E+00  0.90007766434E+02  0.90000028151E+02 0.  0.
         12    1    1    2    0    0 -0.61184448680E+00  0.75585020999E+00  0.66879597381E+00  0.11802335661E+01  0.00000000000E+00 0. -1.
         11    1    3    3    0    0  0.27624433198E+02  0.13318716174E+02  0.26943814446E+02  0.40822379245E+02  0.51100000000E-03 0. -1.
        -11    1    3    3    0    0 -0.81481308404E+01  0.33026669934E+01  0.29619074968E+01  0.92775288597E+01  0.51100000000E-03 0.  1.
        -12    1    3    3    0    0 -0.18864457871E+02 -0.17377233378E+02 -0.30574517916E+02  0.39907858329E+02  0.00000000000E+00 0.  1.
</event>
<event>
 7    1  0.1999542E-015  0.9000795E+02  0.7816164E-02  0.1186339E+00
        -11   -1    0    0    0    0  0.00000000000E+00  0.00000000000E+00  0.45593999997E+02  0.45594000000E+02  0.51100000000E-03 0.  1.
         11   -1    0    0    0    0 -0.00000000000E+00 -0.00000000000E+00 -0.45593999997E+02  0.45594000000E+02  0.51100000000E-03 0. -1.
    9900012    2    1    2    0    0  0.82984065247E+00 -0.38831649608E+00  0.74369469686E+00  0.90007954657E+02  0.90000218858E+02 0.  0.
         12    1    1    2    0    0 -0.82984065247E+00  0.38831649608E+00 -0.74369469686E+00  0.11800453431E+01  0.00000000000E+00 0. -1.
         11    1    3    3    0    0 -0.42388201693E+01  0.61958699133E+00 -0.13982257237E+02  0.14623782075E+02  0.51100000000E-03 0. -1.
        -11    1    3    3    0    0 -0.26907132541E+02  0.18152484423E+02  0.19402739572E+02  0.37814980833E+02  0.51100000000E-03 0.  1.
         12    1    3    3    0    0  0.31975793363E+02 -0.19160387910E+02 -0.46767876377E+01  0.37569191749E+02  0.00000000000E+00 0. -1.
</event>
<event>
 7    1  0.1999542E-015  0.9000765E+02  0.7816164E-02  0.1186339E+00
        -11   -1    0    0    0    0  0.00000000000E+00  0.00000000000E+00  0.45593999997E+02  0.45594000000E+02  0.51100000000E-03 0. -1.
         11   -1    0    0    0    0 -0.00000000000E+00 -0.00000000000E+00 -0.45593999997E+02  0.45594000000E+02  0.51100000000E-03 0.  1.
    9900012    2    1    2    0    0 -0.93017082824E+00 -0.70728884726E+00  0.16659873755E+00  0.90007648178E+02  0.89999908334E+02 0.  0.
         12    1    1    2    0    0  0.93017082824E+00  0.70728884726E+00 -0.16659873755E+00  0.11803518215E+01  0.00000000000E+00 0. -1.
         11    1    3    3    0    0  0.54257972603E+01 -0.54914587702E+01  0.33149738385E+01  0.84014550612E+01  0.51100000000E-03 0. -1.
        -11    1    3    3    0    0  0.32735209735E+02  0.14236899845E+01  0.17630510634E+02  0.37208275357E+02  0.51100000000E-03 0.  1.
         12    1    3    3    0    0 -0.39091177823E+02  0.33604799384E+01 -0.20778885735E+02  0.44397917760E+02  0.00000000000E+00 0. -1.
</event>
<event>
 7    1  0.1999542E-015  0.9000706E+02  0.7816164E-02  0.1186340E+00
        -11   -1    0    0    0    0  0.00000000000E+00  0.00000000000E+00  0.45593999997E+02  0.45594000000E+02  0.51100000000E-03 0. -1.
         11   -1    0    0    0    0 -0.00000000000E+00 -0.00000000000E+00 -0.45593999997E+02  0.45594000000E+02  0.51100000000E-03 0.  1.
    9900012    2    1    2    0    0  0.64771487171E+00  0.98745697510E+00 -0.20756809674E-02  0.90007063871E+02  0.89999316311E+02 0.  0.
         12    1    1    2    0    0 -0.64771487171E+00 -0.98745697510E+00  0.20756809674E-02  0.11809361292E+01  0.00000000000E+00 0. -1.
         11    1    3    3    0    0  0.68057431872E+01  0.67649052567E+01  0.69441969280E+01  0.11844997032E+02  0.51100000000E-03 0. -1.
        -11    1    3    3    0    0  0.17416889212E+02 -0.23136526815E+02  0.22474117795E+02  0.36656962147E+02  0.51100000000E-03 0.  1.
         12    1    3    3    0    0 -0.23574917527E+02  0.17359078533E+02 -0.29420390404E+02  0.41505104692E+02  0.00000000000E+00 0. -1.
</event>
<event>
 7    1  0.1999542E-015  0.9000775E+02  0.7816164E-02  0.1186339E+00
        -11   -1    0    0    0    0  0.00000000000E+00  0.00000000000E+00  0.45593999997E+02  0.45594000000E+02  0.51100000000E-03 0.  1.
         11   -1    0    0    0    0 -0.00000000000E+00 -0.00000000000E+00 -0.45593999997E+02  0.45594000000E+02  0.51100000000E-03 0. -1.
    9900012    2    1    2    0    0 -0.36979213960E+00 -0.93007504776E+00  0.62545405451E+00  0.90007754858E+02  0.90000016422E+02 0.  0.
         12    1    1    2    0    0  0.36979213960E+00  0.93007504776E+00 -0.62545405451E+00  0.11802451420E+01  0.00000000000E+00 0. -1.
         11    1    3    3    0    0 -0.42958505899E+01 -0.17710267708E+02  0.83349057253E+01  0.20039425349E+02  0.51100000000E-03 0. -1.
        -11    1    3    3    0    0  0.93031370353E+01 -0.22023799501E+02  0.11277964651E+02  0.26434609701E+02  0.51100000000E-03 0.  1.
         12    1    3    3    0    0 -0.53770785850E+01  0.38803992161E+02 -0.18987416322E+02  0.43533719808E+02  0.00000000000E+00 0. -1.
</event>
<event>
 7    1  0.1999542E-015  0.9000773E+02  0.7816164E-02  0.1186339E+00
        -11   -1    0    0    0    0  0.00000000000E+00  0.00000000000E+00  0.45593999997E+02  0.45594000000E+02  0.51100000000E-03 0. -1.
         11   -1    0    0    0    0 -0.00000000000E+00 -0.00000000000E+00 -0.45593999997E+02  0.45594000000E+02  0.51100000000E-03 0.  1.
    9900012    2    1    2    0    0 -0.11700242952E+01 -0.11154687329E+00 -0.10785398949E+00  0.90007732217E+02  0.89999993482E+02 0.  0.
         12    1    1    2    0    0  0.11700242952E+01  0.11154687329E+00  0.10785398949E+00  0.11802677829E+01  0.00000000000E+00 0. -1.
         11    1    3    3    0    0 -0.78612010198E+01 -0.55152762222E+00 -0.62232799246E+01  0.10041507729E+02  0.51100000000E-03 0. -1.
        -11    1    3    3    0    0  0.55929254077E+01 -0.78532214334E+01 -0.35876356857E+02  0.37149251447E+02  0.51100000000E-03 0.  1.
         12    1    3    3    0    0  0.10982513169E+01  0.82932021823E+01  0.41991782792E+02  0.42816973041E+02  0.00000000000E+00 0. -1.
</event>
<event>
 7    1  0.1999542E-015  0.9000772E+02  0.7816164E-02  0.1186339E+00
        -11   -1    0    0    0    0  0.00000000000E+00  0.00000000000E+00  0.45593999997E+02  0.45594000000E+02  0.51100000000E-03 0.  1.
         11   -1    0    0    0    0 -0.00000000000E+00 -0.00000000000E+00 -0.45593999997E+02  0.45594000000E+02  0.51100000000E-03 0. -1.
    9900012    2    1    2    0    0  0.48443869129E-01 -0.55419515661E+00  0.10409514608E+01  0.90007720786E+02  0.89999981900E+02 0.  0.
         12    1    1    2    0    0 -0.48443869129E-01  0.55419515661E+00 -0.10409514608E+01  0.11802792143E+01  0.00000000000E+00 0. -1.
         11    1    3    3    0    0  0.71943716892E+01 -0.12153744857E+02  0.86088284066E+01  0.16540387687E+02  0.51100000000E-03 0. -1.
        -11    1    3    3    0    0  0.12951415876E+02  0.22875275378E+02  0.23176470914E+02  0.35045202255E+02  0.51100000000E-03 0.  1.
         12    1    3    3    0    0 -0.20097343696E+02 -0.11275725678E+02 -0.30744347859E+02  0.38422130843E+02  0.00000000000E+00 0. -1.
</event>
<event>
 7    1  0.1999542E-015  0.9000770E+02  0.7816164E-02  0.1186339E+00
        -11   -1    0    0    0    0  0.00000000000E+00  0.00000000000E+00  0.45593999997E+02  0.45594000000E+02  0.51100000000E-03 0.  1.
         11   -1    0    0    0    0 -0.00000000000E+00 -0.00000000000E+00 -0.45593999997E+02  0.45594000000E+02  0.51100000000E-03 0. -1.
    9900012    2    1    2    0    0  0.49854074486E+00  0.10598228685E+01  0.14610528213E+00  0.90007697437E+02  0.89999958243E+02 0.  0.
         12    1    1    2    0    0 -0.49854074486E+00 -0.10598228685E+01 -0.14610528213E+00  0.11803025631E+01  0.00000000000E+00 0. -1.
         11    1    3    3    0    0  0.33039943819E+02  0.24787141329E+02  0.25958715713E+01  0.41385731990E+02  0.51100000000E-03 0. -1.
        -11    1    3    3    0    0 -0.71181072697E+01  0.39516265587E+01  0.59845816946E+01  0.10104356579E+02  0.51100000000E-03 0.  1.
        -12    1    3    3    0    0 -0.25423295805E+02 -0.27678945020E+02 -0.84343479838E+01  0.38517608868E+02  0.00000000000E+00 0.  1.
</event>
<event>
 7    1  0.1999542E-015  0.9000777E+02  0.7816164E-02  0.1186339E+00
        -11   -1    0    0    0    0  0.00000000000E+00  0.00000000000E+00  0.45593999997E+02  0.45594000000E+02  0.51100000000E-03 0.  1.
         11   -1    0    0    0    0 -0.00000000000E+00 -0.00000000000E+00 -0.45593999997E+02  0.45594000000E+02  0.51100000000E-03 0. -1.
    9900012    2    1    2    0    0  0.25577493494E+00  0.77896560796E+00  0.84896160243E+00  0.90007769498E+02  0.90000031255E+02 0.  0.
         12    1    1    2    0    0 -0.25577493494E+00 -0.77896560796E+00 -0.84896160243E+00  0.11802305021E+01  0.00000000000E+00 0. -1.
         11    1    3    3    0    0  0.27700092700E+02 -0.13298941237E+02 -0.20817930796E+02  0.37115269317E+02  0.51100000000E-03 0. -1.
        -11    1    3    3    0    0  0.12664093363E+01 -0.69900622385E+00 -0.85484645350E+01  0.86699854946E+01  0.51100000000E-03 0.  1.
        -12    1    3    3    0    0 -0.28710727102E+02  0.14776913069E+02  0.30215356933E+02  0.44222514686E+02  0.00000000000E+00 0.  1.
</event>
<event>
 7    1  0.1999542E-015  0.9000867E+02  0.7816164E-02  0.1186337E+00
        -11   -1    0    0    0    0  0.00000000000E+00  0.00000000000E+00  0.45593999997E+02  0.45594000000E+02  0.51100000000E-03 0.  1.
         11   -1    0    0    0    0 -0.00000000000E+00 -0.00000000000E+00 -0.45593999997E+02  0.45594000000E+02  0.51100000000E-03 0. -1.
    9900012    2    1    2    0    0 -0.10064262966E+00 -0.11239801010E+01 -0.34256002052E+00  0.90008674950E+02  0.90000948654E+02 0.  0.
         12    1    1    2    0    0  0.10064262966E+00  0.11239801010E+01  0.34256002052E+00  0.11793250502E+01  0.00000000000E+00 0. -1.
         11    1    3    3    0    0  0.53842997126E+01 -0.66683548245E+01  0.30552298809E+01  0.90990147459E+01  0.51100000000E-03 0. -1.
        -11    1    3    3    0    0  0.22039919858E+02  0.12716495045E+02  0.28476900056E+02  0.38189018718E+02  0.51100000000E-03 0.  1.
         12    1    3    3    0    0 -0.27524862200E+02 -0.71721203219E+01 -0.31874689958E+02  0.42720641486E+02  0.00000000000E+00 0. -1.
</event>
<event>
 7    1  0.1999542E-015  0.9000777E+02  0.7816164E-02  0.1186339E+00
        -11   -1    0    0    0    0  0.00000000000E+00  0.00000000000E+00  0.45593999997E+02  0.45594000000E+02  0.51100000000E-03 0. -1.
         11   -1    0    0    0    0 -0.00000000000E+00 -0.00000000000E+00 -0.45593999997E+02  0.45594000000E+02  0.51100000000E-03 0.  1.
    9900012    2    1    2    0    0 -0.63586534269E+00 -0.70522092973E+00 -0.70092060514E+00  0.90007766553E+02  0.90000028272E+02 0.  0.
         12    1    1    2    0    0  0.63586534269E+00  0.70522092973E+00  0.70092060514E+00  0.11802334466E+01  0.00000000000E+00 0. -1.
         11    1    3    3    0    0 -0.58500799226E+01  0.49751179671E+01 -0.38479533921E+01  0.85896437328E+01  0.51100000000E-03 0. -1.
        -11    1    3    3    0    0 -0.24759007220E+02 -0.13232133950E+02 -0.26488067909E+02  0.38596833409E+02  0.51100000000E-03 0.  1.
         12    1    3    3    0    0  0.29973221800E+02  0.75517950532E+01  0.29635100696E+02  0.42821289411E+02  0.00000000000E+00 0. -1.
</event>
<event>
 7    1  0.1999542E-015  0.9000773E+02  0.7816164E-02  0.1186339E+00
        -11   -1    0    0    0    0  0.00000000000E+00  0.00000000000E+00  0.45593999997E+02  0.45594000000E+02  0.51100000000E-03 0.  1.
         11   -1    0    0    0    0 -0.00000000000E+00 -0.00000000000E+00 -0.45593999997E+02  0.45594000000E+02  0.51100000000E-03 0. -1.
    9900012    2    1    2    0    0 -0.97542219532E+00  0.11561326217E+00  0.65438373757E+00  0.90007731826E+02  0.89999993087E+02 0.  0.
         12    1    1    2    0    0  0.97542219532E+00 -0.11561326217E+00 -0.65438373757E+00  0.11802681736E+01  0.00000000000E+00 0. -1.
         11    1    3    3    0    0 -0.13285268755E+01  0.58920818362E+01 -0.98194220460E+01  0.11528341667E+02  0.51100000000E-03 0. -1.
        -11    1    3    3    0    0 -0.15874554087E+02 -0.34373375239E+02  0.21816298290E+02  0.43697611652E+02  0.51100000000E-03 0.  1.
         12    1    3    3    0    0  0.16227658767E+02  0.28596906665E+02 -0.11342492506E+02  0.34781778507E+02  0.00000000000E+00 0. -1.
</event>
<event>
 7    1  0.1999542E-015  0.9000782E+02  0.7816164E-02  0.1186339E+00
        -11   -1    0    0    0    0  0.00000000000E+00  0.00000000000E+00  0.45593999997E+02  0.45594000000E+02  0.51100000000E-03 0.  1.
         11   -1    0    0    0    0 -0.00000000000E+00 -0.00000000000E+00 -0.45593999997E+02  0.45594000000E+02  0.51100000000E-03 0. -1.
    9900012    2    1    2    0    0  0.22133520923E+00  0.11108517570E+01  0.33143009052E+00  0.90007819164E+02  0.90000081577E+02 0.  0.
         12    1    1    2    0    0 -0.22133520923E+00 -0.11108517570E+01 -0.33143009052E+00  0.11801808361E+01  0.00000000000E+00 0. -1.
         11    1    3    3    0    0  0.26831716757E+02 -0.21196623191E+02  0.17019725000E+02  0.38195665960E+02  0.51100000000E-03 0. -1.
        -11    1    3    3    0    0  0.78613522665E+01  0.58580744102E+01  0.73310252464E+00  0.98313445075E+01  0.51100000000E-03 0.  1.
        -12    1    3    3    0    0 -0.34471733814E+02  0.16449400538E+02 -0.17421397434E+02  0.41980808696E+02  0.00000000000E+00 0.  1.
</event>
<event>
 7    1  0.1999542E-015  0.9000777E+02  0.7816164E-02  0.1186339E+00
        -11   -1    0    0    0    0  0.00000000000E+00  0.00000000000E+00  0.45593999997E+02  0.45594000000E+02  0.51100000000E-03 0.  1.
         11   -1    0    0    0    0 -0.00000000000E+00 -0.00000000000E+00 -0.45593999997E+02  0.45594000000E+02  0.51100000000E-03 0. -1.
    9900012    2    1    2    0    0 -0.61896179226E+00 -0.81975723280E+00 -0.58122158760E+00  0.90007773685E+02  0.90000035498E+02 0.  0.
         12    1    1    2    0    0  0.61896179226E+00  0.81975723280E+00  0.58122158760E+00  0.11802263151E+01  0.00000000000E+00 0. -1.
         11    1    3    3    0    0  0.29086725763E+02  0.26628752448E+02  0.16567848338E+02  0.42774077095E+02  0.51100000000E-03 0. -1.
        -11    1    3    3    0    0 -0.77902720039E+01 -0.13210997390E+01 -0.93683751810E+01  0.12255614885E+02  0.51100000000E-03 0.  1.
        -12    1    3    3    0    0 -0.21915415551E+02 -0.26127409942E+02 -0.77806947442E+01  0.34978081705E+02  0.00000000000E+00 0.  1.
</event>
<event>
 7    1  0.1999542E-015  0.9000772E+02  0.7816164E-02  0.1186339E+00
        -11   -1    0    0    0    0  0.00000000000E+00  0.00000000000E+00  0.45593999997E+02  0.45594000000E+02  0.51100000000E-03 0.  1.
         11   -1    0    0    0    0 -0.00000000000E+00 -0.00000000000E+00 -0.45593999997E+02  0.45594000000E+02  0.51100000000E-03 0. -1.
    9900012    2    1    2    0    0  0.12421231180E+00 -0.14043257200E+00  0.11652950581E+01  0.90007719280E+02  0.89999980374E+02 0.  0.
         12    1    1    2    0    0 -0.12421231180E+00  0.14043257200E+00 -0.11652950581E+01  0.11802807200E+01  0.00000000000E+00 0. -1.
         11    1    3    3    0    0  0.48912405785E+01 -0.65736699025E+01 -0.89472643697E+01  0.12132226108E+02  0.51100000000E-03 0. -1.
        -11    1    3    3    0    0  0.15683558989E+02 -0.22465887553E+02  0.27162196384E+02  0.38580759956E+02  0.51100000000E-03 0.  1.
         12    1    3    3    0    0 -0.20450587256E+02  0.28899124884E+02 -0.17049636956E+02  0.39294733216E+02  0.00000000000E+00 0. -1.
</event>
<event>
 7    1  0.1999542E-015  0.9000738E+02  0.7816164E-02  0.1186340E+00
        -11   -1    0    0    0    0  0.00000000000E+00  0.00000000000E+00  0.45593999997E+02  0.45594000000E+02  0.51100000000E-03 0. -1.
         11   -1    0    0    0    0 -0.00000000000E+00 -0.00000000000E+00 -0.45593999997E+02  0.45594000000E+02  0.51100000000E-03 0.  1.
    9900012    2    1    2    0    0  0.67825674969E+00 -0.72174187101E+00  0.64258149485E+00  0.90007383837E+02  0.89999640503E+02 0.  0.
         12    1    1    2    0    0 -0.67825674969E+00  0.72174187101E+00 -0.64258149485E+00  0.11806161630E+01  0.00000000000E+00 0. -1.
         11    1    3    3    0    0  0.37422785421E+01  0.79040482115E+01  0.21421676532E+02  0.23137995862E+02  0.51100000000E-03 0. -1.
        -11    1    3    3    0    0 -0.25241544608E+01  0.15412899583E+02  0.16365163279E+02  0.22621834557E+02  0.51100000000E-03 0.  1.
         12    1    3    3    0    0 -0.53986733161E+00 -0.24038689666E+02 -0.37144258316E+02  0.44247553418E+02  0.00000000000E+00 0. -1.
</event>
<event>
 7    1  0.1999542E-015  0.9000770E+02  0.7816164E-02  0.1186339E+00
        -11   -1    0    0    0    0  0.00000000000E+00  0.00000000000E+00  0.45593999997E+02  0.45594000000E+02  0.51100000000E-03 0. -1.
         11   -1    0    0    0    0 -0.00000000000E+00 -0.00000000000E+00 -0.45593999997E+02  0.45594000000E+02  0.51100000000E-03 0.  1.
    9900012    2    1    2    0    0 -0.53769606255E+00  0.88024489077E+00 -0.57372594185E+00  0.90007699369E+02  0.89999960201E+02 0.  0.
         12    1    1    2    0    0  0.53769606255E+00 -0.88024489077E+00  0.57372594185E+00  0.11803006311E+01  0.00000000000E+00 0. -1.
         11    1    3    3    0    0 -0.40680180277E+01 -0.48556104291E+01 -0.74073539520E+01  0.97465181549E+01  0.51100000000E-03 0. -1.
        -11    1    3    3    0    0 -0.62221554850E+01 -0.35411237605E+02  0.11425648499E+02  0.37725540573E+02  0.51100000000E-03 0.  1.
         12    1    3    3    0    0  0.97524774502E+01  0.41147092925E+02 -0.45920204888E+01  0.42535640641E+02  0.00000000000E+00 0. -1.
</event>
<event>
 7    1  0.1999542E-015  0.9000786E+02  0.7816164E-02  0.1186339E+00
        -11   -1    0    0    0    0  0.00000000000E+00  0.00000000000E+00  0.45593999997E+02  0.45594000000E+02  0.51100000000E-03 0. -1.
         11   -1    0    0    0    0 -0.00000000000E+00 -0.00000000000E+00 -0.45593999997E+02  0.45594000000E+02  0.51100000000E-03 0.  1.
    9900012    2    1    2    0    0  0.57350167075E+00 -0.10296888578E+01  0.59709499115E-01  0.90007860799E+02  0.90000123761E+02 0.  0.
         12    1    1    2    0    0 -0.57350167075E+00  0.10296888578E+01 -0.59709499115E-01  0.11801392013E+01  0.00000000000E+00 0. -1.
         11    1    3    3    0    0  0.29146266827E+02  0.67088328804E+01  0.22932312613E+02  0.37688251095E+02  0.51100000000E-03 0. -1.
        -11    1    3    3    0    0 -0.34698617136E+01  0.34098893122E+01  0.90084930627E+01  0.10238175275E+02  0.51100000000E-03 0.  1.
        -12    1    3    3    0    0 -0.25102903443E+02 -0.11148411050E+02 -0.31881096176E+02  0.42081434429E+02  0.00000000000E+00 0.  1.
</event>
<event>
 7    1  0.1999542E-015  0.9000768E+02  0.7816164E-02  0.1186339E+00
        -11   -1    0    0    0    0  0.00000000000E+00  0.00000000000E+00  0.45593999997E+02  0.45594000000E+02  0.51100000000E-03 0.  1.
         11   -1    0    0    0    0 -0.00000000000E+00 -0.00000000000E+00 -0.45593999997E+02  0.45594000000E+02  0.51100000000E-03 0. -1.
    9900012    2    1    2    0    0  0.26515077945E+00 -0.26148607664E+00  0.11200315257E+01  0.90007682025E+02  0.89999942627E+02 0.  0.
         12    1    1    2    0    0 -0.26515077945E+00  0.26148607664E+00 -0.11200315257E+01  0.11803179753E+01  0.00000000000E+00 0. -1.
         11    1    3    3    0    0 -0.18914779347E+01 -0.83456720880E+01  0.22109390556E+01  0.88383359942E+01  0.51100000000E-03 0. -1.
        -11    1    3    3    0    0  0.26326124661E+02 -0.13689391574E+02  0.25522706156E+02  0.39139146785E+02  0.51100000000E-03 0.  1.
         12    1    3    3    0    0 -0.24169495946E+02  0.21773577586E+02 -0.26613613685E+02  0.42030199245E+02  0.00000000000E+00 0. -1.
</event>
<event>
 7    1  0.1999542E-015  0.9000817E+02  0.7816164E-02  0.1186338E+00
        -11   -1    0    0    0    0  0.00000000000E+00  0.00000000000E+00  0.45593999997E+02  0.45594000000E+02  0.51100000000E-03 0.  1.
         11   -1    0    0    0    0 -0.00000000000E+00 -0.00000000000E+00 -0.45593999997E+02  0.45594000000E+02  0.51100000000E-03 0. -1.
    9900012    2    1    2    0    0  0.45436729047E+00  0.38234326580E+00  0.10194859160E+01  0.90008174784E+02  0.90000441890E+02 0.  0.
         12    1    1    2    0    0 -0.45436729047E+00 -0.38234326580E+00 -0.10194859160E+01  0.11798252161E+01  0.00000000000E+00 0. -1.
         11    1    3    3    0    0 -0.30247975923E+02 -0.13162277016E+02 -0.20856781681E+02  0.39028078687E+02  0.51100000000E-03 0. -1.
        -11    1    3    3    0    0 -0.81998652514E+00  0.53107054684E+01 -0.60338944310E+01  0.80798423709E+01  0.51100000000E-03 0.  1.
        -12    1    3    3    0    0  0.31522329738E+02  0.82339148138E+01  0.27910162028E+02  0.42900253726E+02  0.00000000000E+00 0.  1.
</event>
<event>
 7    1  0.1999542E-015  0.9000769E+02  0.7816164E-02  0.1186339E+00
        -11   -1    0    0    0    0  0.00000000000E+00  0.00000000000E+00  0.45593999997E+02  0.45594000000E+02  0.51100000000E-03 0.  1.
         11   -1    0    0    0    0 -0.00000000000E+00 -0.00000000000E+00 -0.45593999997E+02  0.45594000000E+02  0.51100000000E-03 0. -1.
    9900012    2    1    2    0    0 -0.10971114143E+01  0.43355654579E+00 -0.38824689201E-01  0.90007689833E+02  0.89999950539E+02 0.  0.
         12    1    1    2    0    0  0.10971114143E+01 -0.43355654579E+00  0.38824689201E-01  0.11803101670E+01  0.00000000000E+00 0. -1.
         11    1    3    3    0    0 -0.26405505037E+02 -0.23982658543E+02 -0.21120530866E+02  0.41454739553E+02  0.51100000000E-03 0. -1.
        -11    1    3    3    0    0  0.92858105471E+01 -0.13433124997E+01 -0.29676066700E+01  0.98406024002E+01  0.51100000000E-03 0.  1.
        -12    1    3    3    0    0  0.16022583075E+02  0.25759527589E+02  0.24049312847E+02  0.38712347880E+02  0.00000000000E+00 0.  1.
</event>
<event>
 7    1  0.1999542E-015  0.9000776E+02  0.7816164E-02  0.1186339E+00
        -11   -1    0    0    0    0  0.00000000000E+00  0.00000000000E+00  0.45593999997E+02  0.45594000000E+02  0.51100000000E-03 0. -1.
         11   -1    0    0    0    0 -0.00000000000E+00 -0.00000000000E+00 -0.45593999997E+02  0.45594000000E+02  0.51100000000E-03 0.  1.
    9900012    2    1    2    0    0  0.31066357396E+00 -0.11159874615E+01  0.22588544277E+00  0.90007760997E+02  0.90000022642E+02 0.  0.
         12    1    1    2    0    0 -0.31066357396E+00  0.11159874615E+01 -0.22588544277E+00  0.11802390028E+01  0.00000000000E+00 0. -1.
         11    1    3    3    0    0 -0.40636376922E+00  0.14079157892E+01 -0.76428463981E+01  0.77820601198E+01  0.51100000000E-03 0. -1.
        -11    1    3    3    0    0 -0.25899666072E+02  0.87273212643E+01 -0.25987903642E+02  0.37713790250E+02  0.51100000000E-03 0.  1.
         12    1    3    3    0    0  0.26616693415E+02 -0.11251224515E+02  0.33856635483E+02  0.44511910627E+02  0.00000000000E+00 0. -1.
</event>
<event>
 7    1  0.1999542E-015  0.9000770E+02  0.7816164E-02  0.1186339E+00
        -11   -1    0    0    0    0  0.00000000000E+00  0.00000000000E+00  0.45593999997E+02  0.45594000000E+02  0.51100000000E-03 0. -1.
         11   -1    0    0    0    0 -0.00000000000E+00 -0.00000000000E+00 -0.45593999997E+02  0.45594000000E+02  0.51100000000E-03 0.  1.
    9900012    2    1    2    0    0  0.44595392852E+00  0.92657485064E+00 -0.57938404410E+00  0.90007702694E+02  0.89999963569E+02 0.  0.
         12    1    1    2    0    0 -0.44595392852E+00 -0.92657485064E+00  0.57938404410E+00  0.11802973061E+01  0.00000000000E+00 0. -1.
         11    1    3    3    0    0 -0.20357964904E+02 -0.19503940947E+02 -0.23892689210E+02  0.36955527942E+02  0.51100000000E-03 0. -1.
        -11    1    3    3    0    0 -0.79034244979E+01 -0.13893168611E+01 -0.28349378652E+01  0.85106517432E+01  0.51100000000E-03 0.  1.
        -12    1    3    3    0    0  0.28707343330E+02  0.21819832659E+02  0.26148243032E+02  0.44541523009E+02  0.00000000000E+00 0.  1.
</event>
<event>
 7    1  0.1999542E-015  0.9000781E+02  0.7816164E-02  0.1186339E+00
        -11   -1    0    0    0    0  0.00000000000E+00  0.00000000000E+00  0.45593999997E+02  0.45594000000E+02  0.51100000000E-03 0. -1.
         11   -1    0    0    0    0 -0.00000000000E+00 -0.00000000000E+00 -0.45593999997E+02  0.45594000000E+02  0.51100000000E-03 0.  1.
    9900012    2    1    2    0    0 -0.11444676978E+01 -0.23515120769E+00  0.16660203671E+00  0.90007805677E+02  0.90000067912E+02 0.  0.
         12    1    1    2    0    0  0.11444676978E+01  0.23515120769E+00 -0.16660203671E+00  0.11801943232E+01  0.00000000000E+00 0. -1.
         11    1    3    3    0    0  0.79721752169E+00 -0.50927877841E+01  0.71887093491E+01  0.88458795807E+01  0.51100000000E-03 0. -1.
        -11    1    3    3    0    0  0.34067266780E+02 -0.48858594731E+01 -0.22127813996E+02  0.40915650321E+02  0.51100000000E-03 0.  1.
         12    1    3    3    0    0 -0.36008952000E+02  0.97434960495E+01  0.15105706683E+02  0.40246275775E+02  0.00000000000E+00 0. -1.
</event>
<event>
 7    1  0.1999542E-015  0.9000773E+02  0.7816164E-02  0.1186339E+00
        -11   -1    0    0    0    0  0.00000000000E+00  0.00000000000E+00  0.45593999997E+02  0.45594000000E+02  0.51100000000E-03 0. -1.
         11   -1    0    0    0    0 -0.00000000000E+00 -0.00000000000E+00 -0.45593999997E+02  0.45594000000E+02  0.51100000000E-03 0.  1.
    9900012    2    1    2    0    0  0.46420988953E+00  0.10324190951E+01  0.33416006494E+00  0.90007727591E+02  0.89999988796E+02 0.  0.
         12    1    1    2    0    0 -0.46420988953E+00 -0.10324190951E+01 -0.33416006494E+00  0.11802724086E+01  0.00000000000E+00 0. -1.
         11    1    3    3    0    0 -0.88625116998E-01 -0.17356371895E+02  0.17337211173E+02  0.24532231681E+02  0.51100000000E-03 0. -1.
        -11    1    3    3    0    0  0.16759727718E+01 -0.22375465719E+02 -0.54417389418E+01  0.23088587524E+02  0.51100000000E-03 0.  1.
        -12    1    3    3    0    0 -0.11231377653E+01  0.40764256709E+02 -0.11561312166E+02  0.42386908386E+02  0.00000000000E+00 0.  1.
</event>
<event>
 7    1  0.1999542E-015  0.9000776E+02  0.7816164E-02  0.1186339E+00
        -11   -1    0    0    0    0  0.00000000000E+00  0.00000000000E+00  0.45593999997E+02  0.45594000000E+02  0.51100000000E-03 0. -1.
         11   -1    0    0    0    0 -0.00000000000E+00 -0.00000000000E+00 -0.45593999997E+02  0.45594000000E+02  0.51100000000E-03 0.  1.
    9900012    2    1    2    0    0 -0.34630591085E+00 -0.28973962439E+00 -0.10904567955E+01  0.90007757289E+02  0.90000018885E+02 0.  0.
         12    1    1    2    0    0  0.34630591085E+00  0.28973962439E+00  0.10904567955E+01  0.11802427109E+01  0.00000000000E+00 0. -1.
         11    1    3    3    0    0 -0.29249312482E+02 -0.70936882441E+01  0.23803507693E+02  0.38372511937E+02  0.51100000000E-03 0. -1.
        -11    1    3    3    0    0  0.85582499870E+00 -0.84351698221E+01 -0.16624415751E+02  0.18661611015E+02  0.51100000000E-03 0.  1.
        -12    1    3    3    0    0  0.28047181572E+02  0.15239118442E+02 -0.82695487376E+01  0.32973634337E+02  0.00000000000E+00 0.  1.
</event>
<event>
 7    1  0.1999542E-015  0.9000773E+02  0.7816164E-02  0.1186339E+00
        -11   -1    0    0    0    0  0.00000000000E+00  0.00000000000E+00  0.45593999997E+02  0.45594000000E+02  0.51100000000E-03 0. -1.
         11   -1    0    0    0    0 -0.00000000000E+00 -0.00000000000E+00 -0.45593999997E+02  0.45594000000E+02  0.51100000000E-03 0.  1.
    9900012    2    1    2    0    0  0.66865998881E-01  0.11346656707E+01 -0.31798059864E+00  0.90007725071E+02  0.89999986242E+02 0.  0.
         12    1    1    2    0    0 -0.66865998881E-01 -0.11346656707E+01  0.31798059864E+00  0.11802749287E+01  0.00000000000E+00 0. -1.
         11    1    3    3    0    0  0.12416890552E+02  0.36903747752E+02 -0.12123687771E+02  0.40780504834E+02  0.51100000000E-03 0. -1.
        -11    1    3    3    0    0 -0.96589861364E+01  0.79849124555E+00 -0.22659579272E+01  0.99532993043E+01  0.51100000000E-03 0.  1.
        -12    1    3    3    0    0 -0.26910384166E+01 -0.36567573327E+02  0.14071665099E+02  0.39273920933E+02  0.00000000000E+00 0.  1.
</event>
<event>
 7    1  0.1999542E-015  0.9000778E+02  0.7816164E-02  0.1186339E+00
        -11   -1    0    0    0    0  0.00000000000E+00  0.00000000000E+00  0.45593999997E+02  0.45594000000E+02  0.51100000000E-03 0. -1.
         11   -1    0    0    0    0 -0.00000000000E+00 -0.00000000000E+00 -0.45593999997E+02  0.45594000000E+02  0.51100000000E-03 0.  1.
    9900012    2    1    2    0    0  0.37225468530E+00 -0.64053279564E+00  0.91873430504E+00  0.90007776065E+02  0.90000037909E+02 0.  0.
         12    1    1    2    0    0 -0.37225468530E+00  0.64053279564E+00 -0.91873430504E+00  0.11802239348E+01  0.00000000000E+00 0. -1.
         11    1    3    3    0    0 -0.24949138292E+01  0.84410993396E+01  0.34891941009E+01  0.94684332818E+01  0.51100000000E-03 0. -1.
        -11    1    3    3    0    0  0.23063532062E+02 -0.26816767287E+02  0.24000589536E+02  0.42744517979E+02  0.51100000000E-03 0.  1.
         12    1    3    3    0    0 -0.20196363547E+02  0.17735135152E+02 -0.26571049332E+02  0.37794824805E+02  0.00000000000E+00 0. -1.
</event>
<event>
 7    1  0.1999542E-015  0.9000777E+02  0.7816164E-02  0.1186339E+00
        -11   -1    0    0    0    0  0.00000000000E+00  0.00000000000E+00  0.45593999997E+02  0.45594000000E+02  0.51100000000E-03 0. -1.
         11   -1    0    0    0    0 -0.00000000000E+00 -0.00000000000E+00 -0.45593999997E+02  0.45594000000E+02  0.51100000000E-03 0.  1.
    9900012    2    1    2    0    0 -0.48441127205E+00  0.32454585371E+00 -0.10261369522E+01  0.90007770642E+02  0.90000032415E+02 0.  0.
         12    1    1    2    0    0  0.48441127205E+00 -0.32454585371E+00  0.10261369522E+01  0.11802293575E+01  0.00000000000E+00 0. -1.
         11    1    3    3    0    0  0.82888446255E+01 -0.34102643580E+00  0.20512350430E+01  0.85456895403E+01  0.51100000000E-03 0. -1.
        -11    1    3    3    0    0  0.29969311573E+00 -0.38986662083E+02 -0.98799816173E+01  0.40220189872E+02  0.51100000000E-03 0.  1.
         12    1    3    3    0    0 -0.90729490133E+01  0.39652234373E+02  0.68026096221E+01  0.41241891230E+02  0.00000000000E+00 0. -1.
</event>
<event>
 7    1  0.1999542E-015  0.9000777E+02  0.7816164E-02  0.1186339E+00
        -11   -1    0    0    0    0  0.00000000000E+00  0.00000000000E+00  0.45593999997E+02  0.45594000000E+02  0.51100000000E-03 0.  1.
         11   -1    0    0    0    0 -0.00000000000E+00 -0.00000000000E+00 -0.45593999997E+02  0.45594000000E+02  0.51100000000E-03 0. -1.
    9900012    2    1    2    0    0  0.55945492566E+00  0.74911053127E+00  0.72027289975E+00  0.90007767204E+02  0.90000028931E+02 0.  0.
         12    1    1    2    0    0 -0.55945492566E+00 -0.74911053127E+00 -0.72027289975E+00  0.11802327957E+01  0.00000000000E+00 0. -1.
         11    1    3    3    0    0  0.84990232327E+01  0.38736761160E+02  0.69460356447E+01  0.40261861265E+02  0.51100000000E-03 0. -1.
        -11    1    3    3    0    0 -0.80216124510E+01  0.28491647217E+01 -0.13500750654E+01  0.86189737712E+01  0.51100000000E-03 0.  1.
        -12    1    3    3    0    0  0.82044143896E-01 -0.40836815351E+02 -0.48756876796E+01  0.41126932168E+02  0.00000000000E+00 0.  1.
</event>
<event>
 7    1  0.1999542E-015  0.9000777E+02  0.7816164E-02  0.1186339E+00
        -11   -1    0    0    0    0  0.00000000000E+00  0.00000000000E+00  0.45593999997E+02  0.45594000000E+02  0.51100000000E-03 0.  1.
         11   -1    0    0    0    0 -0.00000000000E+00 -0.00000000000E+00 -0.45593999997E+02  0.45594000000E+02  0.51100000000E-03 0. -1.
    9900012    2    1    2    0    0  0.78407023465E+00  0.85883403070E+00  0.20142306848E+00  0.90007774057E+02  0.90000035874E+02 0.  0.
         12    1    1    2    0    0 -0.78407023465E+00 -0.85883403070E+00 -0.20142306848E+00  0.11802259435E+01  0.00000000000E+00 0. -1.
         11    1    3    3    0    0 -0.12234749502E+02  0.32773090952E+02  0.20976545373E+02  0.40789459937E+02  0.51100000000E-03 0. -1.
        -11    1    3    3    0    0  0.94446615955E+01 -0.60654350209E+01  0.52254503265E+01  0.12381295006E+02  0.51100000000E-03 0.  1.
        -12    1    3    3    0    0  0.35741581410E+01 -0.25848821900E+02 -0.26000572631E+02  0.36837019114E+02  0.00000000000E+00 0.  1.
</event>
<event>
 7    1  0.1999542E-015  0.9000770E+02  0.7816164E-02  0.1186339E+00
        -11   -1    0    0    0    0  0.00000000000E+00  0.00000000000E+00  0.45593999997E+02  0.45594000000E+02  0.51100000000E-03 0.  1.
         11   -1    0    0    0    0 -0.00000000000E+00 -0.00000000000E+00 -0.45593999997E+02  0.45594000000E+02  0.51100000000E-03 0. -1.
    9900012    2    1    2    0    0 -0.91650482488E+00  0.73785626753E+00 -0.93201856981E-01  0.90007703617E+02  0.89999964505E+02 0.  0.
         12    1    1    2    0    0  0.91650482488E+00 -0.73785626753E+00  0.93201856981E-01  0.11802963830E+01  0.00000000000E+00 0. -1.
         11    1    3    3    0    0 -0.23019276126E+02 -0.18843020830E+01 -0.26037061407E+02  0.34804686964E+02  0.51100000000E-03 0. -1.
        -11    1    3    3    0    0 -0.13027814264E+02  0.20654948343E+01  0.40222893116E+01  0.13790178569E+02  0.51100000000E-03 0.  1.
        -12    1    3    3    0    0  0.35130585565E+02  0.55666351621E+00  0.21921570239E+02  0.41412838083E+02  0.00000000000E+00 0.  1.
</event>
<event>
 7    1  0.1999542E-015  0.9000776E+02  0.7816164E-02  0.1186339E+00
        -11   -1    0    0    0    0  0.00000000000E+00  0.00000000000E+00  0.45593999997E+02  0.45594000000E+02  0.51100000000E-03 0.  1.
         11   -1    0    0    0    0 -0.00000000000E+00 -0.00000000000E+00 -0.45593999997E+02  0.45594000000E+02  0.51100000000E-03 0. -1.
    9900012    2    1    2    0    0  0.27474884607E+00  0.88736955183E+00  0.72804486743E+00  0.90007762321E+02  0.90000023984E+02 0.  0.
         12    1    1    2    0    0 -0.27474884607E+00 -0.88736955183E+00 -0.72804486743E+00  0.11802376790E+01  0.00000000000E+00 0. -1.
         11    1    3    3    0    0  0.28049635474E+01  0.67848782237E+01  0.49890726342E+01  0.88765555833E+01  0.51100000000E-03 0. -1.
        -11    1    3    3    0    0  0.31419695189E+02  0.67324941086E+01  0.19708621468E+02  0.37695536647E+02  0.51100000000E-03 0.  1.
         12    1    3    3    0    0 -0.33949909890E+02 -0.12630002780E+02 -0.23969649235E+02  0.43435670091E+02  0.00000000000E+00 0. -1.
</event>
<event>
 7    1  0.1999542E-015  0.9000801E+02  0.7816164E-02  0.1186339E+00
        -11   -1    0    0    0    0  0.00000000000E+00  0.00000000000E+00  0.45593999997E+02  0.45594000000E+02  0.51100000000E-03 0. -1.
         11   -1    0    0    0    0 -0.00000000000E+00 -0.00000000000E+00 -0.45593999997E+02  0.45594000000E+02  0.51100000000E-03 0.  1.
    9900012    2    1    2    0    0 -0.85185930378E+00 -0.47287684244E+00 -0.66566450766E+00  0.90008005924E+02  0.90000270802E+02 0.  0.
         12    1    1    2    0    0  0.85185930378E+00  0.47287684244E+00  0.66566450766E+00  0.11799940755E+01  0.00000000000E+00 0. -1.
         11    1    3    3    0    0  0.24202684382E+01  0.46946843301E+01 -0.24250880192E+01  0.58119542698E+01  0.51100000000E-03 0. -1.
        -11    1    3    3    0    0  0.74863315021E+00  0.38137978009E+02  0.11069352285E+02  0.39718967490E+02  0.51100000000E-03 0.  1.
         12    1    3    3    0    0 -0.40207608922E+01 -0.43305539182E+02 -0.93099287730E+01  0.44477084164E+02  0.00000000000E+00 0. -1.
</event>
<event>
 7    1  0.1999542E-015  0.9000767E+02  0.7816164E-02  0.1186339E+00
        -11   -1    0    0    0    0  0.00000000000E+00  0.00000000000E+00  0.45593999997E+02  0.45594000000E+02  0.51100000000E-03 0.  1.
         11   -1    0    0    0    0 -0.00000000000E+00 -0.00000000000E+00 -0.45593999997E+02  0.45594000000E+02  0.51100000000E-03 0. -1.
    9900012    2    1    2    0    0 -0.79127462775E+00 -0.82229766073E+00 -0.30147914993E+00  0.90007670107E+02  0.89999930552E+02 0.  0.
         12    1    1    2    0    0  0.79127462775E+00  0.82229766073E+00  0.30147914993E+00  0.11803298934E+01  0.00000000000E+00 0. -1.
         11    1    3    3    0    0 -0.17743625138E+01  0.99048760525E+01  0.38300552197E+01  0.10766812676E+02  0.51100000000E-03 0. -1.
        -11    1    3    3    0    0 -0.13636425788E+02  0.18670127483E+02  0.25919485067E+02  0.34732484433E+02  0.51100000000E-03 0.  1.
         12    1    3    3    0    0  0.14619513674E+02 -0.29397301197E+02 -0.30051019437E+02  0.44508372998E+02  0.00000000000E+00 0. -1.
</event>
<event>
 7    1  0.1999542E-015  0.9000785E+02  0.7816164E-02  0.1186339E+00
        -11   -1    0    0    0    0  0.00000000000E+00  0.00000000000E+00  0.45593999997E+02  0.45594000000E+02  0.51100000000E-03 0.  1.
         11   -1    0    0    0    0 -0.00000000000E+00 -0.00000000000E+00 -0.45593999997E+02  0.45594000000E+02  0.51100000000E-03 0. -1.
    9900012    2    1    2    0    0 -0.39898245847E+00  0.51421964626E+00  0.98444817211E+00  0.90007852954E+02  0.90000115813E+02 0.  0.
         12    1    1    2    0    0  0.39898245847E+00 -0.51421964626E+00 -0.98444817211E+00  0.11801470461E+01  0.00000000000E+00 0. -1.
         11    1    3    3    0    0 -0.59826329172E+00 -0.18126769267E+02  0.59942547037E+01  0.19101538492E+02  0.51100000000E-03 0. -1.
        -11    1    3    3    0    0  0.27732505752E+01 -0.10587523353E+02  0.26003286196E+02  0.28212718103E+02  0.51100000000E-03 0.  1.
         12    1    3    3    0    0 -0.25739697420E+01  0.29228512266E+02 -0.31013092728E+02  0.42693596359E+02  0.00000000000E+00 0. -1.
</event>
<event>
 7    1  0.1999542E-015  0.9000774E+02  0.7816164E-02  0.1186339E+00
        -11   -1    0    0    0    0  0.00000000000E+00  0.00000000000E+00  0.45593999997E+02  0.45594000000E+02  0.51100000000E-03 0.  1.
         11   -1    0    0    0    0 -0.00000000000E+00 -0.00000000000E+00 -0.45593999997E+02  0.45594000000E+02  0.51100000000E-03 0. -1.
    9900012    2    1    2    0    0 -0.29705212506E-01 -0.62699196708E-01  0.11782210477E+01  0.90007737984E+02  0.89999999326E+02 0.  0.
         12    1    1    2    0    0  0.29705212506E-01  0.62699196708E-01 -0.11782210477E+01  0.11802620159E+01  0.00000000000E+00 0. -1.
         11    1    3    3    0    0  0.28593288408E+02  0.10283189629E+02  0.14984159748E+02  0.33879863851E+02  0.51100000000E-03 0. -1.
        -11    1    3    3    0    0 -0.12499422504E+02  0.17663160718E+01  0.15851380373E+02  0.20263802590E+02  0.51100000000E-03 0.  1.
         12    1    3    3    0    0 -0.16123571117E+02 -0.12112204898E+02 -0.29657319074E+02  0.35864071543E+02  0.00000000000E+00 0. -1.
</event>
<event>
 7    1  0.1999542E-015  0.9000725E+02  0.7816164E-02  0.1186340E+00
        -11   -1    0    0    0    0  0.00000000000E+00  0.00000000000E+00  0.45593999997E+02  0.45594000000E+02  0.51100000000E-03 0.  1.
         11   -1    0    0    0    0 -0.00000000000E+00 -0.00000000000E+00 -0.45593999997E+02  0.45594000000E+02  0.51100000000E-03 0. -1.
    9900012    2    1    2    0    0 -0.47235970066E+00  0.79130571859E+00  0.73815762935E+00  0.90007252308E+02  0.89999507237E+02 0.  0.
         12    1    1    2    0    0  0.47235970066E+00 -0.79130571859E+00 -0.73815762935E+00  0.11807476923E+01  0.00000000000E+00 0. -1.
         11    1    3    3    0    0 -0.98226690060E+01 -0.40133821698E+00  0.18620680981E+01  0.10005658231E+02  0.51100000000E-03 0. -1.
        -11    1    3    3    0    0 -0.10274977370E+02 -0.36149365940E+02  0.24792230766E+01  0.37662957467E+02  0.51100000000E-03 0.  1.
         12    1    3    3    0    0  0.19625286675E+02  0.37342009876E+02 -0.36031335454E+01  0.42338636610E+02  0.00000000000E+00 0. -1.
</event>
<event>
 7    1  0.1999542E-015  0.9000776E+02  0.7816164E-02  0.1186339E+00
        -11   -1    0    0    0    0  0.00000000000E+00  0.00000000000E+00  0.45593999997E+02  0.45594000000E+02  0.51100000000E-03 0. -1.
         11   -1    0    0    0    0 -0.00000000000E+00 -0.00000000000E+00 -0.45593999997E+02  0.45594000000E+02  0.51100000000E-03 0.  1.
    9900012    2    1    2    0    0 -0.96151704452E+00  0.63803289442E+00  0.24772545831E+00  0.90007758964E+02  0.90000020582E+02 0.  0.
         12    1    1    2    0    0  0.96151704452E+00 -0.63803289442E+00 -0.24772545831E+00  0.11802410364E+01  0.00000000000E+00 0. -1.
         11    1    3    3    0    0  0.91242323665E+01  0.45834739141E+00  0.19123941892E+01  0.93337532860E+01  0.51100000000E-03 0. -1.
        -11    1    3    3    0    0  0.22116320883E+02 -0.12165739345E+02 -0.27690283958E+02  0.37468502627E+02  0.51100000000E-03 0.  1.
         12    1    3    3    0    0 -0.32202070294E+02  0.12345424848E+02  0.26025615227E+02  0.43205503050E+02  0.00000000000E+00 0. -1.
</event>
<event>
 7    1  0.1999542E-015  0.9000788E+02  0.7816164E-02  0.1186339E+00
        -11   -1    0    0    0    0  0.00000000000E+00  0.00000000000E+00  0.45593999997E+02  0.45594000000E+02  0.51100000000E-03 0.  1.
         11   -1    0    0    0    0 -0.00000000000E+00 -0.00000000000E+00 -0.45593999997E+02  0.45594000000E+02  0.51100000000E-03 0. -1.
    9900012    2    1    2    0    0 -0.53108835210E+00  0.10489207716E+01  0.10200470558E+00  0.90007875183E+02  0.90000138336E+02 0.  0.
         12    1    1    2    0    0  0.53108835210E+00 -0.10489207716E+01 -0.10200470558E+00  0.11801248166E+01  0.00000000000E+00 0. -1.
         11    1    3    3    0    0 -0.13387113358E+01 -0.81114339837E+01  0.38291910083E+01  0.90691903361E+01  0.51100000000E-03 0. -1.
        -11    1    3    3    0    0 -0.17174816273E+02  0.16483451042E+02  0.32233565742E+02  0.40070952484E+02  0.51100000000E-03 0.  1.
         12    1    3    3    0    0  0.17982439257E+02 -0.73230962870E+01 -0.35960752045E+02  0.40867732363E+02  0.00000000000E+00 0. -1.
</event>
<event>
 7    1  0.1999542E-015  0.9000763E+02  0.7816164E-02  0.1186339E+00
        -11   -1    0    0    0    0  0.00000000000E+00  0.00000000000E+00  0.45593999997E+02  0.45594000000E+02  0.51100000000E-03 0. -1.
         11   -1    0    0    0    0 -0.00000000000E+00 -0.00000000000E+00 -0.45593999997E+02  0.45594000000E+02  0.51100000000E-03 0.  1.
    9900012    2    1    2    0    0 -0.18717403955E+00  0.11610153984E+01  0.10138540152E+00  0.90007631466E+02  0.89999891401E+02 0.  0.
         12    1    1    2    0    0  0.18717403955E+00 -0.11610153984E+01 -0.10138540152E+00  0.11803685340E+01  0.00000000000E+00 0. -1.
         11    1    3    3    0    0 -0.11307415711E+02 -0.29329797960E+01  0.37733485222E+02  0.39500328198E+02  0.51100000000E-03 0. -1.
        -11    1    3    3    0    0 -0.68132562516E+01  0.83308285974E-01  0.17619791928E+01  0.70378954211E+01  0.51100000000E-03 0.  1.
        -12    1    3    3    0    0  0.17933497923E+02  0.40106869084E+01 -0.39394079013E+02  0.43469407846E+02  0.00000000000E+00 0.  1.
</event>
<event>
 7    1  0.1999542E-015  0.9000771E+02  0.7816164E-02  0.1186339E+00
        -11   -1    0    0    0    0  0.00000000000E+00  0.00000000000E+00  0.45593999997E+02  0.45594000000E+02  0.51100000000E-03 0.  1.
         11   -1    0    0    0    0 -0.00000000000E+00 -0.00000000000E+00 -0.45593999997E+02  0.45594000000E+02  0.51100000000E-03 0. -1.
    9900012    2    1    2    0    0  0.95066376961E+00 -0.62237329873E+00  0.31934598093E+00  0.90007706824E+02  0.89999967754E+02 0.  0.
         12    1    1    2    0    0 -0.95066376961E+00  0.62237329873E+00 -0.31934598093E+00  0.11802931760E+01  0.00000000000E+00 0. -1.
         11    1    3    3    0    0  0.10174134221E+02 -0.33781180870E+02  0.14367553885E+02  0.38093408787E+02  0.51100000000E-03 0. -1.
        -11    1    3    3    0    0  0.66737430551E+01 -0.45027913785E+01 -0.64928059402E+01  0.10342654679E+02  0.51100000000E-03 0.  1.
        -12    1    3    3    0    0 -0.15897213506E+02  0.37661598950E+02 -0.75554019637E+01  0.41571643359E+02  0.00000000000E+00 0.  1.
</event>
<event>
 7    1  0.1999542E-015  0.9000772E+02  0.7816164E-02  0.1186339E+00
        -11   -1    0    0    0    0  0.00000000000E+00  0.00000000000E+00  0.45593999997E+02  0.45594000000E+02  0.51100000000E-03 0.  1.
         11   -1    0    0    0    0 -0.00000000000E+00 -0.00000000000E+00 -0.45593999997E+02  0.45594000000E+02  0.51100000000E-03 0. -1.
    9900012    2    1    2    0    0  0.74992164714E+00  0.57855082708E+00  0.70424468578E+00  0.90007718629E+02  0.89999979715E+02 0.  0.
         12    1    1    2    0    0 -0.74992164714E+00 -0.57855082708E+00 -0.70424468578E+00  0.11802813706E+01  0.00000000000E+00 0. -1.
         11    1    3    3    0    0  0.31736413872E+02 -0.87441444291E+01 -0.16790520808E+02  0.36953776756E+02  0.51100000000E-03 0. -1.
        -11    1    3    3    0    0  0.60586954726E+01  0.55115178349E+01 -0.49522764540E+01  0.95712936436E+01  0.51100000000E-03 0.  1.
        -12    1    3    3    0    0 -0.37045187698E+02  0.38111774213E+01  0.22447041948E+02  0.43482648230E+02  0.00000000000E+00 0.  1.
</event>
<event>
 7    1  0.1999542E-015  0.9000774E+02  0.7816164E-02  0.1186339E+00
        -11   -1    0    0    0    0  0.00000000000E+00  0.00000000000E+00  0.45593999997E+02  0.45594000000E+02  0.51100000000E-03 0.  1.
         11   -1    0    0    0    0 -0.00000000000E+00 -0.00000000000E+00 -0.45593999997E+02  0.45594000000E+02  0.51100000000E-03 0. -1.
    9900012    2    1    2    0    0  0.86052334676E+00 -0.28522705137E+00  0.75574719695E+00  0.90007742093E+02  0.90000003489E+02 0.  0.
         12    1    1    2    0    0 -0.86052334676E+00  0.28522705137E+00 -0.75574719695E+00  0.11802579069E+01  0.00000000000E+00 0. -1.
         11    1    3    3    0    0  0.75924822152E+01  0.97713571613E+01 -0.17808432862E+01  0.12501864262E+02  0.51100000000E-03 0. -1.
        -11    1    3    3    0    0  0.33568512130E+02 -0.16401726417E+01  0.11216574858E+02  0.35430872481E+02  0.51100000000E-03 0.  1.
         12    1    3    3    0    0 -0.40300470999E+02 -0.84164115710E+01 -0.86799843749E+01  0.42075005350E+02  0.00000000000E+00 0. -1.
</event>
<event>
 7    1  0.1999542E-015  0.9000776E+02  0.7816164E-02  0.1186339E+00
        -11   -1    0    0    0    0  0.00000000000E+00  0.00000000000E+00  0.45593999997E+02  0.45594000000E+02  0.51100000000E-03 0. -1.
         11   -1    0    0    0    0 -0.00000000000E+00 -0.00000000000E+00 -0.45593999997E+02  0.45594000000E+02  0.51100000000E-03 0.  1.
    9900012    2    1    2    0    0  0.36315511754E+00  0.93333235913E+00 -0.62447160749E+00  0.90007764549E+02  0.90000026241E+02 0.  0.
         12    1    1    2    0    0 -0.36315511754E+00 -0.93333235913E+00  0.62447160749E+00  0.11802354513E+01  0.00000000000E+00 0. -1.
         11    1    3    3    0    0  0.14380866295E+02 -0.50497891164E+01  0.17248070698E+02  0.23017507002E+02  0.51100000000E-03 0. -1.
        -11    1    3    3    0    0  0.23450598902E+02 -0.76384375630E+01 -0.58190727318E+01  0.25340440505E+02  0.51100000000E-03 0.  1.
         12    1    3    3    0    0 -0.37468310079E+02  0.13621559039E+02 -0.12053469574E+02  0.41649817042E+02  0.00000000000E+00 0. -1.
</event>
<event>
 7    1  0.1999542E-015  0.9000804E+02  0.7816164E-02  0.1186338E+00
        -11   -1    0    0    0    0  0.00000000000E+00  0.00000000000E+00  0.45593999997E+02  0.45594000000E+02  0.51100000000E-03 0.  1.
         11   -1    0    0    0    0 -0.00000000000E+00 -0.00000000000E+00 -0.45593999997E+02  0.45594000000E+02  0.51100000000E-03 0. -1.
    9900012    2    1    2    0    0 -0.10181850699E+01  0.68730777882E-01 -0.59234750429E+00  0.90008042237E+02  0.90000307594E+02 0.  0.
         12    1    1    2    0    0  0.10181850699E+01 -0.68730777882E-01  0.59234750429E+00  0.11799577629E+01  0.00000000000E+00 0. -1.
         11    1    3    3    0    0  0.33304550836E+02  0.21958956824E+02  0.59081301139E+01  0.40327346713E+02  0.51100000000E-03 0. -1.
        -11    1    3    3    0    0 -0.63067213721E+00  0.20378161000E+01 -0.80494119379E+01  0.83272729395E+01  0.51100000000E-03 0.  1.
        -12    1    3    3    0    0 -0.33692063769E+02 -0.23928042146E+02  0.15489343197E+01  0.41353422585E+02  0.00000000000E+00 0.  1.
</event>
<event>
 7    1  0.1999542E-015  0.9000767E+02  0.7816164E-02  0.1186339E+00
        -11   -1    0    0    0    0  0.00000000000E+00  0.00000000000E+00  0.45593999997E+02  0.45594000000E+02  0.51100000000E-03 0.  1.
         11   -1    0    0    0    0 -0.00000000000E+00 -0.00000000000E+00 -0.45593999997E+02  0.45594000000E+02  0.51100000000E-03 0. -1.
    9900012    2    1    2    0    0  0.79686403868E+00  0.85734751096E+00 -0.15210835755E+00  0.90007672078E+02  0.89999932550E+02 0.  0.
         12    1    1    2    0    0 -0.79686403868E+00 -0.85734751096E+00  0.15210835755E+00  0.11803279219E+01  0.00000000000E+00 0. -1.
         11    1    3    3    0    0  0.37614594223E+02  0.44345166372E+01 -0.96865425424E+01  0.39094139498E+02  0.51100000000E-03 0. -1.
        -11    1    3    3    0    0  0.12723868509E+01  0.95812457535E+01  0.96349902555E+00  0.97132676850E+01  0.51100000000E-03 0.  1.
        -12    1    3    3    0    0 -0.38090117036E+02 -0.13158414880E+02  0.85709351593E+01  0.41200264895E+02  0.00000000000E+00 0.  1.
</event>
<event>
 7    1  0.1999542E-015  0.9000781E+02  0.7816164E-02  0.1186339E+00
        -11   -1    0    0    0    0  0.00000000000E+00  0.00000000000E+00  0.45593999997E+02  0.45594000000E+02  0.51100000000E-03 0.  1.
         11   -1    0    0    0    0 -0.00000000000E+00 -0.00000000000E+00 -0.45593999997E+02  0.45594000000E+02  0.51100000000E-03 0. -1.
    9900012    2    1    2    0    0  0.68469435472E+00  0.35284192949E+00 -0.89417235412E+00  0.90007810191E+02  0.90000072485E+02 0.  0.
         12    1    1    2    0    0 -0.68469435472E+00 -0.35284192949E+00  0.89417235412E+00  0.11801898091E+01  0.00000000000E+00 0. -1.
         11    1    3    3    0    0  0.89336631068E+01 -0.54363483934E+01 -0.36312627821E+02  0.37788505658E+02  0.51100000000E-03 0. -1.
        -11    1    3    3    0    0 -0.79234890712E+01  0.14700290776E+01 -0.63295307453E+01  0.10247225198E+02  0.51100000000E-03 0.  1.
        -12    1    3    3    0    0 -0.32547968090E+00  0.43191612453E+01  0.41747986212E+02  0.41972079334E+02  0.00000000000E+00 0.  1.
</event>
<event>
 7    1  0.1999542E-015  0.9000778E+02  0.7816164E-02  0.1186339E+00
        -11   -1    0    0    0    0  0.00000000000E+00  0.00000000000E+00  0.45593999997E+02  0.45594000000E+02  0.51100000000E-03 0. -1.
         11   -1    0    0    0    0 -0.00000000000E+00 -0.00000000000E+00 -0.45593999997E+02  0.45594000000E+02  0.51100000000E-03 0.  1.
    9900012    2    1    2    0    0 -0.63514909600E+00  0.20606961014E+00 -0.97315655310E+00  0.90007782759E+02  0.90000044692E+02 0.  0.
         12    1    1    2    0    0  0.63514909600E+00 -0.20606961014E+00  0.97315655310E+00  0.11802172407E+01  0.00000000000E+00 0. -1.
         11    1    3    3    0    0  0.72035197141E+01  0.84660132390E+00  0.63161530770E+01  0.96177554568E+01  0.51100000000E-03 0. -1.
        -11    1    3    3    0    0  0.23861080134E+02 -0.63906929954E+01 -0.31542816969E+02  0.40064216013E+02  0.51100000000E-03 0.  1.
         12    1    3    3    0    0 -0.31699748944E+02  0.57501612816E+01  0.24253507339E+02  0.40325811289E+02  0.00000000000E+00 0. -1.
</event>
<event>
 7    1  0.1999542E-015  0.9000858E+02  0.7816164E-02  0.1186337E+00
        -11   -1    0    0    0    0  0.00000000000E+00  0.00000000000E+00  0.45593999997E+02  0.45594000000E+02  0.51100000000E-03 0. -1.
         11   -1    0    0    0    0 -0.00000000000E+00 -0.00000000000E+00 -0.45593999997E+02  0.45594000000E+02  0.51100000000E-03 0.  1.
    9900012    2    1    2    0    0 -0.88637777616E+00 -0.13749561361E+00 -0.76580028406E+00  0.90008584602E+02  0.90000857115E+02 0.  0.
         12    1    1    2    0    0  0.88637777616E+00  0.13749561361E+00  0.76580028406E+00  0.11794153979E+01  0.00000000000E+00 0. -1.
         11    1    3    3    0    0  0.85256706473E+01  0.40356787805E+01 -0.72213186620E+01  0.11879444713E+02  0.51100000000E-03 0. -1.
        -11    1    3    3    0    0 -0.14339631269E+02  0.31436631373E+02 -0.13401292798E+02  0.37060510870E+02  0.51100000000E-03 0.  1.
         12    1    3    3    0    0  0.49275828458E+01 -0.35609805767E+02  0.19856811176E+02  0.41068629019E+02  0.00000000000E+00 0. -1.
</event>
<event>
 7    1  0.1999542E-015  0.9000760E+02  0.7816164E-02  0.1186339E+00
        -11   -1    0    0    0    0  0.00000000000E+00  0.00000000000E+00  0.45593999997E+02  0.45594000000E+02  0.51100000000E-03 0. -1.
         11   -1    0    0    0    0 -0.00000000000E+00 -0.00000000000E+00 -0.45593999997E+02  0.45594000000E+02  0.51100000000E-03 0.  1.
    9900012    2    1    2    0    0 -0.89524297048E+00  0.76769061330E+00  0.50276757078E-01  0.90007603200E+02  0.89999862762E+02 0.  0.
         12    1    1    2    0    0  0.89524297048E+00 -0.76769061330E+00 -0.50276757078E-01  0.11803968003E+01  0.00000000000E+00 0. -1.
         11    1    3    3    0    0  0.61435878308E+01 -0.17663776574E+02  0.26485286794E+02  0.32422570705E+02  0.51100000000E-03 0. -1.
        -11    1    3    3    0    0  0.57352678621E+01 -0.77266873791E+01  0.79859254103E+01  0.12504799088E+02  0.51100000000E-03 0.  1.
        -12    1    3    3    0    0 -0.12774098663E+02  0.26158154566E+02 -0.34420935447E+02  0.45080233407E+02  0.00000000000E+00 0.  1.
</event>
<event>
 7    1  0.1999542E-015  0.9000774E+02  0.7816164E-02  0.1186339E+00
        -11   -1    0    0    0    0  0.00000000000E+00  0.00000000000E+00  0.45593999997E+02  0.45594000000E+02  0.51100000000E-03 0. -1.
         11   -1    0    0    0    0 -0.00000000000E+00 -0.00000000000E+00 -0.45593999997E+02  0.45594000000E+02  0.51100000000E-03 0.  1.
    9900012    2    1    2    0    0 -0.10027988884E+01 -0.23408145336E+00 -0.57672622862E+00  0.90007740334E+02  0.90000001706E+02 0.  0.
         12    1    1    2    0    0  0.10027988884E+01  0.23408145336E+00  0.57672622862E+00  0.11802596664E+01  0.00000000000E+00 0. -1.
         11    1    3    3    0    0  0.33391584004E+02 -0.18279679779E+02  0.53203022761E+01  0.38437614282E+02  0.51100000000E-03 0. -1.
        -11    1    3    3    0    0  0.20725632889E+01 -0.76643137813E+00 -0.10084465684E+02  0.10323729173E+02  0.51100000000E-03 0.  1.
        -12    1    3    3    0    0 -0.36466946181E+02  0.18812029704E+02  0.41874371790E+01  0.41246396879E+02  0.00000000000E+00 0.  1.
</event>
<event>
 7    1  0.1999542E-015  0.9000774E+02  0.7816164E-02  0.1186339E+00
        -11   -1    0    0    0    0  0.00000000000E+00  0.00000000000E+00  0.45593999997E+02  0.45594000000E+02  0.51100000000E-03 0. -1.
         11   -1    0    0    0    0 -0.00000000000E+00 -0.00000000000E+00 -0.45593999997E+02  0.45594000000E+02  0.51100000000E-03 0.  1.
    9900012    2    1    2    0    0  0.69753897825E+00 -0.82790120787E+00  0.47013196357E+00  0.90007743630E+02  0.90000005046E+02 0.  0.
         12    1    1    2    0    0 -0.69753897825E+00  0.82790120787E+00 -0.47013196357E+00  0.11802563702E+01  0.00000000000E+00 0. -1.
         11    1    3    3    0    0  0.34953151732E+02 -0.11279471796E+00 -0.19164427010E+02  0.39862398341E+02  0.51100000000E-03 0. -1.
        -11    1    3    3    0    0 -0.19237282351E+01 -0.11800272744E+02  0.54457559867E+01  0.13137862295E+02  0.51100000000E-03 0.  1.
        -12    1    3    3    0    0 -0.32331884518E+02  0.11085166254E+02  0.14188802987E+02  0.37007482994E+02  0.00000000000E+00 0.  1.
</event>
<event>
 7    1  0.1999542E-015  0.9000775E+02  0.7816164E-02  0.1186339E+00
        -11   -1    0    0    0    0  0.00000000000E+00  0.00000000000E+00  0.45593999997E+02  0.45594000000E+02  0.51100000000E-03 0.  1.
         11   -1    0    0    0    0 -0.00000000000E+00 -0.00000000000E+00 -0.45593999997E+02  0.45594000000E+02  0.51100000000E-03 0. -1.
    9900012    2    1    2    0    0  0.68142192356E+00  0.12782839196E+00  0.95515585985E+00  0.90007746361E+02  0.90000007813E+02 0.  0.
         12    1    1    2    0    0 -0.68142192356E+00 -0.12782839196E+00 -0.95515585985E+00  0.11802536390E+01  0.00000000000E+00 0. -1.
         11    1    3    3    0    0 -0.73575334121E+01  0.21215571448E+01 -0.70762167046E+00  0.76899305146E+01  0.51100000000E-03 0. -1.
        -11    1    3    3    0    0 -0.34178222430E+02 -0.81879217703E+01  0.14107293199E+02  0.37870947612E+02  0.51100000000E-03 0.  1.
         12    1    3    3    0    0  0.42217177765E+02  0.61941930175E+01 -0.12444515669E+02  0.44446868234E+02  0.00000000000E+00 0. -1.
</event>
<event>
 7    1  0.1999542E-015  0.9000776E+02  0.7816164E-02  0.1186339E+00
        -11   -1    0    0    0    0  0.00000000000E+00  0.00000000000E+00  0.45593999997E+02  0.45594000000E+02  0.51100000000E-03 0. -1.
         11   -1    0    0    0    0 -0.00000000000E+00 -0.00000000000E+00 -0.45593999997E+02  0.45594000000E+02  0.51100000000E-03 0.  1.
    9900012    2    1    2    0    0 -0.89536423157E+00  0.46711893638E+00  0.61081869124E+00  0.90007755669E+02  0.90000017244E+02 0.  0.
         12    1    1    2    0    0  0.89536423157E+00 -0.46711893638E+00 -0.61081869124E+00  0.11802443313E+01  0.00000000000E+00 0. -1.
         11    1    3    3    0    0  0.17152747199E+02 -0.12060993203E+02  0.37649217894E+02  0.43094638898E+02  0.51100000000E-03 0. -1.
        -11    1    3    3    0    0 -0.19613200443E+01  0.10727480868E+02 -0.75170147471E+01  0.13245041829E+02  0.51100000000E-03 0.  1.
        -12    1    3    3    0    0 -0.16086791386E+02  0.18006312710E+01 -0.29521384455E+02  0.33668074941E+02  0.00000000000E+00 0.  1.
</event>
<event>
 7    1  0.1999542E-015  0.9000769E+02  0.7816164E-02  0.1186339E+00
        -11   -1    0    0    0    0  0.00000000000E+00  0.00000000000E+00  0.45593999997E+02  0.45594000000E+02  0.51100000000E-03 0. -1.
         11   -1    0    0    0    0 -0.00000000000E+00 -0.00000000000E+00 -0.45593999997E+02  0.45594000000E+02  0.51100000000E-03 0.  1.
    9900012    2    1    2    0    0 -0.10696963762E+01  0.13552893132E+00 -0.48012533484E+00  0.90007687005E+02  0.89999947674E+02 0.  0.
         12    1    1    2    0    0  0.10696963762E+01 -0.13552893132E+00  0.48012533484E+00  0.11803129948E+01  0.00000000000E+00 0. -1.
         11    1    3    3    0    0  0.75604146081E+01 -0.43019208948E+01  0.34931389559E+00  0.87056540759E+01  0.51100000000E-03 0. -1.
        -11    1    3    3    0    0  0.36072479063E+02 -0.69302247529E+00  0.26188654692E+01  0.36174058143E+02  0.51100000000E-03 0.  1.
         12    1    3    3    0    0 -0.44702590048E+02  0.51304723014E+01 -0.34483046996E+01  0.45127974786E+02  0.00000000000E+00 0. -1.
</event>
<event>
 7    1  0.1999542E-015  0.9000801E+02  0.7816164E-02  0.1186339E+00
        -11   -1    0    0    0    0  0.00000000000E+00  0.00000000000E+00  0.45593999997E+02  0.45594000000E+02  0.51100000000E-03 0.  1.
         11   -1    0    0    0    0 -0.00000000000E+00 -0.00000000000E+00 -0.45593999997E+02  0.45594000000E+02  0.51100000000E-03 0. -1.
    9900012    2    1    2    0    0 -0.11004672231E+01 -0.42485801722E+00  0.29234284797E-01  0.90008005471E+02  0.90000270343E+02 0.  0.
         12    1    1    2    0    0  0.11004672231E+01  0.42485801722E+00 -0.29234284797E-01  0.11799945285E+01  0.00000000000E+00 0. -1.
         11    1    3    3    0    0  0.88852519852E+00 -0.88065190166E+01  0.41478349813E+01  0.97749061126E+01  0.51100000000E-03 0. -1.
        -11    1    3    3    0    0  0.18584964919E+02 -0.19698289442E+02  0.23453618103E+02  0.35825908647E+02  0.51100000000E-03 0.  1.
         12    1    3    3    0    0 -0.20573957341E+02  0.28079950441E+02 -0.27572218799E+02  0.44407190712E+02  0.00000000000E+00 0. -1.
</event>
<event>
 7    1  0.1999542E-015  0.9000752E+02  0.7816164E-02  0.1186339E+00
        -11   -1    0    0    0    0  0.00000000000E+00  0.00000000000E+00  0.45593999997E+02  0.45594000000E+02  0.51100000000E-03 0. -1.
         11   -1    0    0    0    0 -0.00000000000E+00 -0.00000000000E+00 -0.45593999997E+02  0.45594000000E+02  0.51100000000E-03 0.  1.
    9900012    2    1    2    0    0  0.75511835889E+00  0.29595112957E+00  0.85775694574E+00  0.90007517986E+02  0.89999776423E+02 0.  0.
         12    1    1    2    0    0 -0.75511835889E+00 -0.29595112957E+00 -0.85775694574E+00  0.11804820138E+01  0.00000000000E+00 0. -1.
         11    1    3    3    0    0 -0.80266492481E+01 -0.19157300921E+01  0.39230224195E+01  0.91371344032E+01  0.51100000000E-03 0. -1.
        -11    1    3    3    0    0 -0.38318188338E+01 -0.36774019000E+02 -0.12115186500E+02  0.38907442131E+02  0.51100000000E-03 0.  1.
         12    1    3    3    0    0  0.12613586441E+02  0.38985700222E+02  0.90499210265E+01  0.41962941452E+02  0.00000000000E+00 0. -1.
</event>
<event>
 7    1  0.1999542E-015  0.9000776E+02  0.7816164E-02  0.1186339E+00
        -11   -1    0    0    0    0  0.00000000000E+00  0.00000000000E+00  0.45593999997E+02  0.45594000000E+02  0.51100000000E-03 0.  1.
         11   -1    0    0    0    0 -0.00000000000E+00 -0.00000000000E+00 -0.45593999997E+02  0.45594000000E+02  0.51100000000E-03 0. -1.
    9900012    2    1    2    0    0  0.11197251885E+01  0.16871876914E+00 -0.33275565425E+00  0.90007755599E+02  0.90000017173E+02 0.  0.
         12    1    1    2    0    0 -0.11197251885E+01 -0.16871876914E+00  0.33275565425E+00  0.11802444011E+01  0.00000000000E+00 0. -1.
         11    1    3    3    0    0  0.86083772592E+01 -0.37357234454E+01 -0.23631861010E+02  0.25426848876E+02  0.51100000000E-03 0. -1.
        -11    1    3    3    0    0 -0.19047921969E+01 -0.26144000709E+02  0.10494999043E+00  0.26213508371E+02  0.51100000000E-03 0.  1.
        -12    1    3    3    0    0 -0.55838598737E+01  0.30048442923E+02  0.23194155365E+02  0.38367398352E+02  0.00000000000E+00 0.  1.
</event>
<event>
 7    1  0.1999542E-015  0.9000786E+02  0.7816164E-02  0.1186339E+00
        -11   -1    0    0    0    0  0.00000000000E+00  0.00000000000E+00  0.45593999997E+02  0.45594000000E+02  0.51100000000E-03 0. -1.
         11   -1    0    0    0    0 -0.00000000000E+00 -0.00000000000E+00 -0.45593999997E+02  0.45594000000E+02  0.51100000000E-03 0.  1.
    9900012    2    1    2    0    0 -0.13876531103E+00 -0.63016832744E+00 -0.98811104149E+00  0.90007859600E+02  0.90000122547E+02 0.  0.
         12    1    1    2    0    0  0.13876531103E+00  0.63016832744E+00  0.98811104149E+00  0.11801403996E+01  0.00000000000E+00 0. -1.
         11    1    3    3    0    0 -0.64436135816E+01  0.40111439897E+01  0.47362974160E+01  0.89466164313E+01  0.51100000000E-03 0. -1.
        -11    1    3    3    0    0 -0.23381175300E+02 -0.32468284549E+02 -0.53781589480E+01  0.40370700438E+02  0.51100000000E-03 0.  1.
         12    1    3    3    0    0  0.29686023570E+02  0.27826972232E+02 -0.34624950946E+00  0.40690542731E+02  0.00000000000E+00 0. -1.
</event>
<event>
 7    1  0.1999542E-015  0.9000759E+02  0.7816164E-02  0.1186339E+00
        -11   -1    0    0    0    0  0.00000000000E+00  0.00000000000E+00  0.45593999997E+02  0.45594000000E+02  0.51100000000E-03 0. -1.
         11   -1    0    0    0    0 -0.00000000000E+00 -0.00000000000E+00 -0.45593999997E+02  0.45594000000E+02  0.51100000000E-03 0.  1.
    9900012    2    1    2    0    0 -0.47035654990E+00  0.88738823720E+00 -0.62021510049E+00  0.90007593317E+02  0.89999852748E+02 0.  0.
         12    1    1    2    0    0  0.47035654990E+00 -0.88738823720E+00  0.62021510049E+00  0.11804066835E+01  0.00000000000E+00 0. -1.
         11    1    3    3    0    0  0.27262931530E+02 -0.11310957565E+02  0.24359232915E+02  0.38269797819E+02  0.51100000000E-03 0. -1.
        -11    1    3    3    0    0 -0.20208409727E+01  0.73979693348E+01  0.70278175056E+01  0.10402113615E+02  0.51100000000E-03 0.  1.
        -12    1    3    3    0    0 -0.25712447107E+02  0.48003764671E+01 -0.32007265521E+02  0.41335681882E+02  0.00000000000E+00 0.  1.
</event>
<event>
 7    1  0.1999542E-015  0.9000764E+02  0.7816164E-02  0.1186339E+00
        -11   -1    0    0    0    0  0.00000000000E+00  0.00000000000E+00  0.45593999997E+02  0.45594000000E+02  0.51100000000E-03 0.  1.
         11   -1    0    0    0    0 -0.00000000000E+00 -0.00000000000E+00 -0.45593999997E+02  0.45594000000E+02  0.51100000000E-03 0. -1.
    9900012    2    1    2    0    0  0.59761789648E+00  0.76153000160E-01  0.10150390089E+01  0.90007639623E+02  0.89999899666E+02 0.  0.
         12    1    1    2    0    0 -0.59761789648E+00 -0.76153000160E-01 -0.10150390089E+01  0.11803603768E+01  0.00000000000E+00 0. -1.
         11    1    3    3    0    0  0.79741030709E+01  0.26036124807E+01 -0.55003561319E+00  0.84064057225E+01  0.51100000000E-03 0. -1.
        -11    1    3    3    0    0  0.68384784578E+01 -0.27229788922E+02  0.30176468074E+02  0.41217052515E+02  0.51100000000E-03 0.  1.
         12    1    3    3    0    0 -0.14214963632E+02  0.24702329441E+02 -0.28611393452E+02  0.40384181385E+02  0.00000000000E+00 0. -1.
</event>
<event>
 7    1  0.1999542E-015  0.9000666E+02  0.7816164E-02  0.1186341E+00
        -11   -1    0    0    0    0  0.00000000000E+00  0.00000000000E+00  0.45593999997E+02  0.45594000000E+02  0.51100000000E-03 0.  1.
         11   -1    0    0    0    0 -0.00000000000E+00 -0.00000000000E+00 -0.45593999997E+02  0.45594000000E+02  0.51100000000E-03 0. -1.
    9900012    2    1    2    0    0  0.24745922415E+00 -0.64599787800E+00  0.95760732393E+00  0.90006661305E+02  0.89998908427E+02 0.  0.
         12    1    1    2    0    0 -0.24745922415E+00  0.64599787800E+00 -0.95760732393E+00  0.11813386952E+01  0.00000000000E+00 0. -1.
         11    1    3    3    0    0  0.62086091102E+01  0.14220517298E+01 -0.83397474178E+01  0.10493828923E+02  0.51100000000E-03 0. -1.
        -11    1    3    3    0    0 -0.17201115529E+01 -0.15873502158E+02 -0.32000492885E+02  0.35762527870E+02  0.51100000000E-03 0.  1.
         12    1    3    3    0    0 -0.42410383332E+01  0.13805452550E+02  0.41297847627E+02  0.43750304512E+02  0.00000000000E+00 0. -1.
</event>
<event>
 7    1  0.1999542E-015  0.9000727E+02  0.7816164E-02  0.1186340E+00
        -11   -1    0    0    0    0  0.00000000000E+00  0.00000000000E+00  0.45593999997E+02  0.45594000000E+02  0.51100000000E-03 0. -1.
         11   -1    0    0    0    0 -0.00000000000E+00 -0.00000000000E+00 -0.45593999997E+02  0.45594000000E+02  0.51100000000E-03 0.  1.
    9900012    2    1    2    0    0  0.10024009014E+01  0.45598434753E+00  0.42590874037E+00  0.90007268215E+02  0.89999523354E+02 0.  0.
         12    1    1    2    0    0 -0.10024009014E+01 -0.45598434753E+00 -0.42590874037E+00  0.11807317847E+01  0.00000000000E+00 0. -1.
         11    1    3    3    0    0  0.60838379011E+01  0.87997592630E+01 -0.40723417531E+01  0.11446956552E+02  0.51100000000E-03 0. -1.
        -11    1    3    3    0    0 -0.16661307372E+01  0.17731615605E+02 -0.30177066655E+02  0.35040569855E+02  0.51100000000E-03 0.  1.
         12    1    3    3    0    0 -0.34153062625E+01 -0.26075390520E+02  0.34675317149E+02  0.43519741808E+02  0.00000000000E+00 0. -1.
</event>
<event>
 7    1  0.1999542E-015  0.9000774E+02  0.7816164E-02  0.1186339E+00
        -11   -1    0    0    0    0  0.00000000000E+00  0.00000000000E+00  0.45593999997E+02  0.45594000000E+02  0.51100000000E-03 0. -1.
         11   -1    0    0    0    0 -0.00000000000E+00 -0.00000000000E+00 -0.45593999997E+02  0.45594000000E+02  0.51100000000E-03 0.  1.
    9900012    2    1    2    0    0  0.11506347379E+01 -0.23830672168E+00 -0.11076541283E+00  0.90007737584E+02  0.89999998920E+02 0.  0.
         12    1    1    2    0    0 -0.11506347379E+01  0.23830672168E+00  0.11076541283E+00  0.11802624158E+01  0.00000000000E+00 0. -1.
         11    1    3    3    0    0 -0.10414451052E+01 -0.23145007577E+02  0.21914598509E+02  0.31890838993E+02  0.51100000000E-03 0. -1.
        -11    1    3    3    0    0  0.86040438699E+01 -0.12691093463E+02  0.78771761267E+00  0.15352977675E+02  0.51100000000E-03 0.  1.
        -12    1    3    3    0    0 -0.64119640268E+01  0.35597794318E+02 -0.22813081535E+02  0.42763920916E+02  0.00000000000E+00 0.  1.
</event>
<event>
 7    1  0.1999542E-015  0.9000772E+02  0.7816164E-02  0.1186339E+00
        -11   -1    0    0    0    0  0.00000000000E+00  0.00000000000E+00  0.45593999997E+02  0.45594000000E+02  0.51100000000E-03 0. -1.
         11   -1    0    0    0    0 -0.00000000000E+00 -0.00000000000E+00 -0.45593999997E+02  0.45594000000E+02  0.51100000000E-03 0.  1.
    9900012    2    1    2    0    0  0.11253040984E+01 -0.33002452884E+00 -0.13356869181E+00  0.90007717788E+02  0.89999978863E+02 0.  0.
         12    1    1    2    0    0 -0.11253040984E+01  0.33002452884E+00  0.13356869181E+00  0.11802822116E+01  0.00000000000E+00 0. -1.
         11    1    3    3    0    0  0.29945876910E+01  0.28514718202E+01  0.42231151261E+01  0.59104271089E+01  0.51100000000E-03 0. -1.
        -11    1    3    3    0    0 -0.86609776191E+00  0.29595591501E+02 -0.30239365973E+02  0.42321016249E+02  0.51100000000E-03 0.  1.
         12    1    3    3    0    0 -0.10031858307E+01 -0.32777087850E+02  0.25882682155E+02  0.41776274430E+02  0.00000000000E+00 0. -1.
</event>
<event>
 7    1  0.1999542E-015  0.9000763E+02  0.7816164E-02  0.1186339E+00
        -11   -1    0    0    0    0  0.00000000000E+00  0.00000000000E+00  0.45593999997E+02  0.45594000000E+02  0.51100000000E-03 0.  1.
         11   -1    0    0    0    0 -0.00000000000E+00 -0.00000000000E+00 -0.45593999997E+02  0.45594000000E+02  0.51100000000E-03 0. -1.
    9900012    2    1    2    0    0 -0.65326170010E-02 -0.20418829204E+00  0.11625616552E+01  0.90007625002E+02  0.89999884852E+02 0.  0.
         12    1    1    2    0    0  0.65326170010E-02  0.20418829204E+00 -0.11625616552E+01  0.11803749979E+01  0.00000000000E+00 0. -1.
         11    1    3    3    0    0  0.22738040347E+02 -0.78534335699E+01 -0.30397139007E+02  0.38764429026E+02  0.51100000000E-03 0. -1.
        -11    1    3    3    0    0  0.51381559671E+01  0.58538916386E+01 -0.15270323350E+01  0.79372868206E+01  0.51100000000E-03 0.  1.
        -12    1    3    3    0    0 -0.27882728931E+02  0.17953536393E+01  0.33086732997E+02  0.43305909155E+02  0.00000000000E+00 0.  1.
</event>
<event>
 7    1  0.1999542E-015  0.9000764E+02  0.7816164E-02  0.1186339E+00
        -11   -1    0    0    0    0  0.00000000000E+00  0.00000000000E+00  0.45593999997E+02  0.45594000000E+02  0.51100000000E-03 0.  1.
         11   -1    0    0    0    0 -0.00000000000E+00 -0.00000000000E+00 -0.45593999997E+02  0.45594000000E+02  0.51100000000E-03 0. -1.
    9900012    2    1    2    0    0  0.39246103638E+00 -0.46121683383E+00  0.10131598222E+01  0.90007644351E+02  0.89999904456E+02 0.  0.
         12    1    1    2    0    0 -0.39246103638E+00  0.46121683383E+00 -0.10131598222E+01  0.11803556490E+01  0.00000000000E+00 0. -1.
         11    1    3    3    0    0  0.57771127350E+01  0.38384094401E+01  0.34583743950E+01  0.77504046539E+01  0.51100000000E-03 0. -1.
        -11    1    3    3    0    0  0.32354827928E+02 -0.22745143486E+02  0.40324188168E+01  0.39754708454E+02  0.51100000000E-03 0.  1.
         12    1    3    3    0    0 -0.37739479627E+02  0.18445517213E+02 -0.64776333896E+01  0.42502531243E+02  0.00000000000E+00 0. -1.
</event>
<event>
 7    1  0.1999542E-015  0.9000777E+02  0.7816164E-02  0.1186339E+00
        -11   -1    0    0    0    0  0.00000000000E+00  0.00000000000E+00  0.45593999997E+02  0.45594000000E+02  0.51100000000E-03 0. -1.
         11   -1    0    0    0    0 -0.00000000000E+00 -0.00000000000E+00 -0.45593999997E+02  0.45594000000E+02  0.51100000000E-03 0.  1.
    9900012    2    1    2    0    0  0.49431265335E+00 -0.18549481471E-01  0.10715607045E+01  0.90007774841E+02  0.90000036669E+02 0.  0.
         12    1    1    2    0    0 -0.49431265335E+00  0.18549481471E-01 -0.10715607045E+01  0.11802251590E+01  0.00000000000E+00 0. -1.
         11    1    3    3    0    0  0.69307489454E+01  0.12617646367E+02  0.33135555248E+02  0.36127625201E+02  0.51100000000E-03 0. -1.
        -11    1    3    3    0    0 -0.10339375315E+02  0.11932355897E+02 -0.38228420151E+01  0.16244935226E+02  0.51100000000E-03 0.  1.
        -12    1    3    3    0    0  0.39029390231E+01 -0.24568551745E+02 -0.28241152529E+02  0.37635214414E+02  0.00000000000E+00 0.  1.
</event>
<event>
 7    1  0.1999542E-015  0.9000806E+02  0.7816164E-02  0.1186338E+00
        -11   -1    0    0    0    0  0.00000000000E+00  0.00000000000E+00  0.45593999997E+02  0.45594000000E+02  0.51100000000E-03 0.  1.
         11   -1    0    0    0    0 -0.00000000000E+00 -0.00000000000E+00 -0.45593999997E+02  0.45594000000E+02  0.51100000000E-03 0. -1.
    9900012    2    1    2    0    0 -0.40360759212E+00 -0.51755960779E+00  0.98055958927E+00  0.90008057567E+02  0.90000323127E+02 0.  0.
         12    1    1    2    0    0  0.40360759212E+00  0.51755960779E+00 -0.98055958927E+00  0.11799424326E+01  0.00000000000E+00 0. -1.
         11    1    3    3    0    0  0.66371823155E+01 -0.61303616692E+00  0.73260276245E+01  0.99044779493E+01  0.51100000000E-03 0. -1.
        -11    1    3    3    0    0  0.57888384660E+01 -0.28582540766E+02  0.22978344998E+02  0.37127841663E+02  0.51100000000E-03 0.  1.
         12    1    3    3    0    0 -0.12829628374E+02  0.28678017325E+02 -0.29323813034E+02  0.42975737955E+02  0.00000000000E+00 0. -1.
</event>
<event>
 7    1  0.1999542E-015  0.9000776E+02  0.7816164E-02  0.1186339E+00
        -11   -1    0    0    0    0  0.00000000000E+00  0.00000000000E+00  0.45593999997E+02  0.45594000000E+02  0.51100000000E-03 0.  1.
         11   -1    0    0    0    0 -0.00000000000E+00 -0.00000000000E+00 -0.45593999997E+02  0.45594000000E+02  0.51100000000E-03 0. -1.
    9900012    2    1    2    0    0 -0.92587905129E+00 -0.72552726649E+00 -0.96520088491E-01  0.90007763600E+02  0.90000025280E+02 0.  0.
         12    1    1    2    0    0  0.92587905129E+00  0.72552726649E+00  0.96520088491E-01  0.11802363998E+01  0.00000000000E+00 0. -1.
         11    1    3    3    0    0 -0.10273013623E+02 -0.61191569125E+01  0.91027949578E+01  0.15027966147E+02  0.51100000000E-03 0. -1.
        -11    1    3    3    0    0  0.78685378890E+01 -0.33084025455E+02  0.40744804236E+01  0.34250080581E+02  0.51100000000E-03 0.  1.
         12    1    3    3    0    0  0.14785966830E+01  0.38477655101E+02 -0.13273795470E+02  0.40729716871E+02  0.00000000000E+00 0. -1.
</event>
<event>
 7    1  0.1999542E-015  0.9000770E+02  0.7816164E-02  0.1186339E+00
        -11   -1    0    0    0    0  0.00000000000E+00  0.00000000000E+00  0.45593999997E+02  0.45594000000E+02  0.51100000000E-03 0. -1.
         11   -1    0    0    0    0 -0.00000000000E+00 -0.00000000000E+00 -0.45593999997E+02  0.45594000000E+02  0.51100000000E-03 0.  1.
    9900012    2    1    2    0    0  0.80289790269E+00 -0.29398140330E+00 -0.81365384969E+00  0.90007702286E+02  0.89999963156E+02 0.  0.
         12    1    1    2    0    0 -0.80289790269E+00  0.29398140330E+00  0.81365384969E+00  0.11802977145E+01  0.00000000000E+00 0. -1.
         11    1    3    3    0    0  0.62009888648E+01 -0.10754292591E+01 -0.58678094703E+01  0.86046498612E+01  0.51100000000E-03 0. -1.
        -11    1    3    3    0    0  0.16596737088E+02 -0.35085382263E+02 -0.13949635684E+01  0.38837889414E+02  0.51100000000E-03 0.  1.
         12    1    3    3    0    0 -0.21994828050E+02  0.35866830119E+02  0.64491191891E+01  0.42565163010E+02  0.00000000000E+00 0. -1.
</event>
<event>
 7    1  0.1999542E-015  0.9000774E+02  0.7816164E-02  0.1186339E+00
        -11   -1    0    0    0    0  0.00000000000E+00  0.00000000000E+00  0.45593999997E+02  0.45594000000E+02  0.51100000000E-03 0. -1.
         11   -1    0    0    0    0 -0.00000000000E+00 -0.00000000000E+00 -0.45593999997E+02  0.45594000000E+02  0.51100000000E-03 0.  1.
    9900012    2    1    2    0    0 -0.67445352029E+00  0.26406851384E-01 -0.96820368637E+00  0.90007744413E+02  0.90000005839E+02 0.  0.
         12    1    1    2    0    0  0.67445352029E+00 -0.26406851384E-01  0.96820368637E+00  0.11802555872E+01  0.00000000000E+00 0. -1.
         11    1    3    3    0    0 -0.98263978154E+01  0.19871389374E+02 -0.15146305264E+02  0.26848478040E+02  0.51100000000E-03 0. -1.
        -11    1    3    3    0    0  0.27766664838E+02  0.57859926688E+00 -0.66469663983E+01  0.28557041441E+02  0.51100000000E-03 0.  1.
         12    1    3    3    0    0 -0.18614720543E+02 -0.20423581789E+02  0.20825067976E+02  0.34602224931E+02  0.00000000000E+00 0. -1.
</event>
<event>
 7    1  0.1999542E-015  0.9000779E+02  0.7816164E-02  0.1186339E+00
        -11   -1    0    0    0    0  0.00000000000E+00  0.00000000000E+00  0.45593999997E+02  0.45594000000E+02  0.51100000000E-03 0. -1.
         11   -1    0    0    0    0 -0.00000000000E+00 -0.00000000000E+00 -0.45593999997E+02  0.45594000000E+02  0.51100000000E-03 0.  1.
    9900012    2    1    2    0    0  0.15234174381E+00  0.14884013483E+00 -0.11608301469E+01  0.90007793229E+02  0.90000055300E+02 0.  0.
         12    1    1    2    0    0 -0.15234174381E+00 -0.14884013483E+00  0.11608301469E+01  0.11802067711E+01  0.00000000000E+00 0. -1.
         11    1    3    3    0    0  0.78856030711E+00  0.82655958142E+01 -0.23005791066E+01  0.86159483522E+01  0.51100000000E-03 0. -1.
        -11    1    3    3    0    0  0.23029095691E+02 -0.14471194925E+01 -0.32417544323E+02  0.39791086733E+02  0.51100000000E-03 0.  1.
         12    1    3    3    0    0 -0.23665314255E+02 -0.66696361869E+01  0.33557293283E+02  0.41600758144E+02  0.00000000000E+00 0. -1.
</event>
<event>
 7    1  0.1999542E-015  0.9000767E+02  0.7816164E-02  0.1186339E+00
        -11   -1    0    0    0    0  0.00000000000E+00  0.00000000000E+00  0.45593999997E+02  0.45594000000E+02  0.51100000000E-03 0.  1.
         11   -1    0    0    0    0 -0.00000000000E+00 -0.00000000000E+00 -0.45593999997E+02  0.45594000000E+02  0.51100000000E-03 0. -1.
    9900012    2    1    2    0    0  0.10669866115E+01 -0.15247472170E+00 -0.48111968747E+00  0.90007667367E+02  0.89999927777E+02 0.  0.
         12    1    1    2    0    0 -0.10669866115E+01  0.15247472170E+00  0.48111968747E+00  0.11803326326E+01  0.00000000000E+00 0. -1.
         11    1    3    3    0    0 -0.77860387181E+01 -0.69089168974E+01  0.17948530694E+01  0.10563002860E+02  0.51100000000E-03 0. -1.
        -11    1    3    3    0    0 -0.83811608836E+01 -0.30325196352E+02  0.15241572743E+02  0.34959504165E+02  0.51100000000E-03 0.  1.
         12    1    3    3    0    0  0.17234186213E+02  0.37081638528E+02 -0.17517545500E+02  0.44485160342E+02  0.00000000000E+00 0. -1.
</event>
<event>
 7    1  0.1999542E-015  0.9000795E+02  0.7816164E-02  0.1186339E+00
        -11   -1    0    0    0    0  0.00000000000E+00  0.00000000000E+00  0.45593999997E+02  0.45594000000E+02  0.51100000000E-03 0. -1.
         11   -1    0    0    0    0 -0.00000000000E+00 -0.00000000000E+00 -0.45593999997E+02  0.45594000000E+02  0.51100000000E-03 0.  1.
    9900012    2    1    2    0    0 -0.85151999967E+00  0.81646338864E+00 -0.28465793094E-01  0.90007953782E+02  0.90000217972E+02 0.  0.
         12    1    1    2    0    0  0.85151999967E+00 -0.81646338864E+00  0.28465793094E-01  0.11800462178E+01  0.00000000000E+00 0. -1.
         11    1    3    3    0    0  0.37684163868E+01 -0.88857745576E+01  0.61408650261E+00  0.96713522347E+01  0.51100000000E-03 0. -1.
        -11    1    3    3    0    0  0.31036128474E+02  0.11124357799E+02 -0.21158525030E+02  0.39174938274E+02  0.51100000000E-03 0.  1.
         12    1    3    3    0    0 -0.35656064860E+02 -0.14221198531E+01  0.20515972734E+02  0.41161663273E+02  0.00000000000E+00 0. -1.
</event>
<event>
 7    1  0.2123068E-015  0.9000767E+02  0.7816164E-02  0.1186339E+00
        -11   -1    0    0    0    0  0.00000000000E+00  0.00000000000E+00  0.45593999997E+02  0.45594000000E+02  0.51100000000E-03 0. -1.
         11   -1    0    0    0    0 -0.00000000000E+00 -0.00000000000E+00 -0.45593999997E+02  0.45594000000E+02  0.51100000000E-03 0.  1.
    9900012    2    1    2    0    0  0.63357917205E+00 -0.42899137314E+00 -0.89873412458E+00  0.90007669880E+02  0.89999930322E+02 0.  0.
         12    1    1    2    0    0 -0.63357917205E+00  0.42899137314E+00  0.89873412458E+00  0.11803301200E+01  0.00000000000E+00 0. -1.
         11    1    3    3    0    0 -0.70749883786E+01  0.17786656365E+02  0.32317944434E+02  0.37561551325E+02  0.51100000000E-03 0. -1.
        -11    1    3    3    0    0 -0.15314222403E+01 -0.77756744886E+01  0.65657340278E+01  0.10291512591E+02  0.51100000000E-03 0.  1.
        -12    1    3    3    0    0  0.92399897909E+01 -0.10439973250E+02 -0.39782412586E+02  0.42154605964E+02  0.00000000000E+00 0.  1.
</event>
<event>
 7    1  0.1999542E-015  0.9000774E+02  0.7816164E-02  0.1186339E+00
        -11   -1    0    0    0    0  0.00000000000E+00  0.00000000000E+00  0.45593999997E+02  0.45594000000E+02  0.51100000000E-03 0.  1.
         11   -1    0    0    0    0 -0.00000000000E+00 -0.00000000000E+00 -0.45593999997E+02  0.45594000000E+02  0.51100000000E-03 0. -1.
    9900012    2    1    2    0    0  0.10265611930E+01 -0.46601949251E+00 -0.34928811012E+00  0.90007743996E+02  0.90000005417E+02 0.  0.
         12    1    1    2    0    0 -0.10265611930E+01  0.46601949251E+00  0.34928811012E+00  0.11802560037E+01  0.00000000000E+00 0. -1.
         11    1    3    3    0    0 -0.29827283379E+02 -0.85299573519E+01 -0.20097594736E+02  0.36964040913E+02  0.51100000000E-03 0. -1.
        -11    1    3    3    0    0 -0.87018204226E+01  0.34977169635E+01  0.45435123748E+01  0.10421094356E+02  0.51100000000E-03 0.  1.
        -12    1    3    3    0    0  0.39555664995E+02  0.45662208959E+01  0.15204794251E+02  0.42622608727E+02  0.00000000000E+00 0.  1.
</event>
<event>
 7    1  0.1999542E-015  0.9000781E+02  0.7816164E-02  0.1186339E+00
        -11   -1    0    0    0    0  0.00000000000E+00  0.00000000000E+00  0.45593999997E+02  0.45594000000E+02  0.51100000000E-03 0.  1.
         11   -1    0    0    0    0 -0.00000000000E+00 -0.00000000000E+00 -0.45593999997E+02  0.45594000000E+02  0.51100000000E-03 0. -1.
    9900012    2    1    2    0    0  0.10978944604E+01  0.26521623711E+00 -0.34226521708E+00  0.90007806212E+02  0.90000068454E+02 0.  0.
         12    1    1    2    0    0 -0.10978944604E+01 -0.26521623711E+00  0.34226521708E+00  0.11801937881E+01  0.00000000000E+00 0. -1.
         11    1    3    3    0    0  0.41923140238E+01 -0.57650985261E+01  0.42682081861E+01  0.83083969134E+01  0.51100000000E-03 0. -1.
        -11    1    3    3    0    0  0.33959553487E+02 -0.16963168519E+02 -0.22469874452E+01  0.38026955072E+02  0.51100000000E-03 0.  1.
         12    1    3    3    0    0 -0.37053973050E+02  0.22993483282E+02 -0.23634859579E+01  0.43672454226E+02  0.00000000000E+00 0. -1.
</event>
<event>
 7    1  0.1999542E-015  0.9000777E+02  0.7816164E-02  0.1186339E+00
        -11   -1    0    0    0    0  0.00000000000E+00  0.00000000000E+00  0.45593999997E+02  0.45594000000E+02  0.51100000000E-03 0.  1.
         11   -1    0    0    0    0 -0.00000000000E+00 -0.00000000000E+00 -0.45593999997E+02  0.45594000000E+02  0.51100000000E-03 0. -1.
    9900012    2    1    2    0    0 -0.50978459370E+00  0.10438799066E+01 -0.20825095308E+00  0.90007773729E+02  0.90000035542E+02 0.  0.
         12    1    1    2    0    0  0.50978459370E+00 -0.10438799066E+01  0.20825095308E+00  0.11802262710E+01  0.00000000000E+00 0. -1.
         11    1    3    3    0    0  0.12806456330E+02 -0.22432416587E+02 -0.27158470254E+02  0.37480676948E+02  0.51100000000E-03 0. -1.
        -11    1    3    3    0    0 -0.17016155783E+01 -0.12440558084E+00 -0.83398229964E+01  0.85125566193E+01  0.51100000000E-03 0.  1.
        -12    1    3    3    0    0 -0.11614625345E+02  0.23600702074E+02  0.35290042297E+02  0.44014540162E+02  0.00000000000E+00 0.  1.
</event>
<event>
 7    1  0.1999542E-015  0.9000771E+02  0.7816164E-02  0.1186339E+00
        -11   -1    0    0    0    0  0.00000000000E+00  0.00000000000E+00  0.45593999997E+02  0.45594000000E+02  0.51100000000E-03 0.  1.
         11   -1    0    0    0    0 -0.00000000000E+00 -0.00000000000E+00 -0.45593999997E+02  0.45594000000E+02  0.51100000000E-03 0. -1.
    9900012    2    1    2    0    0 -0.56328472087E+00  0.97369946975E+00  0.35736309063E+00  0.90007708209E+02  0.89999969157E+02 0.  0.
         12    1    1    2    0    0  0.56328472087E+00 -0.97369946975E+00 -0.35736309063E+00  0.11802917913E+01  0.00000000000E+00 0. -1.
         11    1    3    3    0    0  0.15267347306E+02 -0.24605050549E+02 -0.29633499117E+02  0.41432410941E+02  0.51100000000E-03 0. -1.
        -11    1    3    3    0    0  0.59920940201E+01  0.41946769201E+01  0.33781333129E+01  0.80568163781E+01  0.51100000000E-03 0.  1.
        -12    1    3    3    0    0 -0.21822726047E+02  0.21384073098E+02  0.26612728894E+02  0.40518480889E+02  0.00000000000E+00 0.  1.
</event>
<event>
 7    1  0.1999542E-015  0.9000648E+02  0.7816164E-02  0.1186342E+00
        -11   -1    0    0    0    0  0.00000000000E+00  0.00000000000E+00  0.45593999997E+02  0.45594000000E+02  0.51100000000E-03 0.  1.
         11   -1    0    0    0    0 -0.00000000000E+00 -0.00000000000E+00 -0.45593999997E+02  0.45594000000E+02  0.51100000000E-03 0. -1.
    9900012    2    1    2    0    0 -0.89473304196E+00 -0.75522063109E+00  0.15837512998E+00  0.90006480597E+02  0.89998725332E+02 0.  0.
         12    1    1    2    0    0  0.89473304196E+00  0.75522063109E+00 -0.15837512998E+00  0.11815194031E+01  0.00000000000E+00 0. -1.
         11    1    3    3    0    0 -0.34064383482E+02  0.16687115302E+02  0.41425510460E+01  0.38157604334E+02  0.51100000000E-03 0. -1.
        -11    1    3    3    0    0  0.17577406641E+01  0.75415551588E+01  0.67822537353E+01  0.10293865768E+02  0.51100000000E-03 0.  1.
        -12    1    3    3    0    0  0.31411909776E+02 -0.24983891092E+02 -0.10766429651E+02  0.41555010495E+02  0.00000000000E+00 0.  1.
</event>
<event>
 7    1  0.1999542E-015  0.9000753E+02  0.7816164E-02  0.1186339E+00
        -11   -1    0    0    0    0  0.00000000000E+00  0.00000000000E+00  0.45593999997E+02  0.45594000000E+02  0.51100000000E-03 0.  1.
         11   -1    0    0    0    0 -0.00000000000E+00 -0.00000000000E+00 -0.45593999997E+02  0.45594000000E+02  0.51100000000E-03 0. -1.
    9900012    2    1    2    0    0 -0.78499968865E+00  0.65164550570E+00  0.59383709817E+00  0.90007530231E+02  0.89999788830E+02 0.  0.
         12    1    1    2    0    0  0.78499968865E+00 -0.65164550570E+00 -0.59383709817E+00  0.11804697690E+01  0.00000000000E+00 0. -1.
         11    1    3    3    0    0 -0.52171521084E+01 -0.77255189033E+01  0.24956363592E+01  0.96504155116E+01  0.51100000000E-03 0. -1.
        -11    1    3    3    0    0  0.33624303833E+02 -0.13717457381E+02  0.15905506391E+02  0.39645271838E+02  0.51100000000E-03 0.  1.
         12    1    3    3    0    0 -0.29192151414E+02  0.22094621790E+02 -0.17807305652E+02  0.40711842881E+02  0.00000000000E+00 0. -1.
</event>
<event>
 7    1  0.1999542E-015  0.9000775E+02  0.7816164E-02  0.1186339E+00
        -11   -1    0    0    0    0  0.00000000000E+00  0.00000000000E+00  0.45593999997E+02  0.45594000000E+02  0.51100000000E-03 0. -1.
         11   -1    0    0    0    0 -0.00000000000E+00 -0.00000000000E+00 -0.45593999997E+02  0.45594000000E+02  0.51100000000E-03 0.  1.
    9900012    2    1    2    0    0  0.61872090785E+00  0.79501158027E+00 -0.61492943871E+00  0.90007746981E+02  0.90000008441E+02 0.  0.
         12    1    1    2    0    0 -0.61872090785E+00 -0.79501158027E+00  0.61492943871E+00  0.11802530191E+01  0.00000000000E+00 0. -1.
         11    1    3    3    0    0 -0.59188955795E+01  0.86193996846E+01 -0.31184201143E+01  0.10911091608E+02  0.51100000000E-03 0. -1.
        -11    1    3    3    0    0 -0.33943921928E+02 -0.65214231648E+01 -0.11207572009E+02  0.36336324340E+02  0.51100000000E-03 0.  1.
         12    1    3    3    0    0  0.40481538415E+02 -0.13029649395E+01  0.13711062685E+02  0.42760331033E+02  0.00000000000E+00 0. -1.
</event>
<event>
 7    1  0.1999542E-015  0.9000770E+02  0.7816164E-02  0.1186339E+00
        -11   -1    0    0    0    0  0.00000000000E+00  0.00000000000E+00  0.45593999997E+02  0.45594000000E+02  0.51100000000E-03 0.  1.
         11   -1    0    0    0    0 -0.00000000000E+00 -0.00000000000E+00 -0.45593999997E+02  0.45594000000E+02  0.51100000000E-03 0. -1.
    9900012    2    1    2    0    0 -0.10142338211E+01  0.49666107568E+00 -0.34318042253E+00  0.90007696958E+02  0.89999957758E+02 0.  0.
         12    1    1    2    0    0  0.10142338211E+01 -0.49666107568E+00  0.34318042253E+00  0.11803030418E+01  0.00000000000E+00 0. -1.
         11    1    3    3    0    0  0.84695942149E+01  0.29460922361E+02 -0.29736443127E+02  0.42707563998E+02  0.51100000000E-03 0. -1.
        -11    1    3    3    0    0  0.18358176559E+01  0.49321594478E+00  0.10175473728E+02  0.10351509759E+02  0.51100000000E-03 0.  1.
        -12    1    3    3    0    0 -0.11319645692E+02 -0.29457477230E+02  0.19217788976E+02  0.36948623202E+02  0.00000000000E+00 0.  1.
</event>
<event>
 7    1  0.1999542E-015  0.9000772E+02  0.7816164E-02  0.1186339E+00
        -11   -1    0    0    0    0  0.00000000000E+00  0.00000000000E+00  0.45593999997E+02  0.45594000000E+02  0.51100000000E-03 0.  1.
         11   -1    0    0    0    0 -0.00000000000E+00 -0.00000000000E+00 -0.45593999997E+02  0.45594000000E+02  0.51100000000E-03 0. -1.
    9900012    2    1    2    0    0  0.75812603814E+00  0.90398517179E+00  0.33362260042E-01  0.90007721507E+02  0.89999982631E+02 0.  0.
         12    1    1    2    0    0 -0.75812603814E+00 -0.90398517179E+00 -0.33362260042E-01  0.11802784930E+01  0.00000000000E+00 0. -1.
         11    1    3    3    0    0  0.15009767681E+02  0.22651400907E+01 -0.41025680812E+02  0.43743919256E+02  0.51100000000E-03 0. -1.
        -11    1    3    3    0    0 -0.14029890142E+01  0.55700813816E+01  0.60993722211E+01  0.83783367398E+01  0.51100000000E-03 0.  1.
        -12    1    3    3    0    0 -0.12848652629E+02 -0.69312363005E+01  0.34959670851E+02  0.37885465512E+02  0.00000000000E+00 0.  1.
</event>
<event>
 7    1  0.1999542E-015  0.9000776E+02  0.7816164E-02  0.1186339E+00
        -11   -1    0    0    0    0  0.00000000000E+00  0.00000000000E+00  0.45593999997E+02  0.45594000000E+02  0.51100000000E-03 0. -1.
         11   -1    0    0    0    0 -0.00000000000E+00 -0.00000000000E+00 -0.45593999997E+02  0.45594000000E+02  0.51100000000E-03 0.  1.
    9900012    2    1    2    0    0  0.47517312918E+00  0.37075791617E+00 -0.10147473534E+01  0.90007761411E+02  0.90000023062E+02 0.  0.
         12    1    1    2    0    0 -0.47517312918E+00 -0.37075791617E+00  0.10147473534E+01  0.11802385887E+01  0.00000000000E+00 0. -1.
         11    1    3    3    0    0  0.37847307293E+02  0.52159434843E+01 -0.13788842959E+01  0.38229910514E+02  0.51100000000E-03 0. -1.
        -11    1    3    3    0    0  0.39643867691E+01  0.65808032713E+01  0.41368081432E+01  0.87256241052E+01  0.51100000000E-03 0.  1.
        -12    1    3    3    0    0 -0.41336520933E+02 -0.11425988839E+02 -0.37726712006E+01  0.43052226792E+02  0.00000000000E+00 0.  1.
</event>
<event>
 7    1  0.1999542E-015  0.9000783E+02  0.7816164E-02  0.1186339E+00
        -11   -1    0    0    0    0  0.00000000000E+00  0.00000000000E+00  0.45593999997E+02  0.45594000000E+02  0.51100000000E-03 0. -1.
         11   -1    0    0    0    0 -0.00000000000E+00 -0.00000000000E+00 -0.45593999997E+02  0.45594000000E+02  0.51100000000E-03 0.  1.
    9900012    2    1    2    0    0 -0.41506117042E+00  0.50392221591E+00 -0.98314720542E+00  0.90007833994E+02  0.90000096602E+02 0.  0.
         12    1    1    2    0    0  0.41506117042E+00 -0.50392221591E+00  0.98314720542E+00  0.11801660063E+01  0.00000000000E+00 0. -1.
         11    1    3    3    0    0 -0.68321719452E+01 -0.33892139944E+01  0.50375801902E+01  0.91401618926E+01  0.51100000000E-03 0. -1.
        -11    1    3    3    0    0 -0.21921114069E+02  0.27240963676E+02 -0.21471126607E+02  0.41031873246E+02  0.51100000000E-03 0.  1.
         12    1    3    3    0    0  0.28338224843E+02 -0.23347827466E+02  0.15450399212E+02  0.39835798855E+02  0.00000000000E+00 0. -1.
</event>
<event>
 7    1  0.1999542E-015  0.9000773E+02  0.7816164E-02  0.1186339E+00
        -11   -1    0    0    0    0  0.00000000000E+00  0.00000000000E+00  0.45593999997E+02  0.45594000000E+02  0.51100000000E-03 0.  1.
         11   -1    0    0    0    0 -0.00000000000E+00 -0.00000000000E+00 -0.45593999997E+02  0.45594000000E+02  0.51100000000E-03 0. -1.
    9900012    2    1    2    0    0 -0.72348941653E+00  0.68674410845E+00  0.63086308215E+00  0.90007727729E+02  0.89999988935E+02 0.  0.
         12    1    1    2    0    0  0.72348941653E+00 -0.68674410845E+00 -0.63086308215E+00  0.11802722714E+01  0.00000000000E+00 0. -1.
         11    1    3    3    0    0 -0.20632860726E+00 -0.61543171305E+01  0.83952911471E+01  0.10411489065E+02  0.51100000000E-03 0. -1.
        -11    1    3    3    0    0  0.55564914786E+01 -0.35757264330E+02 -0.33396366856E+01  0.36340194322E+02  0.51100000000E-03 0.  1.
         12    1    3    3    0    0 -0.60736522878E+01  0.42598325569E+02 -0.44247913794E+01  0.43256044342E+02  0.00000000000E+00 0. -1.
</event>
<event>
 7    1  0.1999542E-015  0.9000778E+02  0.7816164E-02  0.1186339E+00
        -11   -1    0    0    0    0  0.00000000000E+00  0.00000000000E+00  0.45593999997E+02  0.45594000000E+02  0.51100000000E-03 0. -1.
         11   -1    0    0    0    0 -0.00000000000E+00 -0.00000000000E+00 -0.45593999997E+02  0.45594000000E+02  0.51100000000E-03 0.  1.
    9900012    2    1    2    0    0 -0.63983568942E+00 -0.63099465983E+00 -0.76509682917E+00  0.90007780898E+02  0.90000042806E+02 0.  0.
         12    1    1    2    0    0  0.63983568942E+00  0.63099465983E+00  0.76509682917E+00  0.11802191018E+01  0.00000000000E+00 0. -1.
         11    1    3    3    0    0 -0.37721258070E+01  0.69387743986E+01 -0.35993401087E+01  0.86793302010E+01  0.51100000000E-03 0. -1.
        -11    1    3    3    0    0  0.36029729484E+02  0.95562798970E+01  0.17833578635E+02  0.41321912097E+02  0.51100000000E-03 0.  1.
         12    1    3    3    0    0 -0.32897439366E+02 -0.17126048955E+02 -0.14999335356E+02  0.40006538600E+02  0.00000000000E+00 0. -1.
</event>
<event>
 7    1  0.1999542E-015  0.9000793E+02  0.7816164E-02  0.1186339E+00
        -11   -1    0    0    0    0  0.00000000000E+00  0.00000000000E+00  0.45593999997E+02  0.45594000000E+02  0.51100000000E-03 0.  1.
         11   -1    0    0    0    0 -0.00000000000E+00 -0.00000000000E+00 -0.45593999997E+02  0.45594000000E+02  0.51100000000E-03 0. -1.
    9900012    2    1    2    0    0  0.95840944174E+00  0.38763076179E+00  0.56899011528E+00  0.90007933893E+02  0.90000197820E+02 0.  0.
         12    1    1    2    0    0 -0.95840944174E+00 -0.38763076179E+00 -0.56899011528E+00  0.11800661070E+01  0.00000000000E+00 0. -1.
         11    1    3    3    0    0  0.47624887765E+01  0.55406429400E+01  0.89012911377E+01  0.11515772128E+02  0.51100000000E-03 0. -1.
        -11    1    3    3    0    0 -0.22014761432E+02 -0.86586970297E+01  0.28629708246E+02  0.37138698815E+02  0.51100000000E-03 0.  1.
         12    1    3    3    0    0  0.18210682097E+02  0.35056848515E+01 -0.36962009269E+02  0.41353462949E+02  0.00000000000E+00 0. -1.
</event>
<event>
 7    1  0.1999542E-015  0.9000778E+02  0.7816164E-02  0.1186339E+00
        -11   -1    0    0    0    0  0.00000000000E+00  0.00000000000E+00  0.45593999997E+02  0.45594000000E+02  0.51100000000E-03 0. -1.
         11   -1    0    0    0    0 -0.00000000000E+00 -0.00000000000E+00 -0.45593999997E+02  0.45594000000E+02  0.51100000000E-03 0.  1.
    9900012    2    1    2    0    0 -0.16688006940E+00 -0.58545340165E+00 -0.10110901467E+01  0.90007784796E+02  0.90000046755E+02 0.  0.
         12    1    1    2    0    0  0.16688006940E+00  0.58545340165E+00  0.10110901467E+01  0.11802152041E+01  0.00000000000E+00 0. -1.
         11    1    3    3    0    0 -0.16333891525E+02 -0.29126743247E+02 -0.13632686760E+02  0.36069562419E+02  0.51100000000E-03 0. -1.
        -11    1    3    3    0    0 -0.51141788061E+01 -0.72370879445E-02 -0.10363274086E+02  0.11556484209E+02  0.51100000000E-03 0.  1.
        -12    1    3    3    0    0  0.21281190262E+02  0.28548526933E+02  0.22984870699E+02  0.42381738168E+02  0.00000000000E+00 0.  1.
</event>
<event>
 7    1  0.1999542E-015  0.9000773E+02  0.7816164E-02  0.1186339E+00
        -11   -1    0    0    0    0  0.00000000000E+00  0.00000000000E+00  0.45593999997E+02  0.45594000000E+02  0.51100000000E-03 0. -1.
         11   -1    0    0    0    0 -0.00000000000E+00 -0.00000000000E+00 -0.45593999997E+02  0.45594000000E+02  0.51100000000E-03 0.  1.
    9900012    2    1    2    0    0 -0.74421636061E+00 -0.80869804096E+00 -0.43033157480E+00  0.90007730634E+02  0.89999991878E+02 0.  0.
         12    1    1    2    0    0  0.74421636061E+00  0.80869804096E+00  0.43033157480E+00  0.11802693663E+01  0.00000000000E+00 0. -1.
         11    1    3    3    0    0 -0.64393473092E+01  0.85269646769E+01 -0.24926911013E+02  0.27120568086E+02  0.51100000000E-03 0. -1.
        -11    1    3    3    0    0  0.11091657746E+02  0.38704821372E+00 -0.16791514525E+02  0.20127832426E+02  0.51100000000E-03 0.  1.
        -12    1    3    3    0    0 -0.53965267977E+01 -0.97227109316E+01  0.41288093963E+02  0.42759330122E+02  0.00000000000E+00 0.  1.
</event>
<event>
 7    1  0.1999542E-015  0.9000789E+02  0.7816164E-02  0.1186339E+00
        -11   -1    0    0    0    0  0.00000000000E+00  0.00000000000E+00  0.45593999997E+02  0.45594000000E+02  0.51100000000E-03 0. -1.
         11   -1    0    0    0    0 -0.00000000000E+00 -0.00000000000E+00 -0.45593999997E+02  0.45594000000E+02  0.51100000000E-03 0.  1.
    9900012    2    1    2    0    0 -0.12657179958E+00 -0.14098273263E+00 -0.11648030745E+01  0.90007888669E+02  0.90000151999E+02 0.  0.
         12    1    1    2    0    0  0.12657179958E+00  0.14098273263E+00  0.11648030745E+01  0.11801113310E+01  0.00000000000E+00 0. -1.
         11    1    3    3    0    0  0.10089642149E+02  0.30839036210E+02  0.25512176277E+02  0.41276121084E+02  0.51100000000E-03 0. -1.
        -11    1    3    3    0    0  0.11311158495E+01  0.10995404009E+01 -0.11268370155E+02  0.11378250233E+02  0.51100000000E-03 0.  1.
        -12    1    3    3    0    0 -0.11347329798E+02 -0.32079559344E+02 -0.15408609197E+02  0.37353517353E+02  0.00000000000E+00 0.  1.
</event>
<event>
 7    1  0.1999542E-015  0.9000795E+02  0.7816164E-02  0.1186339E+00
        -11   -1    0    0    0    0  0.00000000000E+00  0.00000000000E+00  0.45593999997E+02  0.45594000000E+02  0.51100000000E-03 0.  1.
         11   -1    0    0    0    0 -0.00000000000E+00 -0.00000000000E+00 -0.45593999997E+02  0.45594000000E+02  0.51100000000E-03 0. -1.
    9900012    2    1    2    0    0  0.46145361239E+00 -0.49360957853E+00  0.96742777078E+00  0.90007954940E+02  0.90000219145E+02 0.  0.
         12    1    1    2    0    0 -0.46145361239E+00  0.49360957853E+00 -0.96742777078E+00  0.11800450602E+01  0.00000000000E+00 0. -1.
         11    1    3    3    0    0  0.12402743809E+02  0.14630547151E+01 -0.37154100725E+02  0.39196884876E+02  0.51100000000E-03 0. -1.
        -11    1    3    3    0    0  0.12028719434E+01 -0.79960528067E+01 -0.18566078857E+01  0.82964302264E+01  0.51100000000E-03 0.  1.
        -12    1    3    3    0    0 -0.13144162140E+02  0.60393885131E+01  0.39978136381E+02  0.42514639837E+02  0.00000000000E+00 0.  1.
</event>
<event>
 7    1  0.1999542E-015  0.9000791E+02  0.7816164E-02  0.1186339E+00
        -11   -1    0    0    0    0  0.00000000000E+00  0.00000000000E+00  0.45593999997E+02  0.45594000000E+02  0.51100000000E-03 0.  1.
         11   -1    0    0    0    0 -0.00000000000E+00 -0.00000000000E+00 -0.45593999997E+02  0.45594000000E+02  0.51100000000E-03 0. -1.
    9900012    2    1    2    0    0  0.97681541149E+00  0.84067619004E-01 -0.65678835389E+00  0.90007912438E+02  0.90000176082E+02 0.  0.
         12    1    1    2    0    0 -0.97681541149E+00 -0.84067619004E-01  0.65678835389E+00  0.11800875622E+01  0.00000000000E+00 0. -1.
         11    1    3    3    0    0  0.20315728605E+02  0.54732695782E+01 -0.26903462969E+02  0.34153796693E+02  0.51100000000E-03 0. -1.
        -11    1    3    3    0    0  0.12204986844E+02  0.61352862157E+01  0.73553481758E+00  0.13680075020E+02  0.51100000000E-03 0.  1.
        -12    1    3    3    0    0 -0.31543900038E+02 -0.11524488175E+02  0.25511139797E+02  0.42174040724E+02  0.00000000000E+00 0.  1.
</event>
<event>
 7    1  0.1999542E-015  0.9000779E+02  0.7816164E-02  0.1186339E+00
        -11   -1    0    0    0    0  0.00000000000E+00  0.00000000000E+00  0.45593999997E+02  0.45594000000E+02  0.51100000000E-03 0.  1.
         11   -1    0    0    0    0 -0.00000000000E+00 -0.00000000000E+00 -0.45593999997E+02  0.45594000000E+02  0.51100000000E-03 0. -1.
    9900012    2    1    2    0    0  0.14852335547E+00 -0.10859936077E+01  0.43755299623E+00  0.90007790727E+02  0.90000052765E+02 0.  0.
         12    1    1    2    0    0 -0.14852335547E+00  0.10859936077E+01 -0.43755299623E+00  0.11802092728E+01  0.00000000000E+00 0. -1.
         11    1    3    3    0    0 -0.22277059865E+02 -0.25174921305E+02  0.65597760213E+01  0.34250178404E+02  0.51100000000E-03 0. -1.
        -11    1    3    3    0    0 -0.35899912024E+00 -0.95902463582E+01 -0.11234133009E+02  0.14775230973E+02  0.51100000000E-03 0.  1.
        -12    1    3    3    0    0  0.22784582341E+02  0.33679174056E+02  0.51119099834E+01  0.40982381351E+02  0.00000000000E+00 0.  1.
</event>
<event>
 7    1  0.1999542E-015  0.9000774E+02  0.7816164E-02  0.1186339E+00
        -11   -1    0    0    0    0  0.00000000000E+00  0.00000000000E+00  0.45593999997E+02  0.45594000000E+02  0.51100000000E-03 0.  1.
         11   -1    0    0    0    0 -0.00000000000E+00 -0.00000000000E+00 -0.45593999997E+02  0.45594000000E+02  0.51100000000E-03 0. -1.
    9900012    2    1    2    0    0 -0.10938825717E+01  0.11646379770E+00  0.42762149262E+00  0.90007744503E+02  0.90000005931E+02 0.  0.
         12    1    1    2    0    0  0.10938825717E+01 -0.11646379770E+00 -0.42762149262E+00  0.11802554969E+01  0.00000000000E+00 0. -1.
         11    1    3    3    0    0  0.22476753883E+01  0.54028260305E+01 -0.80118204170E+00  0.59063073652E+01  0.51100000000E-03 0. -1.
        -11    1    3    3    0    0 -0.26816712567E+02  0.30813908428E+02 -0.21645563248E+01  0.40906213829E+02  0.51100000000E-03 0.  1.
         12    1    3    3    0    0  0.23475154607E+02 -0.36100270661E+02  0.33933598592E+01  0.43195223309E+02  0.00000000000E+00 0. -1.
</event>
<event>
 7    1  0.1999542E-015  0.9000776E+02  0.7816164E-02  0.1186339E+00
        -11   -1    0    0    0    0  0.00000000000E+00  0.00000000000E+00  0.45593999997E+02  0.45594000000E+02  0.51100000000E-03 0. -1.
         11   -1    0    0    0    0 -0.00000000000E+00 -0.00000000000E+00 -0.45593999997E+02  0.45594000000E+02  0.51100000000E-03 0.  1.
    9900012    2    1    2    0    0  0.86797507078E+00 -0.79750932411E+00 -0.59636902979E-01  0.90007763411E+02  0.90000025088E+02 0.  0.
         12    1    1    2    0    0 -0.86797507078E+00  0.79750932411E+00  0.59636902979E-01  0.11802365889E+01  0.00000000000E+00 0. -1.
         11    1    3    3    0    0 -0.44125655730E+01 -0.60819989728E+01  0.68013309653E+00  0.75448013712E+01  0.51100000000E-03 0. -1.
        -11    1    3    3    0    0 -0.32266640839E+02 -0.19147130742E+02  0.20847819187E+01  0.37577853087E+02  0.51100000000E-03 0.  1.
         12    1    3    3    0    0  0.37547181483E+02  0.24431620391E+02 -0.28245519182E+01  0.44885108953E+02  0.00000000000E+00 0. -1.
</event>
<event>
 7    1  0.1999542E-015  0.9000760E+02  0.7816164E-02  0.1186339E+00
        -11   -1    0    0    0    0  0.00000000000E+00  0.00000000000E+00  0.45593999997E+02  0.45594000000E+02  0.51100000000E-03 0. -1.
         11   -1    0    0    0    0 -0.00000000000E+00 -0.00000000000E+00 -0.45593999997E+02  0.45594000000E+02  0.51100000000E-03 0.  1.
    9900012    2    1    2    0    0  0.10736960863E+00  0.11066460754E+01  0.39640900174E+00  0.90007604361E+02  0.89999863938E+02 0.  0.
         12    1    1    2    0    0 -0.10736960863E+00 -0.11066460754E+01 -0.39640900174E+00  0.11803956395E+01  0.00000000000E+00 0. -1.
         11    1    3    3    0    0  0.51491052102E+00  0.64014494307E+01 -0.67816626398E+01  0.93399483981E+01  0.51100000000E-03 0. -1.
        -11    1    3    3    0    0 -0.20458690894E+01  0.11024085870E+01 -0.36459376513E+02  0.36533368597E+02  0.51100000000E-03 0.  1.
         12    1    3    3    0    0  0.16383281770E+01 -0.63972119423E+01  0.43637448155E+02  0.44134287366E+02  0.00000000000E+00 0. -1.
</event>
<event>
 7    1  0.1999542E-015  0.9000772E+02  0.7816164E-02  0.1186339E+00
        -11   -1    0    0    0    0  0.00000000000E+00  0.00000000000E+00  0.45593999997E+02  0.45594000000E+02  0.51100000000E-03 0.  1.
         11   -1    0    0    0    0 -0.00000000000E+00 -0.00000000000E+00 -0.45593999997E+02  0.45594000000E+02  0.51100000000E-03 0. -1.
    9900012    2    1    2    0    0 -0.58112285243E+00  0.91828259118E+00  0.46055590262E+00  0.90007721039E+02  0.89999982156E+02 0.  0.
         12    1    1    2    0    0  0.58112285243E+00 -0.91828259118E+00 -0.46055590262E+00  0.11802789612E+01  0.00000000000E+00 0. -1.
         11    1    3    3    0    0  0.79728524444E+01 -0.20382068873E+02 -0.78264451036E+01  0.23243243123E+02  0.51100000000E-03 0. -1.
        -11    1    3    3    0    0  0.24853001780E+01 -0.21697553315E+02  0.34305694205E+01  0.22107223789E+02  0.51100000000E-03 0.  1.
         12    1    3    3    0    0 -0.11039275475E+02  0.42997904779E+02  0.48564315857E+01  0.44657254127E+02  0.00000000000E+00 0. -1.
</event>
<event>
 7    1  0.1999542E-015  0.9000778E+02  0.7816164E-02  0.1186339E+00
        -11   -1    0    0    0    0  0.00000000000E+00  0.00000000000E+00  0.45593999997E+02  0.45594000000E+02  0.51100000000E-03 0.  1.
         11   -1    0    0    0    0 -0.00000000000E+00 -0.00000000000E+00 -0.45593999997E+02  0.45594000000E+02  0.51100000000E-03 0. -1.
    9900012    2    1    2    0    0 -0.97812443584E-01  0.11320979810E+01 -0.31889907585E+00  0.90007784031E+02  0.90000045980E+02 0.  0.
         12    1    1    2    0    0  0.97812443584E-01 -0.11320979810E+01  0.31889907585E+00  0.11802159690E+01  0.00000000000E+00 0. -1.
         11    1    3    3    0    0  0.17151790044E+02  0.10981308601E+02 -0.42429570440E+01  0.20803262365E+02  0.51100000000E-03 0. -1.
        -11    1    3    3    0    0 -0.36293753190E+01 -0.33721549710E+02  0.17922420042E+02  0.38360505999E+02  0.51100000000E-03 0.  1.
         12    1    3    3    0    0 -0.13620227168E+02  0.23872339090E+02 -0.13998362074E+02  0.30844015667E+02  0.00000000000E+00 0. -1.
</event>
<event>
 7    1  0.1999542E-015  0.9000727E+02  0.7816164E-02  0.1186340E+00
        -11   -1    0    0    0    0  0.00000000000E+00  0.00000000000E+00  0.45593999997E+02  0.45594000000E+02  0.51100000000E-03 0.  1.
         11   -1    0    0    0    0 -0.00000000000E+00 -0.00000000000E+00 -0.45593999997E+02  0.45594000000E+02  0.51100000000E-03 0. -1.
    9900012    2    1    2    0    0  0.79783327568E+00 -0.84750638578E+00  0.19829956233E+00  0.90007268140E+02  0.89999523278E+02 0.  0.
         12    1    1    2    0    0 -0.79783327568E+00  0.84750638578E+00 -0.19829956233E+00  0.11807318604E+01  0.00000000000E+00 0. -1.
         11    1    3    3    0    0 -0.19063663734E+02 -0.17936752679E+02 -0.24190679690E+02  0.35641820321E+02  0.51100000000E-03 0. -1.
        -11    1    3    3    0    0  0.62876217592E+00  0.35829670490E+00 -0.10849289376E+02  0.10873398669E+02  0.51100000000E-03 0.  1.
        -12    1    3    3    0    0  0.19232734834E+02  0.16730949588E+02  0.35238268628E+02  0.43492049150E+02  0.00000000000E+00 0.  1.
</event>
<event>
 7    1  0.1999542E-015  0.9000776E+02  0.7816164E-02  0.1186339E+00
        -11   -1    0    0    0    0  0.00000000000E+00  0.00000000000E+00  0.45593999997E+02  0.45594000000E+02  0.51100000000E-03 0. -1.
         11   -1    0    0    0    0 -0.00000000000E+00 -0.00000000000E+00 -0.45593999997E+02  0.45594000000E+02  0.51100000000E-03 0.  1.
    9900012    2    1    2    0    0  0.23595466012E+00 -0.10982612470E+01  0.36211295308E+00  0.90007755043E+02  0.90000016609E+02 0.  0.
         12    1    1    2    0    0 -0.23595466012E+00  0.10982612470E+01 -0.36211295308E+00  0.11802449572E+01  0.00000000000E+00 0. -1.
         11    1    3    3    0    0  0.27511428249E+00  0.44316120119E+01  0.82646371819E+01  0.93818495459E+01  0.51100000000E-03 0. -1.
        -11    1    3    3    0    0  0.15633020164E+02  0.31372397060E+02 -0.17825457808E+02  0.39323854885E+02  0.51100000000E-03 0.  1.
         12    1    3    3    0    0 -0.15672179786E+02 -0.36902270319E+02  0.99229335792E+01  0.41302050612E+02  0.00000000000E+00 0. -1.
</event>
<event>
 7    1  0.1999542E-015  0.9000779E+02  0.7816164E-02  0.1186339E+00
        -11   -1    0    0    0    0  0.00000000000E+00  0.00000000000E+00  0.45593999997E+02  0.45594000000E+02  0.51100000000E-03 0. -1.
         11   -1    0    0    0    0 -0.00000000000E+00 -0.00000000000E+00 -0.45593999997E+02  0.45594000000E+02  0.51100000000E-03 0.  1.
    9900012    2    1    2    0    0  0.44470327493E+00  0.63756942786E+00 -0.88805197819E+00  0.90007791504E+02  0.90000053552E+02 0.  0.
         12    1    1    2    0    0 -0.44470327493E+00 -0.63756942786E+00  0.88805197819E+00  0.11802084960E+01  0.00000000000E+00 0. -1.
         11    1    3    3    0    0 -0.22958874294E+01  0.63889980486E+01 -0.60176790539E+01  0.90720921849E+01  0.51100000000E-03 0. -1.
        -11    1    3    3    0    0  0.21888301699E+02  0.53576099613E+01 -0.31143530888E+02  0.38441140100E+02  0.51100000000E-03 0.  1.
         12    1    3    3    0    0 -0.19147710995E+02 -0.11109038582E+02  0.36273157964E+02  0.42494559219E+02  0.00000000000E+00 0. -1.
</event>
<event>
 7    1  0.1999542E-015  0.9000786E+02  0.7816164E-02  0.1186339E+00
        -11   -1    0    0    0    0  0.00000000000E+00  0.00000000000E+00  0.45593999997E+02  0.45594000000E+02  0.51100000000E-03 0.  1.
         11   -1    0    0    0    0 -0.00000000000E+00 -0.00000000000E+00 -0.45593999997E+02  0.45594000000E+02  0.51100000000E-03 0. -1.
    9900012    2    1    2    0    0 -0.68305760449E-01 -0.10429625765E+01 -0.54799326021E+00  0.90007858811E+02  0.90000121747E+02 0.  0.
         12    1    1    2    0    0  0.68305760449E-01  0.10429625765E+01  0.54799326021E+00  0.11801411891E+01  0.00000000000E+00 0. -1.
         11    1    3    3    0    0  0.64872159705E+00 -0.75886361801E+01  0.64303278851E+01  0.99678159973E+01  0.51100000000E-03 0. -1.
        -11    1    3    3    0    0 -0.33787800741E+02 -0.10399267265E+02  0.13223807339E+02  0.37744262072E+02  0.51100000000E-03 0.  1.
         12    1    3    3    0    0  0.33070773383E+02  0.16944940869E+02 -0.20202128485E+02  0.42295780742E+02  0.00000000000E+00 0. -1.
</event>
<event>
 7    1  0.1999542E-015  0.9000774E+02  0.7816164E-02  0.1186339E+00
        -11   -1    0    0    0    0  0.00000000000E+00  0.00000000000E+00  0.45593999997E+02  0.45594000000E+02  0.51100000000E-03 0.  1.
         11   -1    0    0    0    0 -0.00000000000E+00 -0.00000000000E+00 -0.45593999997E+02  0.45594000000E+02  0.51100000000E-03 0. -1.
    9900012    2    1    2    0    0 -0.82700302399E+00 -0.77684833634E+00  0.32492784586E+00  0.90007743484E+02  0.90000004898E+02 0.  0.
         12    1    1    2    0    0  0.82700302399E+00  0.77684833634E+00 -0.32492784586E+00  0.11802565163E+01  0.00000000000E+00 0. -1.
         11    1    3    3    0    0  0.34035131754E+01 -0.55903000075E+01  0.11787339964E+02  0.13482460450E+02  0.51100000000E-03 0. -1.
        -11    1    3    3    0    0  0.17404713508E+02  0.23834524418E+02  0.18602618826E+02  0.34886473510E+02  0.51100000000E-03 0.  1.
         12    1    3    3    0    0 -0.21635229707E+02 -0.19021072747E+02 -0.30065030944E+02  0.41638809524E+02  0.00000000000E+00 0. -1.
</event>
<event>
 7    1  0.1999542E-015  0.9000773E+02  0.7816164E-02  0.1186339E+00
        -11   -1    0    0    0    0  0.00000000000E+00  0.00000000000E+00  0.45593999997E+02  0.45594000000E+02  0.51100000000E-03 0. -1.
         11   -1    0    0    0    0 -0.00000000000E+00 -0.00000000000E+00 -0.45593999997E+02  0.45594000000E+02  0.51100000000E-03 0.  1.
    9900012    2    1    2    0    0 -0.54713835204E+00 -0.87532098800E+00 -0.57226525482E+00  0.90007731077E+02  0.89999992327E+02 0.  0.
         12    1    1    2    0    0  0.54713835204E+00  0.87532098800E+00  0.57226525482E+00  0.11802689228E+01  0.00000000000E+00 0. -1.
         11    1    3    3    0    0 -0.23258779370E+01  0.81390273882E+01  0.54395748398E+01  0.10061930714E+02  0.51100000000E-03 0. -1.
        -11    1    3    3    0    0  0.23629744152E+02  0.20392459136E+02 -0.23769425609E+02  0.39232675060E+02  0.51100000000E-03 0.  1.
         12    1    3    3    0    0 -0.21851004567E+02 -0.29406807512E+02  0.17757585514E+02  0.40713125303E+02  0.00000000000E+00 0. -1.
</event>
<event>
 7    1  0.1999542E-015  0.9000767E+02  0.7816164E-02  0.1186339E+00
        -11   -1    0    0    0    0  0.00000000000E+00  0.00000000000E+00  0.45593999997E+02  0.45594000000E+02  0.51100000000E-03 0.  1.
         11   -1    0    0    0    0 -0.00000000000E+00 -0.00000000000E+00 -0.45593999997E+02  0.45594000000E+02  0.51100000000E-03 0. -1.
    9900012    2    1    2    0    0  0.99239244062E+00  0.60658366513E+00  0.20098656730E+00  0.90007668649E+02  0.89999929075E+02 0.  0.
         12    1    1    2    0    0 -0.99239244062E+00 -0.60658366513E+00 -0.20098656730E+00  0.11803313515E+01  0.00000000000E+00 0. -1.
         11    1    3    3    0    0 -0.49233650361E+01 -0.33268421803E+02 -0.11119869788E+02  0.35421447132E+02  0.51100000000E-03 0. -1.
        -11    1    3    3    0    0  0.71630290017E+01 -0.84104204234E+01  0.14101307052E+01  0.11136993537E+02  0.51100000000E-03 0.  1.
        -12    1    3    3    0    0 -0.12472715250E+01  0.42285425892E+02  0.99107256504E+01  0.43449227980E+02  0.00000000000E+00 0.  1.
</event>
<event>
 7    1  0.1999542E-015  0.9000900E+02  0.7816164E-02  0.1186337E+00
        -11   -1    0    0    0    0  0.00000000000E+00  0.00000000000E+00  0.45593999997E+02  0.45594000000E+02  0.51100000000E-03 0. -1.
         11   -1    0    0    0    0 -0.00000000000E+00 -0.00000000000E+00 -0.45593999997E+02  0.45594000000E+02  0.51100000000E-03 0.  1.
    9900012    2    1    2    0    0 -0.12804658256E-01 -0.10493673399E+01  0.53732242701E+00  0.90008995690E+02  0.90001273624E+02 0.  0.
         12    1    1    2    0    0  0.12804658256E-01  0.10493673399E+01 -0.53732242701E+00  0.11790043104E+01  0.00000000000E+00 0. -1.
         11    1    3    3    0    0  0.19330603834E+01 -0.74459396135E+01  0.35000682768E+01  0.84515807620E+01  0.51100000000E-03 0. -1.
        -11    1    3    3    0    0  0.22504821712E+02 -0.28377534534E+02 -0.11891132411E+02  0.38120211132E+02  0.51100000000E-03 0.  1.
         12    1    3    3    0    0 -0.24450686753E+02  0.34774106807E+02  0.89283865615E+01  0.43437203795E+02  0.00000000000E+00 0. -1.
</event>
<event>
 7    1  0.1999542E-015  0.9000776E+02  0.7816164E-02  0.1186339E+00
        -11   -1    0    0    0    0  0.00000000000E+00  0.00000000000E+00  0.45593999997E+02  0.45594000000E+02  0.51100000000E-03 0.  1.
         11   -1    0    0    0    0 -0.00000000000E+00 -0.00000000000E+00 -0.45593999997E+02  0.45594000000E+02  0.51100000000E-03 0. -1.
    9900012    2    1    2    0    0 -0.36937230370E-01  0.22481734547E+00  0.11580439500E+01  0.90007757233E+02  0.90000018829E+02 0.  0.
         12    1    1    2    0    0  0.36937230370E-01 -0.22481734547E+00 -0.11580439500E+01  0.11802427665E+01  0.00000000000E+00 0. -1.
         11    1    3    3    0    0 -0.16649724961E+02 -0.30579410743E+02  0.13382989914E+02  0.37301717413E+02  0.51100000000E-03 0.  1.
        -11    1    3    3    0    0  0.12865943871E+02 -0.60244824628E+01 -0.24254394643E+01  0.14412135771E+02  0.51100000000E-03 0. -1.
         12    1    3    3    0    0  0.37468438599E+01  0.36828710551E+02 -0.97995064996E+01  0.38293904050E+02  0.00000000000E+00 0. -1.
</event>
<event>
 7    1  0.1999542E-015  0.9000772E+02  0.7816164E-02  0.1186339E+00
        -11   -1    0    0    0    0  0.00000000000E+00  0.00000000000E+00  0.45593999997E+02  0.45594000000E+02  0.51100000000E-03 0.  1.
         11   -1    0    0    0    0 -0.00000000000E+00 -0.00000000000E+00 -0.45593999997E+02  0.45594000000E+02  0.51100000000E-03 0. -1.
    9900012    2    1    2    0    0  0.85195597323E+00  0.43707903101E+00 -0.69006749507E+00  0.90007720284E+02  0.89999981392E+02 0.  0.
         12    1    1    2    0    0 -0.85195597323E+00 -0.43707903101E+00  0.69006749507E+00  0.11802797158E+01  0.00000000000E+00 0. -1.
         11    1    3    3    0    0  0.78093955174E+01 -0.36101615814E+01 -0.30137840789E+01  0.91160747982E+01  0.51100000000E-03 0. -1.
        -11    1    3    3    0    0  0.13052774907E+02 -0.24782409279E+02 -0.24109423559E+02  0.36956826799E+02  0.51100000000E-03 0.  1.
         12    1    3    3    0    0 -0.20010214451E+02  0.28829649892E+02  0.26433140143E+02  0.43934818687E+02  0.00000000000E+00 0. -1.
</event>
<event>
 7    1  0.1999542E-015  0.9000768E+02  0.7816164E-02  0.1186339E+00
        -11   -1    0    0    0    0  0.00000000000E+00  0.00000000000E+00  0.45593999997E+02  0.45594000000E+02  0.51100000000E-03 0. -1.
         11   -1    0    0    0    0 -0.00000000000E+00 -0.00000000000E+00 -0.45593999997E+02  0.45594000000E+02  0.51100000000E-03 0.  1.
    9900012    2    1    2    0    0  0.25040818105E+00 -0.62338468626E+00 -0.97048750447E+00  0.90007678552E+02  0.89999939109E+02 0.  0.
         12    1    1    2    0    0 -0.25040818105E+00  0.62338468626E+00  0.97048750447E+00  0.11803214480E+01  0.00000000000E+00 0. -1.
         11    1    3    3    0    0  0.33527681178E+01  0.52267770674E+01 -0.60921652670E+01  0.86991223963E+01  0.51100000000E-03 0. -1.
        -11    1    3    3    0    0  0.17419510525E+02  0.29648379501E+02  0.17355882883E+02  0.38518728236E+02  0.51100000000E-03 0.  1.
         12    1    3    3    0    0 -0.20521870462E+02 -0.35498541255E+02 -0.12234205120E+02  0.42789827920E+02  0.00000000000E+00 0. -1.
</event>
<event>
 7    1  0.1999542E-015  0.9000755E+02  0.7816164E-02  0.1186339E+00
        -11   -1    0    0    0    0  0.00000000000E+00  0.00000000000E+00  0.45593999997E+02  0.45594000000E+02  0.51100000000E-03 0.  1.
         11   -1    0    0    0    0 -0.00000000000E+00 -0.00000000000E+00 -0.45593999997E+02  0.45594000000E+02  0.51100000000E-03 0. -1.
    9900012    2    1    2    0    0  0.38664712648E+00 -0.10446394596E+01  0.39077035905E+00  0.90007547089E+02  0.89999805911E+02 0.  0.
         12    1    1    2    0    0 -0.38664712648E+00  0.10446394596E+01 -0.39077035905E+00  0.11804529107E+01  0.00000000000E+00 0. -1.
         11    1    3    3    0    0  0.17082390516E+02  0.46225300287E+01 -0.33413265597E+02  0.37810344718E+02  0.51100000000E-03 0. -1.
        -11    1    3    3    0    0 -0.33751737513E+01  0.95067261852E+01 -0.27334604843E+01  0.10451863331E+02  0.51100000000E-03 0.  1.
        -12    1    3    3    0    0 -0.13320569638E+02 -0.15173895674E+02  0.36537496441E+02  0.41745339040E+02  0.00000000000E+00 0.  1.
</event>
<event>
 7    1  0.1999542E-015  0.9000759E+02  0.7816164E-02  0.1186339E+00
        -11   -1    0    0    0    0  0.00000000000E+00  0.00000000000E+00  0.45593999997E+02  0.45594000000E+02  0.51100000000E-03 0.  1.
         11   -1    0    0    0    0 -0.00000000000E+00 -0.00000000000E+00 -0.45593999997E+02  0.45594000000E+02  0.51100000000E-03 0. -1.
    9900012    2    1    2    0    0 -0.56210495419E+00  0.50682274013E+00 -0.90584056609E+00  0.90007585496E+02  0.89999844825E+02 0.  0.
         12    1    1    2    0    0  0.56210495419E+00 -0.50682274013E+00  0.90584056609E+00  0.11804145037E+01  0.00000000000E+00 0. -1.
         11    1    3    3    0    0 -0.67844797950E+01  0.34627700973E-01 -0.68726509188E+01  0.96573130880E+01  0.51100000000E-03 0. -1.
        -11    1    3    3    0    0 -0.11673500592E+02  0.34086113735E+02  0.18183024268E+02  0.40357851001E+02  0.51100000000E-03 0.  1.
         12    1    3    3    0    0  0.17895875433E+02 -0.33613918696E+02 -0.12216213915E+02  0.39992421407E+02  0.00000000000E+00 0. -1.
</event>
<event>
 7    1  0.1999542E-015  0.9000775E+02  0.7816164E-02  0.1186339E+00
        -11   -1    0    0    0    0  0.00000000000E+00  0.00000000000E+00  0.45593999997E+02  0.45594000000E+02  0.51100000000E-03 0.  1.
         11   -1    0    0    0    0 -0.00000000000E+00 -0.00000000000E+00 -0.45593999997E+02  0.45594000000E+02  0.51100000000E-03 0. -1.
    9900012    2    1    2    0    0 -0.25547737518E+00  0.34648583163E+00  0.10989410041E+01  0.90007748988E+02  0.90000010475E+02 0.  0.
         12    1    1    2    0    0  0.25547737518E+00 -0.34648583163E+00 -0.10989410041E+01  0.11802510119E+01  0.00000000000E+00 0. -1.
         11    1    3    3    0    0  0.29630710989E+02 -0.30982741415E+02 -0.61976185447E+01  0.43316506960E+02  0.51100000000E-03 0. -1.
        -11    1    3    3    0    0 -0.37095112432E+01  0.81674534294E+01 -0.41884605953E+01  0.99000490708E+01  0.51100000000E-03 0.  1.
        -12    1    3    3    0    0 -0.26176677121E+02  0.23161773818E+02  0.11485020144E+02  0.36791192957E+02  0.00000000000E+00 0.  1.
</event>
<event>
 7    1  0.1999542E-015  0.9000784E+02  0.7816164E-02  0.1186339E+00
        -11   -1    0    0    0    0  0.00000000000E+00  0.00000000000E+00  0.45593999997E+02  0.45594000000E+02  0.51100000000E-03 0.  1.
         11   -1    0    0    0    0 -0.00000000000E+00 -0.00000000000E+00 -0.45593999997E+02  0.45594000000E+02  0.51100000000E-03 0. -1.
    9900012    2    1    2    0    0  0.10382859231E+01 -0.40908553440E+00 -0.38392191028E+00  0.90007837017E+02  0.90000099666E+02 0.  0.
         12    1    1    2    0    0 -0.10382859231E+01  0.40908553440E+00  0.38392191028E+00  0.11801629827E+01  0.00000000000E+00 0. -1.
         11    1    3    3    0    0 -0.30416532367E+02  0.12284687967E+01 -0.21602550332E+02  0.37327533510E+02  0.51100000000E-03 0. -1.
        -11    1    3    3    0    0 -0.80771074905E+01  0.20812310971E+01  0.54143488132E+01  0.99441621881E+01  0.51100000000E-03 0.  1.
        -12    1    3    3    0    0  0.39531925780E+02 -0.37187854282E+01  0.15804279609E+02  0.42736141320E+02  0.00000000000E+00 0.  1.
</event>
<event>
 7    1  0.1999542E-015  0.9000773E+02  0.7816164E-02  0.1186339E+00
        -11   -1    0    0    0    0  0.00000000000E+00  0.00000000000E+00  0.45593999997E+02  0.45594000000E+02  0.51100000000E-03 0.  1.
         11   -1    0    0    0    0 -0.00000000000E+00 -0.00000000000E+00 -0.45593999997E+02  0.45594000000E+02  0.51100000000E-03 0. -1.
    9900012    2    1    2    0    0 -0.24194861923E+00 -0.24640323383E+00  0.11286203389E+01  0.90007729879E+02  0.89999991114E+02 0.  0.
         12    1    1    2    0    0  0.24194861923E+00  0.24640323383E+00 -0.11286203389E+01  0.11802701205E+01  0.00000000000E+00 0. -1.
         11    1    3    3    0    0 -0.16360970210E+02 -0.27209071381E+02  0.41348292768E+01  0.32017365991E+02  0.51100000000E-03 0. -1.
        -11    1    3    3    0    0  0.76313278991E+01 -0.13085737089E+02 -0.73227608323E+01  0.16825471973E+02  0.51100000000E-03 0.  1.
        -12    1    3    3    0    0  0.84876936914E+01  0.40048405236E+02  0.43165518944E+01  0.41164891915E+02  0.00000000000E+00 0.  1.
</event>
<event>
 7    1  0.1999542E-015  0.9000771E+02  0.7816164E-02  0.1186339E+00
        -11   -1    0    0    0    0  0.00000000000E+00  0.00000000000E+00  0.45593999997E+02  0.45594000000E+02  0.51100000000E-03 0.  1.
         11   -1    0    0    0    0 -0.00000000000E+00 -0.00000000000E+00 -0.45593999997E+02  0.45594000000E+02  0.51100000000E-03 0. -1.
    9900012    2    1    2    0    0  0.56547712942E+00  0.79855027335E+00  0.66002604366E+00  0.90007711348E+02  0.89999972338E+02 0.  0.
         12    1    1    2    0    0 -0.56547712942E+00 -0.79855027335E+00 -0.66002604366E+00  0.11802886517E+01  0.00000000000E+00 0. -1.
         11    1    3    3    0    0  0.85084412221E+01  0.21904881367E+01 -0.43028766619E+01  0.97829728679E+01  0.51100000000E-03 0. -1.
        -11    1    3    3    0    0  0.17823551443E+02 -0.32743851380E+02 -0.69672260553E+01  0.37925994099E+02  0.51100000000E-03 0.  1.
         12    1    3    3    0    0 -0.25766515536E+02  0.31351913516E+02  0.11930128761E+02  0.42298744381E+02  0.00000000000E+00 0. -1.
</event>
<event>
 7    1  0.1999542E-015  0.9000776E+02  0.7816164E-02  0.1186339E+00
        -11   -1    0    0    0    0  0.00000000000E+00  0.00000000000E+00  0.45593999997E+02  0.45594000000E+02  0.51100000000E-03 0.  1.
         11   -1    0    0    0    0 -0.00000000000E+00 -0.00000000000E+00 -0.45593999997E+02  0.45594000000E+02  0.51100000000E-03 0. -1.
    9900012    2    1    2    0    0 -0.61936353725E-01 -0.13860044809E+00  0.11704376212E+01  0.90007758321E+02  0.90000019931E+02 0.  0.
         12    1    1    2    0    0  0.61936353725E-01  0.13860044809E+00 -0.11704376212E+01  0.11802416792E+01  0.00000000000E+00 0. -1.
         11    1    3    3    0    0 -0.79122839722E+01  0.56170209014E+01 -0.19310851066E+00  0.97052796261E+01  0.51100000000E-03 0. -1.
        -11    1    3    3    0    0  0.33194688451E+02  0.12518784210E+02  0.23015062899E+02  0.42288301219E+02  0.51100000000E-03 0.  1.
         12    1    3    3    0    0 -0.25344340833E+02 -0.18274405560E+02 -0.21651516767E+02  0.38014177476E+02  0.00000000000E+00 0. -1.
</event>
<event>
 7    1  0.1999542E-015  0.9000779E+02  0.7816164E-02  0.1186339E+00
        -11   -1    0    0    0    0  0.00000000000E+00  0.00000000000E+00  0.45593999997E+02  0.45594000000E+02  0.51100000000E-03 0. -1.
         11   -1    0    0    0    0 -0.00000000000E+00 -0.00000000000E+00 -0.45593999997E+02  0.45594000000E+02  0.51100000000E-03 0.  1.
    9900012    2    1    2    0    0  0.12762419671E+00  0.72856204732E+00 -0.91967314814E+00  0.90007792691E+02  0.90000054755E+02 0.  0.
         12    1    1    2    0    0 -0.12762419671E+00 -0.72856204732E+00  0.91967314814E+00  0.11802073088E+01  0.00000000000E+00 0. -1.
         11    1    3    3    0    0 -0.21598843518E+02 -0.33181235318E+02 -0.13040610668E+02  0.41684073042E+02  0.51100000000E-03 0. -1.
        -11    1    3    3    0    0 -0.26126476396E+01  0.91946132276E+01 -0.36336400771E+01  0.10225956218E+02  0.51100000000E-03 0.  1.
        -12    1    3    3    0    0  0.24339115355E+02  0.24715184137E+02  0.15754577597E+02  0.38097763431E+02  0.00000000000E+00 0.  1.
</event>
<event>
 7    1  0.1999542E-015  0.9000772E+02  0.7816164E-02  0.1186339E+00
        -11   -1    0    0    0    0  0.00000000000E+00  0.00000000000E+00  0.45593999997E+02  0.45594000000E+02  0.51100000000E-03 0. -1.
         11   -1    0    0    0    0 -0.00000000000E+00 -0.00000000000E+00 -0.45593999997E+02  0.45594000000E+02  0.51100000000E-03 0.  1.
    9900012    2    1    2    0    0  0.31430643985E+00 -0.19478615449E+00 -0.11208609578E+01  0.90007720596E+02  0.89999981708E+02 0.  0.
         12    1    1    2    0    0 -0.31430643985E+00  0.19478615449E+00  0.11208609578E+01  0.11802794037E+01  0.00000000000E+00 0. -1.
         11    1    3    3    0    0  0.42773111102E+01 -0.99559057266E+01 -0.45098566415E+01  0.11736875920E+02  0.51100000000E-03 0. -1.
        -11    1    3    3    0    0  0.34245437699E+02  0.40879797246E+01 -0.12247505784E+02  0.36598674561E+02  0.51100000000E-03 0.  1.
         12    1    3    3    0    0 -0.38208442369E+02  0.56731398475E+01  0.15636501468E+02  0.41672170116E+02  0.00000000000E+00 0. -1.
</event>
<event>
 7    1  0.1999542E-015  0.9000772E+02  0.7816164E-02  0.1186339E+00
        -11   -1    0    0    0    0  0.00000000000E+00  0.00000000000E+00  0.45593999997E+02  0.45594000000E+02  0.51100000000E-03 0.  1.
         11   -1    0    0    0    0 -0.00000000000E+00 -0.00000000000E+00 -0.45593999997E+02  0.45594000000E+02  0.51100000000E-03 0. -1.
    9900012    2    1    2    0    0 -0.56703386970E+00  0.78835976063E+00  0.67083623896E+00  0.90007720465E+02  0.89999981575E+02 0.  0.
         12    1    1    2    0    0  0.56703386970E+00 -0.78835976063E+00 -0.67083623896E+00  0.11802795351E+01  0.00000000000E+00 0. -1.
         11    1    3    3    0    0 -0.80317397867E+01  0.12900801632E+02 -0.32246378242E+02  0.35647839160E+02  0.51100000000E-03 0. -1.
        -11    1    3    3    0    0  0.21108966351E+01  0.56582934439E+01 -0.76512616779E+01  0.97475112119E+01  0.51100000000E-03 0.  1.
        -12    1    3    3    0    0  0.53538092819E+01 -0.17770735315E+02  0.40568476159E+02  0.44612370093E+02  0.00000000000E+00 0.  1.
</event>
<event>
 7    1  0.1999542E-015  0.9000773E+02  0.7816164E-02  0.1186339E+00
        -11   -1    0    0    0    0  0.00000000000E+00  0.00000000000E+00  0.45593999997E+02  0.45594000000E+02  0.51100000000E-03 0.  1.
         11   -1    0    0    0    0 -0.00000000000E+00 -0.00000000000E+00 -0.45593999997E+02  0.45594000000E+02  0.51100000000E-03 0. -1.
    9900012    2    1    2    0    0 -0.78471582235E+00 -0.43552878569E+00 -0.76653278122E+00  0.90007730222E+02  0.89999991461E+02 0.  0.
         12    1    1    2    0    0  0.78471582235E+00  0.43552878569E+00  0.76653278122E+00  0.11802697783E+01  0.00000000000E+00 0. -1.
         11    1    3    3    0    0  0.41909044237E+02 -0.53815536738E+01  0.67909938440E+01  0.42795405203E+02  0.51100000000E-03 0. -1.
        -11    1    3    3    0    0  0.32032038747E+00 -0.11056253129E+01 -0.33842014039E+01  0.35746093334E+01  0.51100000000E-03 0.  1.
        -12    1    3    3    0    0 -0.43014080447E+02  0.60516502010E+01 -0.41733252214E+01  0.43637715686E+02  0.00000000000E+00 0.  1.
</event>
<event>
 7    1  0.1999542E-015  0.9000805E+02  0.7816164E-02  0.1186338E+00
        -11   -1    0    0    0    0  0.00000000000E+00  0.00000000000E+00  0.45593999997E+02  0.45594000000E+02  0.51100000000E-03 0. -1.
         11   -1    0    0    0    0 -0.00000000000E+00 -0.00000000000E+00 -0.45593999997E+02  0.45594000000E+02  0.51100000000E-03 0.  1.
    9900012    2    1    2    0    0  0.11433517270E+01 -0.18796847231E+00 -0.22292141279E+00  0.90008051156E+02  0.90000316631E+02 0.  0.
         12    1    1    2    0    0 -0.11433517270E+01  0.18796847231E+00  0.22292141279E+00  0.11799488440E+01  0.00000000000E+00 0. -1.
         11    1    3    3    0    0 -0.40248204316E+01 -0.19929779350E+01 -0.72320607756E+01  0.85131571041E+01  0.51100000000E-03 0. -1.
        -11    1    3    3    0    0 -0.26511624104E+02 -0.24313270094E+02 -0.95577937966E+01  0.37220326944E+02  0.51100000000E-03 0.  1.
         12    1    3    3    0    0  0.31679796263E+02  0.26118279557E+02  0.16566933159E+02  0.44274567108E+02  0.00000000000E+00 0. -1.
</event>
<event>
 7    1  0.1999542E-015  0.9000760E+02  0.7816164E-02  0.1186339E+00
        -11   -1    0    0    0    0  0.00000000000E+00  0.00000000000E+00  0.45593999997E+02  0.45594000000E+02  0.51100000000E-03 0.  1.
         11   -1    0    0    0    0 -0.00000000000E+00 -0.00000000000E+00 -0.45593999997E+02  0.45594000000E+02  0.51100000000E-03 0. -1.
    9900012    2    1    2    0    0 -0.30932104076E+00 -0.69886153900E+00  0.89958181870E+00  0.90007604132E+02  0.89999863706E+02 0.  0.
         12    1    1    2    0    0  0.30932104076E+00  0.69886153900E+00 -0.89958181870E+00  0.11803958681E+01  0.00000000000E+00 0. -1.
         11    1    3    3    0    0 -0.16316597993E+02  0.35471305104E+02 -0.14641190825E+02  0.41699032661E+02  0.51100000000E-03 0. -1.
        -11    1    3    3    0    0 -0.54568530726E+01 -0.69701154037E+01 -0.61913920904E-01  0.88523210398E+01  0.51100000000E-03 0.  1.
        -12    1    3    3    0    0  0.21464130024E+02 -0.29200051239E+02  0.15602686564E+02  0.39456250431E+02  0.00000000000E+00 0.  1.
</event>
<event>
 7    1  0.1999542E-015  0.9000771E+02  0.7816164E-02  0.1186339E+00
        -11   -1    0    0    0    0  0.00000000000E+00  0.00000000000E+00  0.45593999997E+02  0.45594000000E+02  0.51100000000E-03 0.  1.
         11   -1    0    0    0    0 -0.00000000000E+00 -0.00000000000E+00 -0.45593999997E+02  0.45594000000E+02  0.51100000000E-03 0. -1.
    9900012    2    1    2    0    0  0.22551082502E+00  0.46788884277E+00  0.10598613284E+01  0.90007711418E+02  0.89999972409E+02 0.  0.
         12    1    1    2    0    0 -0.22551082502E+00 -0.46788884277E+00 -0.10598613284E+01  0.11802885820E+01  0.00000000000E+00 0. -1.
         11    1    3    3    0    0 -0.12976440105E+02  0.31502588007E+01 -0.35890431328E+02  0.38294062065E+02  0.51100000000E-03 0. -1.
        -11    1    3    3    0    0  0.34205680194E+01 -0.39971801373E+01 -0.58048728124E+01  0.78341740633E+01  0.51100000000E-03 0.  1.
        -12    1    3    3    0    0  0.97813829105E+01  0.13148101793E+01  0.42755165468E+02  0.43879475290E+02  0.00000000000E+00 0.  1.
</event>
<event>
 7    1  0.1999542E-015  0.9000776E+02  0.7816164E-02  0.1186339E+00
        -11   -1    0    0    0    0  0.00000000000E+00  0.00000000000E+00  0.45593999997E+02  0.45594000000E+02  0.51100000000E-03 0.  1.
         11   -1    0    0    0    0 -0.00000000000E+00 -0.00000000000E+00 -0.45593999997E+02  0.45594000000E+02  0.51100000000E-03 0. -1.
    9900012    2    1    2    0    0  0.35371989987E+00  0.10736105796E+01 -0.33941140284E+00  0.90007763776E+02  0.90000025458E+02 0.  0.
         12    1    1    2    0    0 -0.35371989987E+00 -0.10736105796E+01  0.33941140284E+00  0.11802362240E+01  0.00000000000E+00 0. -1.
         11    1    3    3    0    0 -0.16653235854E+01  0.48368459174E+00 -0.10777140293E+02  0.10915768713E+02  0.51100000000E-03 0. -1.
        -11    1    3    3    0    0 -0.29200996136E+02 -0.24055823145E+02  0.10692454248E+02  0.39315510687E+02  0.51100000000E-03 0.  1.
         12    1    3    3    0    0  0.31220039621E+02  0.24645749133E+02 -0.25472535698E+00  0.39776484376E+02  0.00000000000E+00 0. -1.
</event>
<event>
 7    1  0.1999542E-015  0.9000775E+02  0.7816164E-02  0.1186339E+00
        -11   -1    0    0    0    0  0.00000000000E+00  0.00000000000E+00  0.45593999997E+02  0.45594000000E+02  0.51100000000E-03 0.  1.
         11   -1    0    0    0    0 -0.00000000000E+00 -0.00000000000E+00 -0.45593999997E+02  0.45594000000E+02  0.51100000000E-03 0. -1.
    9900012    2    1    2    0    0  0.11618099414E+01 -0.13013638296E+00 -0.16199390116E+00  0.90007754330E+02  0.90000015887E+02 0.  0.
         12    1    1    2    0    0 -0.11618099414E+01  0.13013638296E+00  0.16199390116E+00  0.11802456702E+01  0.00000000000E+00 0. -1.
         11    1    3    3    0    0 -0.26863982938E+02 -0.13826494345E+02 -0.23873454060E+02  0.38506977733E+02  0.51100000000E-03 0. -1.
        -11    1    3    3    0    0  0.84751327801E+01 -0.22265682143E+01 -0.73896887994E+01  0.11462677805E+02  0.51100000000E-03 0.  1.
        -12    1    3    3    0    0  0.19550660099E+02  0.15922926176E+02  0.31101148958E+02  0.40038098791E+02  0.00000000000E+00 0.  1.
</event>
<event>
 7    1  0.1999542E-015  0.9000772E+02  0.7816164E-02  0.1186339E+00
        -11   -1    0    0    0    0  0.00000000000E+00  0.00000000000E+00  0.45593999997E+02  0.45594000000E+02  0.51100000000E-03 0. -1.
         11   -1    0    0    0    0 -0.00000000000E+00 -0.00000000000E+00 -0.45593999997E+02  0.45594000000E+02  0.51100000000E-03 0.  1.
    9900012    2    1    2    0    0 -0.52958974273E+00 -0.10124838548E+01 -0.29577088562E+00  0.90007716446E+02  0.89999977503E+02 0.  0.
         12    1    1    2    0    0  0.52958974273E+00  0.10124838548E+01  0.29577088562E+00  0.11802835543E+01  0.00000000000E+00 0. -1.
         11    1    3    3    0    0 -0.38883379400E+01 -0.41846280157E+01  0.68293876700E+01  0.89034161856E+01  0.51100000000E-03 0. -1.
        -11    1    3    3    0    0  0.40103018512E+02  0.10934507655E+02  0.44529374139E+01  0.41804834688E+02  0.51100000000E-03 0.  1.
         12    1    3    3    0    0 -0.36744270315E+02 -0.77623634938E+01 -0.11578095970E+02  0.39299465572E+02  0.00000000000E+00 0. -1.
</event>
<event>
 7    1  0.1999542E-015  0.9000772E+02  0.7816164E-02  0.1186339E+00
        -11   -1    0    0    0    0  0.00000000000E+00  0.00000000000E+00  0.45593999997E+02  0.45594000000E+02  0.51100000000E-03 0.  1.
         11   -1    0    0    0    0 -0.00000000000E+00 -0.00000000000E+00 -0.45593999997E+02  0.45594000000E+02  0.51100000000E-03 0. -1.
    9900012    2    1    2    0    0 -0.54602932066E+00  0.78837432192E+00  0.68801924672E+00  0.90007723518E+02  0.89999984668E+02 0.  0.
         12    1    1    2    0    0  0.54602932066E+00 -0.78837432192E+00 -0.68801924672E+00  0.11802764822E+01  0.00000000000E+00 0. -1.
         11    1    3    3    0    0  0.75149147845E+00 -0.21796150750E+02 -0.45270216719E+01  0.22273994982E+02  0.51100000000E-03 0. -1.
        -11    1    3    3    0    0 -0.11755454706E+02 -0.87110259398E+01  0.25212489832E+02  0.29150340170E+02  0.51100000000E-03 0.  1.
         12    1    3    3    0    0  0.10457933907E+02  0.31295551012E+02 -0.19997448913E+02  0.38583388366E+02  0.00000000000E+00 0. -1.
</event>
<event>
 7    1  0.1999542E-015  0.9000767E+02  0.7816164E-02  0.1186339E+00
        -11   -1    0    0    0    0  0.00000000000E+00  0.00000000000E+00  0.45593999997E+02  0.45594000000E+02  0.51100000000E-03 0. -1.
         11   -1    0    0    0    0 -0.00000000000E+00 -0.00000000000E+00 -0.45593999997E+02  0.45594000000E+02  0.51100000000E-03 0.  1.
    9900012    2    1    2    0    0  0.82149764187E+00  0.83414988391E+00  0.15007232297E+00  0.90007666951E+02  0.89999927355E+02 0.  0.
         12    1    1    2    0    0 -0.82149764187E+00 -0.83414988391E+00 -0.15007232297E+00  0.11803330490E+01  0.00000000000E+00 0. -1.
         11    1    3    3    0    0  0.83876174942E+00 -0.74022803142E+01 -0.21521888505E+01  0.77543015309E+01  0.51100000000E-03 0. -1.
        -11    1    3    3    0    0 -0.34664178922E+02  0.39672237496E+01 -0.20585225773E+02  0.40510439210E+02  0.51100000000E-03 0.  1.
         12    1    3    3    0    0  0.34646914815E+02  0.42692064485E+01  0.22887486946E+02  0.41742926210E+02  0.00000000000E+00 0. -1.
</event>
<event>
 7    1  0.1999542E-015  0.9000772E+02  0.7816164E-02  0.1186339E+00
        -11   -1    0    0    0    0  0.00000000000E+00  0.00000000000E+00  0.45593999997E+02  0.45594000000E+02  0.51100000000E-03 0. -1.
         11   -1    0    0    0    0 -0.00000000000E+00 -0.00000000000E+00 -0.45593999997E+02  0.45594000000E+02  0.51100000000E-03 0.  1.
    9900012    2    1    2    0    0  0.98571984175E+00 -0.50052818983E+00 -0.41339590067E+00  0.90007716879E+02  0.89999977942E+02 0.  0.
         12    1    1    2    0    0 -0.98571984175E+00  0.50052818983E+00  0.41339590067E+00  0.11802831211E+01  0.00000000000E+00 0. -1.
         11    1    3    3    0    0  0.14163294535E+01 -0.11022810953E+01 -0.97900812721E+01  0.99532258243E+01  0.51100000000E-03 0. -1.
        -11    1    3    3    0    0  0.95438673107E+00 -0.39431663294E+02  0.43116395439E+01  0.39678169817E+02  0.51100000000E-03 0.  1.
         12    1    3    3    0    0 -0.13849963428E+01  0.40033416200E+02  0.50650458275E+01  0.40376321238E+02  0.00000000000E+00 0. -1.
</event>
<event>
 7    1  0.1999542E-015  0.9000772E+02  0.7816164E-02  0.1186339E+00
        -11   -1    0    0    0    0  0.00000000000E+00  0.00000000000E+00  0.45593999997E+02  0.45594000000E+02  0.51100000000E-03 0. -1.
         11   -1    0    0    0    0 -0.00000000000E+00 -0.00000000000E+00 -0.45593999997E+02  0.45594000000E+02  0.51100000000E-03 0.  1.
    9900012    2    1    2    0    0 -0.21991709447E+00  0.10845812240E+00 -0.11545229395E+01  0.90007724646E+02  0.89999985812E+02 0.  0.
         12    1    1    2    0    0  0.21991709447E+00 -0.10845812240E+00  0.11545229395E+01  0.11802753537E+01  0.00000000000E+00 0. -1.
         11    1    3    3    0    0  0.15398371770E+02  0.19008145183E+01 -0.27504974770E+01  0.15757162995E+02  0.51100000000E-03 0. -1.
        -11    1    3    3    0    0 -0.31865846905E+02 -0.14193034371E+02 -0.23367471381E+02  0.41987059228E+02  0.51100000000E-03 0.  1.
         12    1    3    3    0    0  0.16247558040E+02  0.12400677975E+02  0.24963445919E+02  0.32263502424E+02  0.00000000000E+00 0. -1.
</event>
<event>
 7    1  0.2911620E-015  0.9000782E+02  0.7816164E-02  0.1186339E+00
        -11   -1    0    0    0    0  0.00000000000E+00  0.00000000000E+00  0.45593999997E+02  0.45594000000E+02  0.51100000000E-03 0. -1.
         11   -1    0    0    0    0 -0.00000000000E+00 -0.00000000000E+00 -0.45593999997E+02  0.45594000000E+02  0.51100000000E-03 0.  1.
    9900012    2    1    2    0    0 -0.11215807262E+00  0.16610503882E-01 -0.11747239959E+01  0.90007817044E+02  0.90000079429E+02 0.  0.
         12    1    1    2    0    0  0.11215807262E+00 -0.16610503882E-01  0.11747239959E+01  0.11801829555E+01  0.00000000000E+00 0. -1.
         11    1    3    3    0    0  0.26558423993E+02 -0.38725404810E+01  0.27733954674E+02  0.38594283215E+02  0.51100000000E-03 0. -1.
        -11    1    3    3    0    0  0.33179465951E+01 -0.84694463401E+01 -0.21053487588E+01  0.93366366843E+01  0.51100000000E-03 0.  1.
        -12    1    3    3    0    0 -0.29988528661E+02  0.12358597325E+02 -0.26803329911E+02  0.42076897145E+02  0.00000000000E+00 0.  1.
</event>
<event>
 7    1  0.1999542E-015  0.9000773E+02  0.7816164E-02  0.1186339E+00
        -11   -1    0    0    0    0  0.00000000000E+00  0.00000000000E+00  0.45593999997E+02  0.45594000000E+02  0.51100000000E-03 0. -1.
         11   -1    0    0    0    0 -0.00000000000E+00 -0.00000000000E+00 -0.45593999997E+02  0.45594000000E+02  0.51100000000E-03 0.  1.
    9900012    2    1    2    0    0  0.92734164541E+00 -0.59975638508E+00  0.41636197636E+00  0.90007734121E+02  0.89999995412E+02 0.  0.
         12    1    1    2    0    0 -0.92734164541E+00  0.59975638508E+00 -0.41636197636E+00  0.11802658786E+01  0.00000000000E+00 0. -1.
         11    1    3    3    0    0 -0.11359135570E+02 -0.15892747886E+01 -0.84555191608E+01  0.14249616128E+02  0.51100000000E-03 0. -1.
        -11    1    3    3    0    0  0.31092967913E+02 -0.20783231294E+02 -0.13025167304E+02  0.39602655721E+02  0.51100000000E-03 0.  1.
         12    1    3    3    0    0 -0.18806490697E+02  0.21772749697E+02  0.21897048441E+02  0.36155462273E+02  0.00000000000E+00 0. -1.
</event>
<event>
 7    1  0.1999542E-015  0.9000779E+02  0.7816164E-02  0.1186339E+00
        -11   -1    0    0    0    0  0.00000000000E+00  0.00000000000E+00  0.45593999997E+02  0.45594000000E+02  0.51100000000E-03 0. -1.
         11   -1    0    0    0    0 -0.00000000000E+00 -0.00000000000E+00 -0.45593999997E+02  0.45594000000E+02  0.51100000000E-03 0.  1.
    9900012    2    1    2    0    0  0.10521970305E+01  0.87779837652E-01 -0.52733538200E+00  0.90007785403E+02  0.90000047370E+02 0.  0.
         12    1    1    2    0    0 -0.10521970305E+01 -0.87779837652E-01  0.52733538200E+00  0.11802145975E+01  0.00000000000E+00 0. -1.
         11    1    3    3    0    0  0.59002564241E+01  0.32485178198E+02 -0.21580446059E+02  0.39443826904E+02  0.51100000000E-03 0. -1.
        -11    1    3    3    0    0  0.85246260546E+01 -0.34759045521E+01 -0.39933835643E+01  0.10034852982E+02  0.51100000000E-03 0.  1.
        -12    1    3    3    0    0 -0.13372685448E+02 -0.28921493808E+02  0.25046494241E+02  0.40529105517E+02  0.00000000000E+00 0.  1.
</event>
<event>
 7    1  0.1999542E-015  0.9000781E+02  0.7816164E-02  0.1186339E+00
        -11   -1    0    0    0    0  0.00000000000E+00  0.00000000000E+00  0.45593999997E+02  0.45594000000E+02  0.51100000000E-03 0. -1.
         11   -1    0    0    0    0 -0.00000000000E+00 -0.00000000000E+00 -0.45593999997E+02  0.45594000000E+02  0.51100000000E-03 0.  1.
    9900012    2    1    2    0    0  0.14798733365E+00  0.11377429440E+01 -0.27658521211E+00  0.90007805678E+02  0.90000067913E+02 0.  0.
         12    1    1    2    0    0 -0.14798733365E+00 -0.11377429440E+01  0.27658521211E+00  0.11801943218E+01  0.00000000000E+00 0. -1.
         11    1    3    3    0    0  0.21084514509E+01  0.89204110086E+01 -0.16867586916E+01  0.93201102584E+01  0.51100000000E-03 0. -1.
        -11    1    3    3    0    0  0.31457611311E+02  0.19943804810E+02  0.17001961165E+00  0.37247356505E+02  0.51100000000E-03 0.  1.
         12    1    3    3    0    0 -0.33418075428E+02 -0.27726472875E+02  0.12401538678E+01  0.43440338915E+02  0.00000000000E+00 0. -1.
</event>
<event>
 7    1  0.1999542E-015  0.9000692E+02  0.7816164E-02  0.1186341E+00
        -11   -1    0    0    0    0  0.00000000000E+00  0.00000000000E+00  0.45593999997E+02  0.45594000000E+02  0.51100000000E-03 0.  1.
         11   -1    0    0    0    0 -0.00000000000E+00 -0.00000000000E+00 -0.45593999997E+02  0.45594000000E+02  0.51100000000E-03 0. -1.
    9900012    2    1    2    0    0  0.83734487518E+00  0.14715484921E+00  0.81984868331E+00  0.90006918778E+02  0.89999169302E+02 0.  0.
         12    1    1    2    0    0 -0.83734487518E+00 -0.14715484921E+00 -0.81984868331E+00  0.11810812221E+01  0.00000000000E+00 0. -1.
         11    1    3    3    0    0  0.48375253095E+01  0.67582653830E+01 -0.40176830920E+01  0.92313368369E+01  0.51100000000E-03 0. -1.
        -11    1    3    3    0    0 -0.34215278866E+02 -0.23111719314E+02 -0.11221299451E+02  0.42787316335E+02  0.51100000000E-03 0.  1.
         12    1    3    3    0    0  0.30215098432E+02  0.16500608781E+02  0.16058831227E+02  0.37988265606E+02  0.00000000000E+00 0. -1.
</event>
<event>
 7    1  0.1999542E-015  0.9000773E+02  0.7816164E-02  0.1186339E+00
        -11   -1    0    0    0    0  0.00000000000E+00  0.00000000000E+00  0.45593999997E+02  0.45594000000E+02  0.51100000000E-03 0.  1.
         11   -1    0    0    0    0 -0.00000000000E+00 -0.00000000000E+00 -0.45593999997E+02  0.45594000000E+02  0.51100000000E-03 0. -1.
    9900012    2    1    2    0    0 -0.68517592341E+00  0.39282280452E+00  0.87708075281E+00  0.90007726113E+02  0.89999987298E+02 0.  0.
         12    1    1    2    0    0  0.68517592341E+00 -0.39282280452E+00 -0.87708075281E+00  0.11802738872E+01  0.00000000000E+00 0. -1.
         11    1    3    3    0    0  0.53938458195E+01  0.69963984347E+01  0.30028243441E+01  0.93306011642E+01  0.51100000000E-03 0. -1.
        -11    1    3    3    0    0  0.11988113344E+01 -0.24710795900E+02  0.32551411601E+02  0.40885877514E+02  0.51100000000E-03 0.  1.
         12    1    3    3    0    0 -0.72778330773E+01  0.18107220270E+02 -0.34677155192E+02  0.39791247435E+02  0.00000000000E+00 0. -1.
</event>
<event>
 7    1  0.1999542E-015  0.9000772E+02  0.7816164E-02  0.1186339E+00
        -11   -1    0    0    0    0  0.00000000000E+00  0.00000000000E+00  0.45593999997E+02  0.45594000000E+02  0.51100000000E-03 0.  1.
         11   -1    0    0    0    0 -0.00000000000E+00 -0.00000000000E+00 -0.45593999997E+02  0.45594000000E+02  0.51100000000E-03 0. -1.
    9900012    2    1    2    0    0  0.48132335047E+00  0.95116459840E+00 -0.50662263886E+00  0.90007723440E+02  0.89999984589E+02 0.  0.
         12    1    1    2    0    0 -0.48132335047E+00 -0.95116459840E+00  0.50662263886E+00  0.11802765605E+01  0.00000000000E+00 0. -1.
         11    1    3    3    0    0 -0.87782978378E+01  0.51978010571E+01  0.67784322342E+01  0.12248379182E+02  0.51100000000E-03 0. -1.
        -11    1    3    3    0    0  0.23949199369E+02  0.20284122336E+02  0.20822998968E+02  0.37664400376E+02  0.51100000000E-03 0.  1.
         12    1    3    3    0    0 -0.14689578181E+02 -0.24530758795E+02 -0.28108053841E+02  0.40094943882E+02  0.00000000000E+00 0. -1.
</event>
<event>
 7    1  0.1999542E-015  0.9000778E+02  0.7816164E-02  0.1186339E+00
        -11   -1    0    0    0    0  0.00000000000E+00  0.00000000000E+00  0.45593999997E+02  0.45594000000E+02  0.51100000000E-03 0.  1.
         11   -1    0    0    0    0 -0.00000000000E+00 -0.00000000000E+00 -0.45593999997E+02  0.45594000000E+02  0.51100000000E-03 0. -1.
    9900012    2    1    2    0    0 -0.33384951183E+00 -0.11241884610E+01  0.13287554091E+00  0.90007783451E+02  0.90000045393E+02 0.  0.
         12    1    1    2    0    0  0.33384951183E+00  0.11241884610E+01 -0.13287554091E+00  0.11802165487E+01  0.00000000000E+00 0. -1.
         11    1    3    3    0    0  0.23644498370E+02 -0.20308929540E+02  0.21014146892E+02  0.37591345973E+02  0.51100000000E-03 0. -1.
        -11    1    3    3    0    0  0.85659820513E+01 -0.21193716132E+01 -0.14743370367E+01  0.89465889867E+01  0.51100000000E-03 0.  1.
        -12    1    3    3    0    0 -0.32544329933E+02  0.21304112692E+02 -0.19406934315E+02  0.43469848491E+02  0.00000000000E+00 0.  1.
</event>
<event>
 7    1  0.1999542E-015  0.9000807E+02  0.7816164E-02  0.1186338E+00
        -11   -1    0    0    0    0  0.00000000000E+00  0.00000000000E+00  0.45593999997E+02  0.45594000000E+02  0.51100000000E-03 0.  1.
         11   -1    0    0    0    0 -0.00000000000E+00 -0.00000000000E+00 -0.45593999997E+02  0.45594000000E+02  0.51100000000E-03 0. -1.
    9900012    2    1    2    0    0  0.33522220511E+00  0.13241735648E+00  0.11235321726E+01  0.90008070839E+02  0.90000336573E+02 0.  0.
         12    1    1    2    0    0 -0.33522220511E+00 -0.13241735648E+00 -0.11235321726E+01  0.11799291614E+01  0.00000000000E+00 0. -1.
         11    1    3    3    0    0  0.18308683180E+02 -0.19318285721E+02 -0.26383692456E+02  0.37476703042E+02  0.51100000000E-03 0. -1.
        -11    1    3    3    0    0  0.95477908495E+01  0.26323835564E+00  0.68167428192E+00  0.95757132698E+01  0.51100000000E-03 0.  1.
        -12    1    3    3    0    0 -0.27521251825E+02  0.19187464722E+02  0.26825550347E+02  0.42955654527E+02  0.00000000000E+00 0.  1.
</event>
<event>
 7    1  0.1999542E-015  0.9000722E+02  0.7816164E-02  0.1186340E+00
        -11   -1    0    0    0    0  0.00000000000E+00  0.00000000000E+00  0.45593999997E+02  0.45594000000E+02  0.51100000000E-03 0.  1.
         11   -1    0    0    0    0 -0.00000000000E+00 -0.00000000000E+00 -0.45593999997E+02  0.45594000000E+02  0.51100000000E-03 0. -1.
    9900012    2    1    2    0    0 -0.11655260928E+01  0.18541474727E+00 -0.37627481672E-01  0.90007218255E+02  0.89999472735E+02 0.  0.
         12    1    1    2    0    0  0.11655260928E+01 -0.18541474727E+00  0.37627481672E-01  0.11807817448E+01  0.00000000000E+00 0. -1.
         11    1    3    3    0    0  0.87909134572E+01 -0.13741466714E+01 -0.44771340757E+01  0.99605807200E+01  0.51100000000E-03 0. -1.
        -11    1    3    3    0    0  0.30059888010E+02  0.19493044436E+02  0.51153259950E+01  0.36190360717E+02  0.51100000000E-03 0.  1.
         12    1    3    3    0    0 -0.40016327560E+02 -0.17933483017E+02 -0.67581940099E+00  0.43856276818E+02  0.00000000000E+00 0. -1.
</event>
<event>
 7    1  0.1999542E-015  0.9000768E+02  0.7816164E-02  0.1186339E+00
        -11   -1    0    0    0    0  0.00000000000E+00  0.00000000000E+00  0.45593999997E+02  0.45594000000E+02  0.51100000000E-03 0. -1.
         11   -1    0    0    0    0 -0.00000000000E+00 -0.00000000000E+00 -0.45593999997E+02  0.45594000000E+02  0.51100000000E-03 0.  1.
    9900012    2    1    2    0    0 -0.11364617915E+01  0.20781189794E+00 -0.24171100198E+00  0.90007679960E+02  0.89999940535E+02 0.  0.
         12    1    1    2    0    0  0.11364617915E+01 -0.20781189794E+00  0.24171100198E+00  0.11803200401E+01  0.00000000000E+00 0. -1.
         11    1    3    3    0    0  0.34354710082E+01  0.45070997298E+01  0.47052146105E+01  0.73658301510E+01  0.51100000000E-03 0. -1.
        -11    1    3    3    0    0  0.10948079890E+02 -0.28711585762E+02 -0.31045250811E+02  0.43680924996E+02  0.51100000000E-03 0.  1.
         12    1    3    3    0    0 -0.15520012689E+02  0.24412297931E+02  0.26098325199E+02  0.38960924813E+02  0.00000000000E+00 0. -1.
</event>
<event>
 7    1  0.1999542E-015  0.9000781E+02  0.7816164E-02  0.1186339E+00
        -11   -1    0    0    0    0  0.00000000000E+00  0.00000000000E+00  0.45593999997E+02  0.45594000000E+02  0.51100000000E-03 0. -1.
         11   -1    0    0    0    0 -0.00000000000E+00 -0.00000000000E+00 -0.45593999997E+02  0.45594000000E+02  0.51100000000E-03 0.  1.
    9900012    2    1    2    0    0  0.77616289484E+00  0.18449975825E+00 -0.86970565551E+00  0.90007806403E+02  0.90000068647E+02 0.  0.
         12    1    1    2    0    0 -0.77616289484E+00 -0.18449975825E+00  0.86970565551E+00  0.11801935974E+01  0.00000000000E+00 0. -1.
         11    1    3    3    0    0 -0.22669270224E+02 -0.18555942917E+02 -0.22701647819E+02  0.37061889374E+02  0.51100000000E-03 0. -1.
        -11    1    3    3    0    0 -0.10216759707E+01  0.30275880609E+01 -0.96051783275E+01  0.10122725039E+02  0.51100000000E-03 0.  1.
        -12    1    3    3    0    0  0.24467109090E+02  0.15712854615E+02  0.31437120491E+02  0.42823191989E+02  0.00000000000E+00 0.  1.
</event>
<event>
 7    1  0.1999542E-015  0.9000771E+02  0.7816164E-02  0.1186339E+00
        -11   -1    0    0    0    0  0.00000000000E+00  0.00000000000E+00  0.45593999997E+02  0.45594000000E+02  0.51100000000E-03 0. -1.
         11   -1    0    0    0    0 -0.00000000000E+00 -0.00000000000E+00 -0.45593999997E+02  0.45594000000E+02  0.51100000000E-03 0.  1.
    9900012    2    1    2    0    0 -0.12151424805E+00 -0.28894042154E+00 -0.11379021120E+01  0.90007714655E+02  0.89999975688E+02 0.  0.
         12    1    1    2    0    0  0.12151424805E+00  0.28894042154E+00  0.11379021120E+01  0.11802853452E+01  0.00000000000E+00 0. -1.
         11    1    3    3    0    0 -0.41378288616E+01  0.84608868425E+01  0.99088944257E+01  0.13670933503E+02  0.51100000000E-03 0. -1.
        -11    1    3    3    0    0  0.26301201748E+02 -0.18568294304E+02  0.19215175780E+02  0.37493436056E+02  0.51100000000E-03 0.  1.
         12    1    3    3    0    0 -0.22284887135E+02  0.98184670399E+01 -0.30261972318E+02  0.38843345095E+02  0.00000000000E+00 0. -1.
</event>
<event>
 7    1  0.1999542E-015  0.9000766E+02  0.7816164E-02  0.1186339E+00
        -11   -1    0    0    0    0  0.00000000000E+00  0.00000000000E+00  0.45593999997E+02  0.45594000000E+02  0.51100000000E-03 0.  1.
         11   -1    0    0    0    0 -0.00000000000E+00 -0.00000000000E+00 -0.45593999997E+02  0.45594000000E+02  0.51100000000E-03 0. -1.
    9900012    2    1    2    0    0  0.88830967887E+00  0.30178173922E+00  0.71626332131E+00  0.90007661299E+02  0.89999921628E+02 0.  0.
         12    1    1    2    0    0 -0.88830967887E+00 -0.30178173922E+00 -0.71626332131E+00  0.11803387010E+01  0.00000000000E+00 0. -1.
         11    1    3    3    0    0  0.12073466702E+02 -0.36987997094E+02  0.75216101583E+01  0.39628968531E+02  0.51100000000E-03 0. -1.
        -11    1    3    3    0    0  0.40803319296E+01  0.51372569243E+01  0.92437362521E+01  0.11335218459E+02  0.51100000000E-03 0.  1.
        -12    1    3    3    0    0 -0.15265488953E+02  0.32152521909E+02 -0.16049083089E+02  0.39043474308E+02  0.00000000000E+00 0.  1.
</event>
<event>
 7    1  0.1999542E-015  0.9000770E+02  0.7816164E-02  0.1186339E+00
        -11   -1    0    0    0    0  0.00000000000E+00  0.00000000000E+00  0.45593999997E+02  0.45594000000E+02  0.51100000000E-03 0.  1.
         11   -1    0    0    0    0 -0.00000000000E+00 -0.00000000000E+00 -0.45593999997E+02  0.45594000000E+02  0.51100000000E-03 0. -1.
    9900012    2    1    2    0    0  0.72979017443E+00  0.36480929412E+00  0.85290073590E+00  0.90007695300E+02  0.89999956078E+02 0.  0.
         12    1    1    2    0    0 -0.72979017443E+00 -0.36480929412E+00 -0.85290073590E+00  0.11803047001E+01  0.00000000000E+00 0. -1.
         11    1    3    3    0    0  0.33880445503E+02 -0.93071626719E+01  0.41958115536E+01  0.35385204526E+02  0.51100000000E-03 0. -1.
        -11    1    3    3    0    0  0.43592014029E+01 -0.75182530429E+01 -0.95326284087E+01  0.12899525973E+02  0.51100000000E-03 0.  1.
        -12    1    3    3    0    0 -0.37509856732E+02  0.17190225009E+02  0.61897175910E+01  0.41722964801E+02  0.00000000000E+00 0.  1.
</event>
<event>
 7    1  0.1999542E-015  0.9000773E+02  0.7816164E-02  0.1186339E+00
        -11   -1    0    0    0    0  0.00000000000E+00  0.00000000000E+00  0.45593999997E+02  0.45594000000E+02  0.51100000000E-03 0. -1.
         11   -1    0    0    0    0 -0.00000000000E+00 -0.00000000000E+00 -0.45593999997E+02  0.45594000000E+02  0.51100000000E-03 0.  1.
    9900012    2    1    2    0    0 -0.42770974381E-01 -0.11746527794E+01  0.10677275717E+00  0.90007729298E+02  0.89999990525E+02 0.  0.
         12    1    1    2    0    0  0.42770974381E-01  0.11746527794E+01 -0.10677275717E+00  0.11802707020E+01  0.00000000000E+00 0. -1.
         11    1    3    3    0    0 -0.24808973462E+01 -0.20791782964E+01  0.10136414249E+02  0.10640710884E+02  0.51100000000E-03 0. -1.
        -11    1    3    3    0    0 -0.26916719363E+02  0.26190490953E+02 -0.14725313780E+02  0.40339638866E+02  0.51100000000E-03 0.  1.
         12    1    3    3    0    0  0.29354845735E+02 -0.25285965436E+02  0.46956722878E+01  0.39027379548E+02  0.00000000000E+00 0. -1.
</event>
<event>
 7    1  0.1999542E-015  0.9000779E+02  0.7816164E-02  0.1186339E+00
        -11   -1    0    0    0    0  0.00000000000E+00  0.00000000000E+00  0.45593999997E+02  0.45594000000E+02  0.51100000000E-03 0.  1.
         11   -1    0    0    0    0 -0.00000000000E+00 -0.00000000000E+00 -0.45593999997E+02  0.45594000000E+02  0.51100000000E-03 0. -1.
    9900012    2    1    2    0    0  0.42179576280E+00  0.10998990427E+01 -0.72234428633E-01  0.90007785027E+02  0.90000046989E+02 0.  0.
         12    1    1    2    0    0 -0.42179576280E+00 -0.10998990427E+01  0.72234428633E-01  0.11802149729E+01  0.00000000000E+00 0. -1.
         11    1    3    3    0    0  0.13836722877E+02  0.27020478369E+02  0.21895535886E+02  0.37429609179E+02  0.51100000000E-03 0. -1.
        -11    1    3    3    0    0  0.68298540181E+01  0.50454078739E+01 -0.11183598890E+02  0.14041934728E+02  0.51100000000E-03 0.  1.
        -12    1    3    3    0    0 -0.20244781132E+02 -0.30965987200E+02 -0.10784171426E+02  0.38536241120E+02  0.00000000000E+00 0.  1.
</event>
<event>
 7    1  0.1999542E-015  0.9000747E+02  0.7816164E-02  0.1186340E+00
        -11   -1    0    0    0    0  0.00000000000E+00  0.00000000000E+00  0.45593999997E+02  0.45594000000E+02  0.51100000000E-03 0. -1.
         11   -1    0    0    0    0 -0.00000000000E+00 -0.00000000000E+00 -0.45593999997E+02  0.45594000000E+02  0.51100000000E-03 0.  1.
    9900012    2    1    2    0    0  0.32347670274E+00  0.81578208095E+00 -0.78962932898E+00  0.90007469586E+02  0.89999727384E+02 0.  0.
         12    1    1    2    0    0 -0.32347670274E+00 -0.81578208095E+00  0.78962932898E+00  0.11805304138E+01  0.00000000000E+00 0. -1.
         11    1    3    3    0    0  0.84340809645E+01  0.10616548766E+02  0.32577590797E+00  0.13562852193E+02  0.51100000000E-03 0. -1.
        -11    1    3    3    0    0 -0.31744439981E+02  0.54295579351E+01  0.22860148964E+02  0.39493999291E+02  0.51100000000E-03 0.  1.
         12    1    3    3    0    0  0.23633835720E+02 -0.15230324620E+02 -0.23975554201E+02  0.36950618102E+02  0.00000000000E+00 0. -1.
</event>
<event>
 7    1  0.1999542E-015  0.9000774E+02  0.7816164E-02  0.1186339E+00
        -11   -1    0    0    0    0  0.00000000000E+00  0.00000000000E+00  0.45593999997E+02  0.45594000000E+02  0.51100000000E-03 0. -1.
         11   -1    0    0    0    0 -0.00000000000E+00 -0.00000000000E+00 -0.45593999997E+02  0.45594000000E+02  0.51100000000E-03 0.  1.
    9900012    2    1    2    0    0 -0.52300217441E+00 -0.37240992831E+00 -0.99034868825E+00  0.90007741150E+02  0.90000002533E+02 0.  0.
         12    1    1    2    0    0  0.52300217441E+00  0.37240992831E+00  0.99034868825E+00  0.11802588502E+01  0.00000000000E+00 0. -1.
         11    1    3    3    0    0  0.12145850114E+02 -0.31582561469E+02 -0.21965928713E+02  0.40342061034E+02  0.51100000000E-03 0. -1.
        -11    1    3    3    0    0 -0.25246193268E+01  0.41373736342E+01 -0.76012522257E+01  0.90150207429E+01  0.51100000000E-03 0.  1.
        -12    1    3    3    0    0 -0.10144232962E+02  0.27072777907E+02  0.28576832251E+02  0.40650659373E+02  0.00000000000E+00 0.  1.
</event>
<event>
 7    1  0.1999542E-015  0.9000771E+02  0.7816164E-02  0.1186339E+00
        -11   -1    0    0    0    0  0.00000000000E+00  0.00000000000E+00  0.45593999997E+02  0.45594000000E+02  0.51100000000E-03 0. -1.
         11   -1    0    0    0    0 -0.00000000000E+00 -0.00000000000E+00 -0.45593999997E+02  0.45594000000E+02  0.51100000000E-03 0.  1.
    9900012    2    1    2    0    0  0.17870356989E+00  0.40431923588E+00 -0.10943854706E+01  0.90007708270E+02  0.89999969219E+02 0.  0.
         12    1    1    2    0    0 -0.17870356989E+00 -0.40431923588E+00  0.10943854706E+01  0.11802917303E+01  0.00000000000E+00 0. -1.
         11    1    3    3    0    0  0.12320172126E+01  0.81067588101E+01 -0.68650629722E+01  0.10694227167E+02  0.51100000000E-03 0. -1.
        -11    1    3    3    0    0 -0.27194276390E+02  0.15877624958E+02 -0.18528833325E+02  0.36536903363E+02  0.51100000000E-03 0.  1.
         12    1    3    3    0    0  0.26140962748E+02 -0.23580064532E+02  0.24299510827E+02  0.42776577740E+02  0.00000000000E+00 0. -1.
</event>
<event>
 7    1  0.1999542E-015  0.9000782E+02  0.7816164E-02  0.1186339E+00
        -11   -1    0    0    0    0  0.00000000000E+00  0.00000000000E+00  0.45593999997E+02  0.45594000000E+02  0.51100000000E-03 0.  1.
         11   -1    0    0    0    0 -0.00000000000E+00 -0.00000000000E+00 -0.45593999997E+02  0.45594000000E+02  0.51100000000E-03 0. -1.
    9900012    2    1    2    0    0 -0.29379939316E+00 -0.69680431346E+00  0.90608007191E+00  0.90007815510E+02  0.90000077874E+02 0.  0.
         12    1    1    2    0    0  0.29379939316E+00  0.69680431346E+00 -0.90608007191E+00  0.11801844904E+01  0.00000000000E+00 0. -1.
         11    1    3    3    0    0  0.56066749631E+01 -0.35892832370E+01  0.72163808108E+01  0.98180400572E+01  0.51100000000E-03 0. -1.
        -11    1    3    3    0    0 -0.26283647724E+01  0.75213999467E+01  0.36320310761E+02  0.37183931107E+02  0.51100000000E-03 0.  1.
         12    1    3    3    0    0 -0.32721095840E+01 -0.46289210232E+01 -0.42630611500E+02  0.43005844345E+02  0.00000000000E+00 0. -1.
</event>
<event>
 7    1  0.1999542E-015  0.9000776E+02  0.7816164E-02  0.1186339E+00
        -11   -1    0    0    0    0  0.00000000000E+00  0.00000000000E+00  0.45593999997E+02  0.45594000000E+02  0.51100000000E-03 0. -1.
         11   -1    0    0    0    0 -0.00000000000E+00 -0.00000000000E+00 -0.45593999997E+02  0.45594000000E+02  0.51100000000E-03 0.  1.
    9900012    2    1    2    0    0  0.32969540179E+00 -0.40949265823E+00 -0.10566800865E+01  0.90007764388E+02  0.90000026078E+02 0.  0.
         12    1    1    2    0    0 -0.32969540179E+00  0.40949265823E+00  0.10566800865E+01  0.11802356122E+01  0.00000000000E+00 0. -1.
         11    1    3    3    0    0 -0.79391562993E+01  0.87894224255E+00 -0.44263245822E+01  0.91320913147E+01  0.51100000000E-03 0. -1.
        -11    1    3    3    0    0 -0.35532677696E+02 -0.18319737098E+01  0.90265258078E+01  0.36707022221E+02  0.51100000000E-03 0.  1.
         12    1    3    3    0    0  0.43801529397E+02  0.54353880904E+00 -0.56568813121E+01  0.44168650852E+02  0.00000000000E+00 0. -1.
</event>
<event>
 7    1  0.1999542E-015  0.9000778E+02  0.7816164E-02  0.1186339E+00
        -11   -1    0    0    0    0  0.00000000000E+00  0.00000000000E+00  0.45593999997E+02  0.45594000000E+02  0.51100000000E-03 0. -1.
         11   -1    0    0    0    0 -0.00000000000E+00 -0.00000000000E+00 -0.45593999997E+02  0.45594000000E+02  0.51100000000E-03 0.  1.
    9900012    2    1    2    0    0 -0.31795634310E+00 -0.10330758418E+00 -0.11318811604E+01  0.90007778133E+02  0.90000040005E+02 0.  0.
         12    1    1    2    0    0  0.31795634310E+00  0.10330758418E+00  0.11318811604E+01  0.11802218666E+01  0.00000000000E+00 0. -1.
         11    1    3    3    0    0 -0.13100683958E+01  0.17111112405E+02  0.28622931028E+02  0.33373322098E+02  0.51100000000E-03 0. -1.
        -11    1    3    3    0    0 -0.59013768644E+01  0.19037831038E+01  0.10126086947E+02  0.11873848412E+02  0.51100000000E-03 0.  1.
        -12    1    3    3    0    0  0.68934889171E+01 -0.19118203093E+02 -0.39880899135E+02  0.44760607623E+02  0.00000000000E+00 0.  1.
</event>
<event>
 7    1  0.1999542E-015  0.9000776E+02  0.7816164E-02  0.1186339E+00
        -11   -1    0    0    0    0  0.00000000000E+00  0.00000000000E+00  0.45593999997E+02  0.45594000000E+02  0.51100000000E-03 0.  1.
         11   -1    0    0    0    0 -0.00000000000E+00 -0.00000000000E+00 -0.45593999997E+02  0.45594000000E+02  0.51100000000E-03 0. -1.
    9900012    2    1    2    0    0  0.38041236113E+00  0.98959907921E+00  0.51859241698E+00  0.90007763584E+02  0.90000025264E+02 0.  0.
         12    1    1    2    0    0 -0.38041236113E+00 -0.98959907921E+00 -0.51859241698E+00  0.11802364157E+01  0.00000000000E+00 0. -1.
         11    1    3    3    0    0 -0.54754225489E+01  0.19105953904E+02  0.67698453359E+01  0.20996393329E+02  0.51100000000E-03 0. -1.
        -11    1    3    3    0    0  0.92312244671E+01  0.24336005596E+02 -0.42961810181E+01  0.26380179020E+02  0.51100000000E-03 0.  1.
        -12    1    3    3    0    0 -0.33753895570E+01 -0.42452360421E+02 -0.19550719008E+01  0.42631191235E+02  0.00000000000E+00 0.  1.
</event>
<event>
 7    1  0.1999542E-015  0.9000767E+02  0.7816164E-02  0.1186339E+00
        -11   -1    0    0    0    0  0.00000000000E+00  0.00000000000E+00  0.45593999997E+02  0.45594000000E+02  0.51100000000E-03 0.  1.
         11   -1    0    0    0    0 -0.00000000000E+00 -0.00000000000E+00 -0.45593999997E+02  0.45594000000E+02  0.51100000000E-03 0. -1.
    9900012    2    1    2    0    0 -0.11187637984E+01  0.37612135050E+00 -0.84137284647E-02  0.90007673563E+02  0.89999934054E+02 0.  0.
         12    1    1    2    0    0  0.11187637984E+01 -0.37612135050E+00  0.84137284647E-02  0.11803264370E+01  0.00000000000E+00 0. -1.
         11    1    3    3    0    0 -0.64979530729E+01 -0.31963641916E+02  0.18747774275E+02  0.37621494377E+02  0.51100000000E-03 0. -1.
        -11    1    3    3    0    0 -0.61515814561E+01 -0.25108426903E+01  0.52984825696E+01  0.84982470680E+01  0.51100000000E-03 0.  1.
        -12    1    3    3    0    0  0.11530770731E+02  0.34850605956E+02 -0.24054670574E+02  0.43887932118E+02  0.00000000000E+00 0.  1.
</event>
<event>
 7    1  0.1999542E-015  0.9000763E+02  0.7816164E-02  0.1186339E+00
        -11   -1    0    0    0    0  0.00000000000E+00  0.00000000000E+00  0.45593999997E+02  0.45594000000E+02  0.51100000000E-03 0. -1.
         11   -1    0    0    0    0 -0.00000000000E+00 -0.00000000000E+00 -0.45593999997E+02  0.45594000000E+02  0.51100000000E-03 0.  1.
    9900012    2    1    2    0    0  0.29686984861E+00  0.10271402818E+01  0.50012527242E+00  0.90007629654E+02  0.89999889565E+02 0.  0.
         12    1    1    2    0    0 -0.29686984861E+00 -0.10271402818E+01 -0.50012527242E+00  0.11803703460E+01  0.00000000000E+00 0. -1.
         11    1    3    3    0    0  0.12594035880E+02  0.78219633394E+01  0.35076992316E+02  0.38081337167E+02  0.51100000000E-03 0. -1.
        -11    1    3    3    0    0  0.96380575532E+01  0.57047222350E+00  0.76321518056E+00  0.96850446375E+01  0.51100000000E-03 0.  1.
        -12    1    3    3    0    0 -0.21935223585E+02 -0.73652952811E+01 -0.35340082224E+02  0.42241247850E+02  0.00000000000E+00 0.  1.
</event>
<event>
 7    1  0.1999542E-015  0.9000759E+02  0.7816164E-02  0.1186339E+00
        -11   -1    0    0    0    0  0.00000000000E+00  0.00000000000E+00  0.45593999997E+02  0.45594000000E+02  0.51100000000E-03 0.  1.
         11   -1    0    0    0    0 -0.00000000000E+00 -0.00000000000E+00 -0.45593999997E+02  0.45594000000E+02  0.51100000000E-03 0. -1.
    9900012    2    1    2    0    0 -0.67974694613E+00 -0.88799061972E+00  0.37786723807E+00  0.90007590367E+02  0.89999849760E+02 0.  0.
         12    1    1    2    0    0  0.67974694613E+00  0.88799061972E+00 -0.37786723807E+00  0.11804096327E+01  0.00000000000E+00 0. -1.
         11    1    3    3    0    0  0.13871342450E+02 -0.23879040878E+02 -0.23840749466E+02  0.36482928473E+02  0.51100000000E-03 0. -1.
        -11    1    3    3    0    0  0.46366401967E+01  0.58249354283E+01  0.26644273778E+02  0.27664880814E+02  0.51100000000E-03 0.  1.
        -12    1    3    3    0    0 -0.19187729593E+02  0.17166114830E+02 -0.24256570738E+01  0.25859781080E+02  0.00000000000E+00 0.  1.
</event>
<event>
 7    1  0.1999542E-015  0.9000772E+02  0.7816164E-02  0.1186339E+00
        -11   -1    0    0    0    0  0.00000000000E+00  0.00000000000E+00  0.45593999997E+02  0.45594000000E+02  0.51100000000E-03 0. -1.
         11   -1    0    0    0    0 -0.00000000000E+00 -0.00000000000E+00 -0.45593999997E+02  0.45594000000E+02  0.51100000000E-03 0.  1.
    9900012    2    1    2    0    0 -0.48798941542E+00  0.97274707601E+00 -0.45682419592E+00  0.90007720843E+02  0.89999981958E+02 0.  0.
         12    1    1    2    0    0  0.48798941542E+00 -0.97274707601E+00  0.45682419592E+00  0.11802791574E+01  0.00000000000E+00 0. -1.
         11    1    3    3    0    0  0.97292954199E+01 -0.17733257454E+01  0.18597782209E+00  0.98913326493E+01  0.51100000000E-03 0. -1.
        -11    1    3    3    0    0 -0.38496484995E+01  0.40723197069E+02 -0.56191935631E+01  0.41288907829E+02  0.51100000000E-03 0.  1.
         12    1    3    3    0    0 -0.63676363358E+01 -0.37977124248E+02  0.49763915451E+01  0.38827480365E+02  0.00000000000E+00 0. -1.
</event>
<event>
 7    1  0.1999542E-015  0.9000776E+02  0.7816164E-02  0.1186339E+00
        -11   -1    0    0    0    0  0.00000000000E+00  0.00000000000E+00  0.45593999997E+02  0.45594000000E+02  0.51100000000E-03 0.  1.
         11   -1    0    0    0    0 -0.00000000000E+00 -0.00000000000E+00 -0.45593999997E+02  0.45594000000E+02  0.51100000000E-03 0. -1.
    9900012    2    1    2    0    0 -0.81242926885E+00 -0.76004291076E+00  0.39404195367E+00  0.90007756125E+02  0.90000017706E+02 0.  0.
         12    1    1    2    0    0  0.81242926885E+00  0.76004291076E+00 -0.39404195367E+00  0.11802438749E+01  0.00000000000E+00 0. -1.
         11    1    3    3    0    0  0.53601259654E+01  0.41130340987E+01 -0.73391543365E+01  0.99755293844E+01  0.51100000000E-03 0. -1.
        -11    1    3    3    0    0 -0.92629996085E+01 -0.39088290221E+02 -0.99629317324E+01  0.41387891987E+02  0.51100000000E-03 0.  1.
         12    1    3    3    0    0  0.30904443743E+01  0.34215213212E+02  0.17696128023E+02  0.38644334754E+02  0.00000000000E+00 0. -1.
</event>
<event>
 7    1  0.1999542E-015  0.9000775E+02  0.7816164E-02  0.1186339E+00
        -11   -1    0    0    0    0  0.00000000000E+00  0.00000000000E+00  0.45593999997E+02  0.45594000000E+02  0.51100000000E-03 0. -1.
         11   -1    0    0    0    0 -0.00000000000E+00 -0.00000000000E+00 -0.45593999997E+02  0.45594000000E+02  0.51100000000E-03 0.  1.
    9900012    2    1    2    0    0  0.24897501513E+00  0.78323610852E+00 -0.84708255710E+00  0.90007747392E+02  0.90000008858E+02 0.  0.
         12    1    1    2    0    0 -0.24897501513E+00 -0.78323610852E+00  0.84708255710E+00  0.11802526079E+01  0.00000000000E+00 0. -1.
         11    1    3    3    0    0  0.35740897491E+01 -0.83179583689E+01  0.26458737985E+01  0.94320303954E+01  0.51100000000E-03 0. -1.
        -11    1    3    3    0    0 -0.19130743824E+02 -0.11456684073E+02 -0.33922764109E+02  0.40595503374E+02  0.51100000000E-03 0.  1.
         12    1    3    3    0    0  0.15805629090E+02  0.20557878550E+02  0.30429807753E+02  0.39980213622E+02  0.00000000000E+00 0. -1.
</event>
<event>
 7    1  0.1999542E-015  0.9000771E+02  0.7816164E-02  0.1186339E+00
        -11   -1    0    0    0    0  0.00000000000E+00  0.00000000000E+00  0.45593999997E+02  0.45594000000E+02  0.51100000000E-03 0. -1.
         11   -1    0    0    0    0 -0.00000000000E+00 -0.00000000000E+00 -0.45593999997E+02  0.45594000000E+02  0.51100000000E-03 0.  1.
    9900012    2    1    2    0    0  0.25918838364E-01 -0.85321139938E+00 -0.81513427103E+00  0.90007709630E+02  0.89999970597E+02 0.  0.
         12    1    1    2    0    0 -0.25918838364E-01  0.85321139938E+00  0.81513427103E+00  0.11802903702E+01  0.00000000000E+00 0. -1.
         11    1    3    3    0    0  0.51678388661E+01  0.46960396900E+01  0.63714913992E+01  0.94527906053E+01  0.51100000000E-03 0. -1.
        -11    1    3    3    0    0  0.27370179536E+02  0.23906634768E+02 -0.41878729762E+01  0.36581309355E+02  0.51100000000E-03 0.  1.
         12    1    3    3    0    0 -0.32512099563E+02 -0.29455885858E+02 -0.29987526939E+01  0.43973609670E+02  0.00000000000E+00 0. -1.
</event>
<event>
 7    1  0.1999542E-015  0.9000769E+02  0.7816164E-02  0.1186339E+00
        -11   -1    0    0    0    0  0.00000000000E+00  0.00000000000E+00  0.45593999997E+02  0.45594000000E+02  0.51100000000E-03 0.  1.
         11   -1    0    0    0    0 -0.00000000000E+00 -0.00000000000E+00 -0.45593999997E+02  0.45594000000E+02  0.51100000000E-03 0. -1.
    9900012    2    1    2    0    0  0.11522753663E+01  0.15416806513E+00  0.20401896123E+00  0.90007690698E+02  0.89999951415E+02 0.  0.
         12    1    1    2    0    0 -0.11522753663E+01 -0.15416806513E+00 -0.20401896123E+00  0.11803093021E+01  0.00000000000E+00 0. -1.
         11    1    3    3    0    0 -0.83479996840E+01  0.33407965047E+01  0.46147954061E+01  0.10106748088E+02  0.51100000000E-03 0. -1.
        -11    1    3    3    0    0  0.79364806210E+01 -0.55718106312E+01  0.37072493931E+02  0.38319741712E+02  0.51100000000E-03 0.  1.
         12    1    3    3    0    0  0.15637944293E+01  0.23851821916E+01 -0.41483270375E+02  0.41581200898E+02  0.00000000000E+00 0. -1.
</event>
<event>
 7    1  0.1999542E-015  0.9000833E+02  0.7816164E-02  0.1186338E+00
        -11   -1    0    0    0    0  0.00000000000E+00  0.00000000000E+00  0.45593999997E+02  0.45594000000E+02  0.51100000000E-03 0. -1.
         11   -1    0    0    0    0 -0.00000000000E+00 -0.00000000000E+00 -0.45593999997E+02  0.45594000000E+02  0.51100000000E-03 0.  1.
    9900012    2    1    2    0    0 -0.91514410537E+00  0.43897378385E+00  0.60118689051E+00  0.90008333779E+02  0.90000602982E+02 0.  0.
         12    1    1    2    0    0  0.91514410537E+00 -0.43897378385E+00 -0.60118689051E+00  0.11796662214E+01  0.00000000000E+00 0. -1.
         11    1    3    3    0    0 -0.26415927830E+02 -0.16714522164E+02  0.26710812687E+02  0.41117441663E+02  0.51100000000E-03 0. -1.
        -11    1    3    3    0    0  0.69483453920E+01 -0.60841392492E+01  0.12572994751E+00  0.92364529107E+01  0.51100000000E-03 0.  1.
        -12    1    3    3    0    0  0.18552438333E+02  0.23237635197E+02 -0.26235355744E+02  0.39654439205E+02  0.00000000000E+00 0.  1.
</event>
<event>
 7    1  0.1999542E-015  0.9000792E+02  0.7816164E-02  0.1186339E+00
        -11   -1    0    0    0    0  0.00000000000E+00  0.00000000000E+00  0.45593999997E+02  0.45594000000E+02  0.51100000000E-03 0.  1.
         11   -1    0    0    0    0 -0.00000000000E+00 -0.00000000000E+00 -0.45593999997E+02  0.45594000000E+02  0.51100000000E-03 0. -1.
    9900012    2    1    2    0    0 -0.74534075348E+00  0.81535017566E+00 -0.41505532608E+00  0.90007915396E+02  0.90000179080E+02 0.  0.
         12    1    1    2    0    0  0.74534075348E+00 -0.81535017566E+00  0.41505532608E+00  0.11800846035E+01  0.00000000000E+00 0. -1.
         11    1    3    3    0    0  0.34516429861E+01 -0.27333900000E+01 -0.98099951400E+01  0.10752732913E+02  0.51100000000E-03 0. -1.
        -11    1    3    3    0    0  0.20395722867E+02 -0.23082438017E+02  0.25115368801E+02  0.39743756823E+02  0.51100000000E-03 0.  1.
         12    1    3    3    0    0 -0.24592706607E+02  0.26631178193E+02 -0.15720428987E+02  0.39511425661E+02  0.00000000000E+00 0. -1.
</event>
<event>
 7    1  0.1999542E-015  0.9000776E+02  0.7816164E-02  0.1186339E+00
        -11   -1    0    0    0    0  0.00000000000E+00  0.00000000000E+00  0.45593999997E+02  0.45594000000E+02  0.51100000000E-03 0.  1.
         11   -1    0    0    0    0 -0.00000000000E+00 -0.00000000000E+00 -0.45593999997E+02  0.45594000000E+02  0.51100000000E-03 0. -1.
    9900012    2    1    2    0    0  0.40127986378E+00 -0.42592489411E+00  0.10249498617E+01  0.90007762836E+02  0.90000024505E+02 0.  0.
         12    1    1    2    0    0 -0.40127986378E+00  0.42592489411E+00 -0.10249498617E+01  0.11802371641E+01  0.00000000000E+00 0. -1.
         11    1    3    3    0    0  0.22182760419E+01  0.27497244173E+01  0.16462357243E+02  0.16837189172E+02  0.51100000000E-03 0. -1.
        -11    1    3    3    0    0 -0.21172652318E+02  0.15751830667E+02  0.16638885027E+02  0.31197017017E+02  0.51100000000E-03 0.  1.
         12    1    3    3    0    0  0.19355656140E+02 -0.18927479978E+02 -0.32076292408E+02  0.41973556647E+02  0.00000000000E+00 0. -1.
</event>
<event>
 7    1  0.1999542E-015  0.9000760E+02  0.7816164E-02  0.1186339E+00
        -11   -1    0    0    0    0  0.00000000000E+00  0.00000000000E+00  0.45593999997E+02  0.45594000000E+02  0.51100000000E-03 0.  1.
         11   -1    0    0    0    0 -0.00000000000E+00 -0.00000000000E+00 -0.45593999997E+02  0.45594000000E+02  0.51100000000E-03 0. -1.
    9900012    2    1    2    0    0  0.81149046008E+00  0.79029424976E+00  0.33204685491E+00  0.90007603083E+02  0.89999862644E+02 0.  0.
         12    1    1    2    0    0 -0.81149046008E+00 -0.79029424976E+00 -0.33204685491E+00  0.11803969171E+01  0.00000000000E+00 0. -1.
         11    1    3    3    0    0  0.91341450256E+00 -0.94490442193E+01  0.49527967041E+01  0.10707425375E+02  0.51100000000E-03 0. -1.
        -11    1    3    3    0    0 -0.33526498426E+01  0.13350117297E+02  0.35942558518E+02  0.38488094340E+02  0.51100000000E-03 0.  1.
         12    1    3    3    0    0  0.32507258001E+01 -0.31107788278E+01 -0.40563308367E+02  0.40812083368E+02  0.00000000000E+00 0. -1.
</event>
<event>
 7    1  0.1999542E-015  0.9000774E+02  0.7816164E-02  0.1186339E+00
        -11   -1    0    0    0    0  0.00000000000E+00  0.00000000000E+00  0.45593999997E+02  0.45594000000E+02  0.51100000000E-03 0.  1.
         11   -1    0    0    0    0 -0.00000000000E+00 -0.00000000000E+00 -0.45593999997E+02  0.45594000000E+02  0.51100000000E-03 0. -1.
    9900012    2    1    2    0    0  0.11439862764E+01  0.27100415254E+00 -0.10422018978E+00  0.90007741681E+02  0.90000003071E+02 0.  0.
         12    1    1    2    0    0 -0.11439862764E+01 -0.27100415254E+00  0.10422018978E+00  0.11802583188E+01  0.00000000000E+00 0. -1.
         11    1    3    3    0    0 -0.26187815727E+00 -0.49520684263E+01 -0.61620331740E+01  0.79096279916E+01  0.51100000000E-03 0. -1.
        -11    1    3    3    0    0  0.31577941880E+02 -0.11469085608E+01  0.29603500468E+02  0.43299527166E+02  0.51100000000E-03 0.  1.
         12    1    3    3    0    0 -0.30172077446E+02  0.63699811396E+01 -0.23545687484E+02  0.38798586523E+02  0.00000000000E+00 0. -1.
</event>
<event>
 7    1  0.1999542E-015  0.9000772E+02  0.7816164E-02  0.1186339E+00
        -11   -1    0    0    0    0  0.00000000000E+00  0.00000000000E+00  0.45593999997E+02  0.45594000000E+02  0.51100000000E-03 0. -1.
         11   -1    0    0    0    0 -0.00000000000E+00 -0.00000000000E+00 -0.45593999997E+02  0.45594000000E+02  0.51100000000E-03 0.  1.
    9900012    2    1    2    0    0 -0.94788540335E+00  0.25263933507E+00 -0.65630871775E+00  0.90007722700E+02  0.89999983840E+02 0.  0.
         12    1    1    2    0    0  0.94788540335E+00 -0.25263933507E+00  0.65630871775E+00  0.11802772998E+01  0.00000000000E+00 0. -1.
         11    1    3    3    0    0  0.11183310925E+01 -0.24001327945E+02  0.35320072490E+02  0.42717934506E+02  0.51100000000E-03 0. -1.
        -11    1    3    3    0    0  0.25926093432E+01 -0.22682473344E+01 -0.65586572517E+01  0.74082760737E+01  0.51100000000E-03 0.  1.
        -12    1    3    3    0    0 -0.46588258391E+01  0.26522214614E+02 -0.29417723956E+02  0.39881512120E+02  0.00000000000E+00 0.  1.
</event>
<event>
 7    1  0.1999542E-015  0.9000753E+02  0.7816164E-02  0.1186339E+00
        -11   -1    0    0    0    0  0.00000000000E+00  0.00000000000E+00  0.45593999997E+02  0.45594000000E+02  0.51100000000E-03 0. -1.
         11   -1    0    0    0    0 -0.00000000000E+00 -0.00000000000E+00 -0.45593999997E+02  0.45594000000E+02  0.51100000000E-03 0.  1.
    9900012    2    1    2    0    0  0.39592786579E+00  0.10186121058E+01 -0.44628264936E+00  0.90007534964E+02  0.89999793626E+02 0.  0.
         12    1    1    2    0    0 -0.39592786579E+00 -0.10186121058E+01  0.44628264936E+00  0.11804650355E+01  0.00000000000E+00 0. -1.
         11    1    3    3    0    0  0.10716640441E+01  0.89208003384E+01  0.91307893995E-02  0.89849444146E+01  0.51100000000E-03 0. -1.
        -11    1    3    3    0    0 -0.30175963320E+02  0.22469128510E+02  0.63021702381E+01  0.38146662347E+02  0.51100000000E-03 0.  1.
         12    1    3    3    0    0  0.29500227142E+02 -0.30371316742E+02 -0.67575836769E+01  0.42875928202E+02  0.00000000000E+00 0. -1.
</event>
<event>
 7    1  0.1999542E-015  0.9000765E+02  0.7816164E-02  0.1186339E+00
        -11   -1    0    0    0    0  0.00000000000E+00  0.00000000000E+00  0.45593999997E+02  0.45594000000E+02  0.51100000000E-03 0. -1.
         11   -1    0    0    0    0 -0.00000000000E+00 -0.00000000000E+00 -0.45593999997E+02  0.45594000000E+02  0.51100000000E-03 0.  1.
    9900012    2    1    2    0    0  0.39880670337E+00  0.82730627986E+00  0.74144500282E+00  0.90007651255E+02  0.89999911452E+02 0.  0.
         12    1    1    2    0    0 -0.39880670337E+00 -0.82730627986E+00 -0.74144500282E+00  0.11803487449E+01  0.00000000000E+00 0. -1.
         11    1    3    3    0    0 -0.65566761260E+01 -0.49472363868E+01 -0.62107564832E+01  0.10297506788E+02  0.51100000000E-03 0. -1.
        -11    1    3    3    0    0 -0.33233493704E+02  0.17473382304E+02  0.35832577750E+01  0.37717687223E+02  0.51100000000E-03 0.  1.
         12    1    3    3    0    0  0.40188976534E+02 -0.11698839637E+02  0.33689437110E+01  0.41992457244E+02  0.00000000000E+00 0. -1.
</event>
<event>
 7    1  0.1999542E-015  0.9000773E+02  0.7816164E-02  0.1186339E+00
        -11   -1    0    0    0    0  0.00000000000E+00  0.00000000000E+00  0.45593999997E+02  0.45594000000E+02  0.51100000000E-03 0.  1.
         11   -1    0    0    0    0 -0.00000000000E+00 -0.00000000000E+00 -0.45593999997E+02  0.45594000000E+02  0.51100000000E-03 0. -1.
    9900012    2    1    2    0    0  0.11657102192E+01 -0.11649811336E+00  0.14346844030E+00  0.90007730828E+02  0.89999992075E+02 0.  0.
         12    1    1    2    0    0 -0.11657102192E+01  0.11649811336E+00 -0.14346844030E+00  0.11802691722E+01  0.00000000000E+00 0. -1.
         11    1    3    3    0    0  0.70311990632E+01  0.47481125470E+00  0.11479685168E+02  0.13470203332E+02  0.51100000000E-03 0. -1.
        -11    1    3    3    0    0 -0.21010166991E+02 -0.17477613342E+02  0.22773581198E+02  0.35574289676E+02  0.51100000000E-03 0.  1.
         12    1    3    3    0    0  0.15144678147E+02  0.16886303974E+02 -0.34109797926E+02  0.40963237819E+02  0.00000000000E+00 0. -1.
</event>
<event>
 7    1  0.1999542E-015  0.9000786E+02  0.7816164E-02  0.1186339E+00
        -11   -1    0    0    0    0  0.00000000000E+00  0.00000000000E+00  0.45593999997E+02  0.45594000000E+02  0.51100000000E-03 0. -1.
         11   -1    0    0    0    0 -0.00000000000E+00 -0.00000000000E+00 -0.45593999997E+02  0.45594000000E+02  0.51100000000E-03 0.  1.
    9900012    2    1    2    0    0  0.36823011021E-01  0.11430887815E+01 -0.29105856214E+00  0.90007863151E+02  0.90000126144E+02 0.  0.
         12    1    1    2    0    0 -0.36823011021E-01 -0.11430887815E+01  0.29105856214E+00  0.11801368493E+01  0.00000000000E+00 0. -1.
         11    1    3    3    0    0 -0.11087589651E+01  0.13437823821E+01  0.88198577778E+01  0.89902719100E+01  0.51100000000E-03 0. -1.
        -11    1    3    3    0    0 -0.19231611614E+02  0.18536536491E+02  0.25343192076E+02  0.36820313079E+02  0.51100000000E-03 0.  1.
         12    1    3    3    0    0  0.20377193590E+02 -0.18737230092E+02 -0.34454108416E+02  0.44197278162E+02  0.00000000000E+00 0. -1.
</event>
<event>
 7    1  0.1999542E-015  0.9000809E+02  0.7816164E-02  0.1186338E+00
        -11   -1    0    0    0    0  0.00000000000E+00  0.00000000000E+00  0.45593999997E+02  0.45594000000E+02  0.51100000000E-03 0.  1.
         11   -1    0    0    0    0 -0.00000000000E+00 -0.00000000000E+00 -0.45593999997E+02  0.45594000000E+02  0.51100000000E-03 0. -1.
    9900012    2    1    2    0    0 -0.10054560696E+01 -0.27020307162E+00  0.55519528515E+00  0.90008087540E+02  0.90000353495E+02 0.  0.
         12    1    1    2    0    0  0.10054560696E+01  0.27020307162E+00 -0.55519528515E+00  0.11799124597E+01  0.00000000000E+00 0. -1.
         11    1    3    3    0    0 -0.35561346730E+02  0.82338265933E+01  0.95695003280E+01  0.37735667722E+02  0.51100000000E-03 0. -1.
        -11    1    3    3    0    0 -0.43820173232E+01  0.98485615906E+00  0.76480139807E+01  0.88692804435E+01  0.51100000000E-03 0.  1.
        -12    1    3    3    0    0  0.38937907984E+02 -0.94888858240E+01 -0.16662319023E+02  0.43403139375E+02  0.00000000000E+00 0.  1.
</event>
