<event>
 7    1  0.4723144E-009  0.4778727E+02  0.7816164E-02  0.1312668E+00
        -11   -1    0    0    0    0  0.00000000000E+00  0.00000000000E+00  0.45593999997E+02  0.45594000000E+02  0.51100000000E-03 0.  1.
         11   -1    0    0    0    0 -0.00000000000E+00 -0.00000000000E+00 -0.45593999997E+02  0.45594000000E+02  0.51100000000E-03 0. -1.
    9900012    2    1    2    0    0  0.39076779865E+02  0.12453161183E+02  0.14196730845E+02  0.47787272878E+02  0.20000008360E+02 0.  0.
         12    1    1    2    0    0 -0.39076779865E+02 -0.12453161183E+02 -0.14196730845E+02  0.43400727122E+02  0.00000000000E+00 0. -1.
         11    1    3    3    0    0 -0.39613638371E+00  0.20208467633E+01 -0.23049413326E+01  0.30908737411E+01  0.51100000000E-03 0. -1.
        -11    1    3    3    0    0  0.26706043151E+02  0.48412306518E+01  0.77001051919E+01  0.28212441852E+02  0.51100000000E-03 0.  1.
        -12    1    3    3    0    0  0.12766873097E+02  0.55910837676E+01  0.88015669856E+01  0.16483957285E+02  0.00000000000E+00 0.  1.
</event>
<event>
 7    1  0.4723144E-009  0.4778729E+02  0.7816164E-02  0.1312668E+00
        -11   -1    0    0    0    0  0.00000000000E+00  0.00000000000E+00  0.45593999997E+02  0.45594000000E+02  0.51100000000E-03 0. -1.
         11   -1    0    0    0    0 -0.00000000000E+00 -0.00000000000E+00 -0.45593999997E+02  0.45594000000E+02  0.51100000000E-03 0.  1.
    9900012    2    1    2    0    0 -0.21542819489E+01  0.33317484964E+02 -0.27729520711E+02  0.47787285099E+02  0.20000064079E+02 0.  0.
         12    1    1    2    0    0  0.21542819489E+01 -0.33317484964E+02  0.27729520711E+02  0.43400714901E+02  0.00000000000E+00 0. -1.
         11    1    3    3    0    0 -0.62856489893E+01  0.23059731858E+02 -0.27274946641E+02  0.36265456444E+02  0.51100000000E-03 0. -1.
        -11    1    3    3    0    0  0.23574445534E+01  0.88605770641E+01 -0.92468732477E+00  0.92153360026E+01  0.51100000000E-03 0.  1.
         12    1    3    3    0    0  0.17739224870E+01  0.13971760428E+01  0.47011325408E+00  0.23064926525E+01  0.00000000000E+00 0. -1.
</event>
<event>
 7    1  0.4723144E-009  0.4778727E+02  0.7816164E-02  0.1312668E+00
        -11   -1    0    0    0    0  0.00000000000E+00  0.00000000000E+00  0.45593999997E+02  0.45594000000E+02  0.51100000000E-03 0. -1.
         11   -1    0    0    0    0 -0.00000000000E+00 -0.00000000000E+00 -0.45593999997E+02  0.45594000000E+02  0.51100000000E-03 0.  1.
    9900012    2    1    2    0    0  0.35002942951E+01  0.15024810315E+02 -0.40566320034E+02  0.47787270671E+02  0.19999998299E+02 0.  0.
         12    1    1    2    0    0 -0.35002942951E+01 -0.15024810315E+02  0.40566320034E+02  0.43400729329E+02  0.00000000000E+00 0. -1.
         11    1    3    3    0    0  0.16049874458E+01  0.18092379395E+01 -0.44139058527E+01  0.50330797491E+01  0.51100000000E-03 0.  1.
        -11    1    3    3    0    0  0.45988974728E+01 -0.34667838199E+01 -0.70801476984E+01  0.91267157133E+01  0.51100000000E-03 0. -1.
        -12    1    3    3    0    0 -0.27035906235E+01  0.16682356195E+02 -0.29072266483E+02  0.33627475209E+02  0.00000000000E+00 0.  1.
</event>
<event>
 7    1  0.4723144E-009  0.4778726E+02  0.7816164E-02  0.1312668E+00
        -11   -1    0    0    0    0  0.00000000000E+00  0.00000000000E+00  0.45593999997E+02  0.45594000000E+02  0.51100000000E-03 0.  1.
         11   -1    0    0    0    0 -0.00000000000E+00 -0.00000000000E+00 -0.45593999997E+02  0.45594000000E+02  0.51100000000E-03 0. -1.
    9900012    2    1    2    0    0 -0.26593394656E+02  0.26270224707E+01  0.34198167882E+02  0.47787256079E+02  0.19999931768E+02 0.  0.
         12    1    1    2    0    0  0.26593394656E+02 -0.26270224707E+01 -0.34198167882E+02  0.43400743921E+02  0.00000000000E+00 0. -1.
         11    1    3    3    0    0 -0.49936358215E+01 -0.58751494144E+01  0.49761828952E+01  0.91769371702E+01  0.51100000000E-03 0. -1.
        -11    1    3    3    0    0 -0.17043436194E+02  0.90938925386E+01  0.27698815062E+02  0.33769837946E+02  0.51100000000E-03 0.  1.
        -12    1    3    3    0    0 -0.45563226405E+01 -0.59172065341E+00  0.15231699248E+01  0.48404809632E+01  0.00000000000E+00 0.  1.
</event>
<event>
 7    1  0.4723144E-009  0.4778729E+02  0.7816164E-02  0.1312668E+00
        -11   -1    0    0    0    0  0.00000000000E+00  0.00000000000E+00  0.45593999997E+02  0.45594000000E+02  0.51100000000E-03 0.  1.
         11   -1    0    0    0    0 -0.00000000000E+00 -0.00000000000E+00 -0.45593999997E+02  0.45594000000E+02  0.51100000000E-03 0. -1.
    9900012    2    1    2    0    0 -0.28818362198E+02  0.29301448452E+02  0.13948086323E+02  0.47787285798E+02  0.20000067268E+02 0.  0.
         12    1    1    2    0    0  0.28818362198E+02 -0.29301448452E+02 -0.13948086323E+02  0.43400714202E+02  0.00000000000E+00 0. -1.
         11    1    3    3    0    0 -0.35497835440E+01  0.55483076719E+01 -0.27507811969E+01  0.71380304486E+01  0.51100000000E-03 0. -1.
        -11    1    3    3    0    0 -0.25401903251E+02  0.18079824883E+02  0.15619239289E+02  0.34872587985E+02  0.51100000000E-03 0.  1.
        -12    1    3    3    0    0  0.13332459705E+00  0.56733158976E+01  0.10796282307E+01  0.57766673643E+01  0.00000000000E+00 0.  1.
</event>
<event>
 7    1  0.4723144E-009  0.4778726E+02  0.7816164E-02  0.1312668E+00
        -11   -1    0    0    0    0  0.00000000000E+00  0.00000000000E+00  0.45593999997E+02  0.45594000000E+02  0.51100000000E-03 0.  1.
         11   -1    0    0    0    0 -0.00000000000E+00 -0.00000000000E+00 -0.45593999997E+02  0.45594000000E+02  0.51100000000E-03 0. -1.
    9900012    2    1    2    0    0  0.41634671716E+02  0.11964199886E+01  0.12196175818E+02  0.47787262515E+02  0.19999961109E+02 0.  0.
         12    1    1    2    0    0 -0.41634671716E+02 -0.11964199886E+01 -0.12196175818E+02  0.43400737485E+02  0.00000000000E+00 0. -1.
         11    1    3    3    0    0  0.53211170318E+01 -0.64363823625E+01  0.44172288589E+01  0.94473919912E+01  0.51100000000E-03 0. -1.
        -11    1    3    3    0    0  0.25725704882E+02  0.80213528005E+01  0.55268110173E+01  0.27508173925E+02  0.51100000000E-03 0.  1.
         12    1    3    3    0    0  0.10587849802E+02 -0.38855044939E+00  0.22521359416E+01  0.10831696598E+02  0.00000000000E+00 0. -1.
</event>
<event>
 7    1  0.4723144E-009  0.4778727E+02  0.7816164E-02  0.1312668E+00
        -11   -1    0    0    0    0  0.00000000000E+00  0.00000000000E+00  0.45593999997E+02  0.45594000000E+02  0.51100000000E-03 0.  1.
         11   -1    0    0    0    0 -0.00000000000E+00 -0.00000000000E+00 -0.45593999997E+02  0.45594000000E+02  0.51100000000E-03 0. -1.
    9900012    2    1    2    0    0  0.18970261295E+02 -0.33096779777E+02  0.20696748905E+02  0.47787273503E+02  0.20000011211E+02 0.  0.
         12    1    1    2    0    0 -0.18970261295E+02  0.33096779777E+02 -0.20696748905E+02  0.43400726497E+02  0.00000000000E+00 0. -1.
         11    1    3    3    0    0  0.15555875894E+02 -0.23630222956E+02  0.47339061317E+01  0.28684186921E+02  0.51100000000E-03 0. -1.
        -11    1    3    3    0    0  0.30541017777E+01 -0.89619309615E+01  0.13037366281E+02  0.16112624368E+02  0.51100000000E-03 0.  1.
         12    1    3    3    0    0  0.36028362310E+00 -0.50462585943E+00  0.29254764927E+01  0.29904622145E+01  0.00000000000E+00 0. -1.
</event>
<event>
 7    1  0.4723144E-009  0.4778727E+02  0.7816164E-02  0.1312668E+00
        -11   -1    0    0    0    0  0.00000000000E+00  0.00000000000E+00  0.45593999997E+02  0.45594000000E+02  0.51100000000E-03 0.  1.
         11   -1    0    0    0    0 -0.00000000000E+00 -0.00000000000E+00 -0.45593999997E+02  0.45594000000E+02  0.51100000000E-03 0. -1.
    9900012    2    1    2    0    0  0.38046654255E+01 -0.22010484863E+02  0.37211372231E+02  0.47787272515E+02  0.20000006705E+02 0.  0.
         12    1    1    2    0    0 -0.38046654255E+01  0.22010484863E+02 -0.37211372231E+02  0.43400727485E+02  0.00000000000E+00 0. -1.
         11    1    3    3    0    0  0.79252769679E+00 -0.18006033778E+00  0.68119584722E+00  0.10604479802E+01  0.51100000000E-03 0. -1.
        -11    1    3    3    0    0  0.63860980940E+01 -0.19581427366E+02  0.16785377523E+02  0.26569972627E+02  0.51100000000E-03 0.  1.
        -12    1    3    3    0    0 -0.33739603653E+01 -0.22489971590E+01  0.19744798861E+02  0.20156851908E+02  0.00000000000E+00 0.  1.
</event>
<event>
 7    1  0.4723144E-009  0.4778727E+02  0.7816164E-02  0.1312668E+00
        -11   -1    0    0    0    0  0.00000000000E+00  0.00000000000E+00  0.45593999997E+02  0.45594000000E+02  0.51100000000E-03 0.  1.
         11   -1    0    0    0    0 -0.00000000000E+00 -0.00000000000E+00 -0.45593999997E+02  0.45594000000E+02  0.51100000000E-03 0. -1.
    9900012    2    1    2    0    0  0.12061515246E+02 -0.16315176953E+01  0.41659106681E+02  0.47787272247E+02  0.20000005484E+02 0.  0.
         12    1    1    2    0    0 -0.12061515246E+02  0.16315176953E+01 -0.41659106681E+02  0.43400727753E+02  0.00000000000E+00 0. -1.
         11    1    3    3    0    0  0.23278650322E+01 -0.85834609624E+01  0.13909671868E+02  0.16509807068E+02  0.51100000000E-03 0. -1.
        -11    1    3    3    0    0  0.22448656981E+01  0.46649707466E+01  0.18232983291E+02  0.18953708187E+02  0.51100000000E-03 0.  1.
        -12    1    3    3    0    0  0.74887845155E+01  0.22869725206E+01  0.95164515222E+01  0.12323756992E+02  0.00000000000E+00 0.  1.
</event>
<event>
 7    1  0.4723144E-009  0.4778727E+02  0.7816164E-02  0.1312668E+00
        -11   -1    0    0    0    0  0.00000000000E+00  0.00000000000E+00  0.45593999997E+02  0.45594000000E+02  0.51100000000E-03 0.  1.
         11   -1    0    0    0    0 -0.00000000000E+00 -0.00000000000E+00 -0.45593999997E+02  0.45594000000E+02  0.51100000000E-03 0. -1.
    9900012    2    1    2    0    0 -0.16080798251E+02  0.36482162036E+02  0.17148844975E+02  0.47787273011E+02  0.20000008965E+02 0.  0.
         12    1    1    2    0    0  0.16080798251E+02 -0.36482162036E+02 -0.17148844975E+02  0.43400726989E+02  0.00000000000E+00 0. -1.
         11    1    3    3    0    0 -0.37702256629E+01  0.17006688371E+01 -0.31520184455E+01  0.52002015908E+01  0.51100000000E-03 0. -1.
        -11    1    3    3    0    0 -0.92689467225E+01  0.20225165353E+02  0.94166920461E+01  0.24158741197E+02  0.51100000000E-03 0.  1.
        -12    1    3    3    0    0 -0.30416258657E+01  0.14556327846E+02  0.10884171375E+02  0.18428330222E+02  0.00000000000E+00 0.  1.
</event>
<event>
 7    1  0.4723144E-009  0.4778727E+02  0.7816164E-02  0.1312668E+00
        -11   -1    0    0    0    0  0.00000000000E+00  0.00000000000E+00  0.45593999997E+02  0.45594000000E+02  0.51100000000E-03 0. -1.
         11   -1    0    0    0    0 -0.00000000000E+00 -0.00000000000E+00 -0.45593999997E+02  0.45594000000E+02  0.51100000000E-03 0.  1.
    9900012    2    1    2    0    0 -0.38545566965E+02 -0.77063926726E+01 -0.18397665385E+02  0.47787270602E+02  0.19999997981E+02 0.  0.
         12    1    1    2    0    0  0.38545566965E+02  0.77063926726E+01  0.18397665385E+02  0.43400729398E+02  0.00000000000E+00 0. -1.
         11    1    3    3    0    0 -0.12322374681E+02 -0.11076482965E+02 -0.43844851625E+01  0.17139227026E+02  0.51100000000E-03 0. -1.
        -11    1    3    3    0    0 -0.23253710584E+02  0.36408068898E+01 -0.98214503611E+01  0.25503949071E+02  0.51100000000E-03 0.  1.
         12    1    3    3    0    0 -0.29694817003E+01 -0.27071659733E+00 -0.41917298614E+01  0.51440945049E+01  0.00000000000E+00 0. -1.
</event>
<event>
 7    1  0.4723144E-009  0.4778727E+02  0.7816164E-02  0.1312668E+00
        -11   -1    0    0    0    0  0.00000000000E+00  0.00000000000E+00  0.45593999997E+02  0.45594000000E+02  0.51100000000E-03 0. -1.
         11   -1    0    0    0    0 -0.00000000000E+00 -0.00000000000E+00 -0.45593999997E+02  0.45594000000E+02  0.51100000000E-03 0.  1.
    9900012    2    1    2    0    0 -0.21092541511E+02  0.29713631907E+02 -0.23576007094E+02  0.47787270295E+02  0.19999996581E+02 0.  0.
         12    1    1    2    0    0  0.21092541511E+02 -0.29713631907E+02  0.23576007094E+02  0.43400729705E+02  0.00000000000E+00 0. -1.
         11    1    3    3    0    0 -0.14319440314E+02  0.78882677809E+01 -0.58054569193E+01  0.17348615789E+02  0.51100000000E-03 0. -1.
        -11    1    3    3    0    0 -0.89533324013E+01  0.18260251864E+02 -0.13198683888E+02  0.24244673968E+02  0.51100000000E-03 0.  1.
         12    1    3    3    0    0  0.21802312046E+01  0.35651122624E+01 -0.45718662867E+01  0.61939805369E+01  0.00000000000E+00 0. -1.
</event>
<event>
 7    1  0.4723144E-009  0.4778727E+02  0.7816164E-02  0.1312668E+00
        -11   -1    0    0    0    0  0.00000000000E+00  0.00000000000E+00  0.45593999997E+02  0.45594000000E+02  0.51100000000E-03 0.  1.
         11   -1    0    0    0    0 -0.00000000000E+00 -0.00000000000E+00 -0.45593999997E+02  0.45594000000E+02  0.51100000000E-03 0. -1.
    9900012    2    1    2    0    0 -0.32952208357E+02  0.28210376224E+02 -0.13963972443E+01  0.47787270887E+02  0.19999999281E+02 0.  0.
         12    1    1    2    0    0  0.32952208357E+02 -0.28210376224E+02  0.13963972443E+01  0.43400729113E+02  0.00000000000E+00 0. -1.
         11    1    3    3    0    0 -0.12405251396E+02  0.14457595417E+02  0.65008768480E+01  0.20128927629E+02  0.51100000000E-03 0.  1.
        -11    1    3    3    0    0 -0.69073597242E+01  0.59448672961E+01 -0.77158467713E+01  0.11940994816E+02  0.51100000000E-03 0. -1.
        -12    1    3    3    0    0 -0.13639597237E+02  0.78079135106E+01 -0.18142732100E+00  0.15717348442E+02  0.00000000000E+00 0.  1.
</event>
<event>
 7    1  0.4723144E-009  0.4778727E+02  0.7816164E-02  0.1312668E+00
        -11   -1    0    0    0    0  0.00000000000E+00  0.00000000000E+00  0.45593999997E+02  0.45594000000E+02  0.51100000000E-03 0.  1.
         11   -1    0    0    0    0 -0.00000000000E+00 -0.00000000000E+00 -0.45593999997E+02  0.45594000000E+02  0.51100000000E-03 0. -1.
    9900012    2    1    2    0    0 -0.66742731698E+01  0.42720027049E+02 -0.37518943990E+01  0.47787270225E+02  0.19999996263E+02 0.  0.
         12    1    1    2    0    0  0.66742731698E+01 -0.42720027049E+02  0.37518943990E+01  0.43400729775E+02  0.00000000000E+00 0. -1.
         11    1    3    3    0    0  0.30416881063E+01  0.20377166697E+02 -0.75869901666E+01  0.21955482441E+02  0.51100000000E-03 0.  1.
        -11    1    3    3    0    0 -0.57050695693E+01  0.18006332905E+02  0.55390542881E+01  0.19683926594E+02  0.51100000000E-03 0. -1.
         12    1    3    3    0    0 -0.40108917068E+01  0.43365274469E+01 -0.17039585205E+01  0.61478611908E+01  0.00000000000E+00 0. -1.
</event>
<event>
 7    1  0.4723144E-009  0.4778727E+02  0.7816164E-02  0.1312668E+00
        -11   -1    0    0    0    0  0.00000000000E+00  0.00000000000E+00  0.45593999997E+02  0.45594000000E+02  0.51100000000E-03 0.  1.
         11   -1    0    0    0    0 -0.00000000000E+00 -0.00000000000E+00 -0.45593999997E+02  0.45594000000E+02  0.51100000000E-03 0. -1.
    9900012    2    1    2    0    0  0.15658875341E+02 -0.20045052682E+02  0.35165585729E+02  0.47787274965E+02  0.20000017874E+02 0.  0.
         12    1    1    2    0    0 -0.15658875341E+02  0.20045052682E+02 -0.35165585729E+02  0.43400725035E+02  0.00000000000E+00 0. -1.
         11    1    3    3    0    0  0.10648333735E+02 -0.15665243205E+02  0.19068624899E+02  0.26877487081E+02  0.51100000000E-03 0. -1.
        -11    1    3    3    0    0 -0.28973066453E+01  0.17011344679E+01  0.44185924416E+01  0.55508741384E+01  0.51100000000E-03 0.  1.
        -12    1    3    3    0    0  0.79078482507E+01 -0.60809439452E+01  0.11678368388E+02  0.15358913745E+02  0.00000000000E+00 0.  1.
</event>
<event>
 7    1  0.4723144E-009  0.4778729E+02  0.7816164E-02  0.1312668E+00
        -11   -1    0    0    0    0  0.00000000000E+00  0.00000000000E+00  0.45593999997E+02  0.45594000000E+02  0.51100000000E-03 0.  1.
         11   -1    0    0    0    0 -0.00000000000E+00 -0.00000000000E+00 -0.45593999997E+02  0.45594000000E+02  0.51100000000E-03 0. -1.
    9900012    2    1    2    0    0 -0.19224908777E+02  0.97295386322E+01  0.37674407532E+02  0.47787285462E+02  0.20000065736E+02 0.  0.
         12    1    1    2    0    0  0.19224908777E+02 -0.97295386322E+01 -0.37674407532E+02  0.43400714538E+02  0.00000000000E+00 0. -1.
         11    1    3    3    0    0 -0.67157541199E+01  0.14175697594E+02  0.16916634880E+02  0.23069986814E+02  0.51100000000E-03 0. -1.
        -11    1    3    3    0    0 -0.10139693038E+02 -0.29106494943E+01  0.17169551021E+02  0.20151395434E+02  0.51100000000E-03 0.  1.
         12    1    3    3    0    0 -0.23694616192E+01 -0.15355094678E+01  0.35882216310E+01  0.45659032144E+01  0.00000000000E+00 0. -1.
</event>
<event>
 7    1  0.4723144E-009  0.4778727E+02  0.7816164E-02  0.1312668E+00
        -11   -1    0    0    0    0  0.00000000000E+00  0.00000000000E+00  0.45593999997E+02  0.45594000000E+02  0.51100000000E-03 0.  1.
         11   -1    0    0    0    0 -0.00000000000E+00 -0.00000000000E+00 -0.45593999997E+02  0.45594000000E+02  0.51100000000E-03 0. -1.
    9900012    2    1    2    0    0 -0.14513599564E+02 -0.30005597191E+02  0.27796453132E+02  0.47787271414E+02  0.20000001684E+02 0.  0.
         12    1    1    2    0    0  0.14513599564E+02  0.30005597191E+02 -0.27796453132E+02  0.43400728586E+02  0.00000000000E+00 0. -1.
         11    1    3    3    0    0 -0.15935716801E+01 -0.16880193229E+02  0.17903869898E+02  0.24658243079E+02  0.51100000000E-03 0. -1.
        -11    1    3    3    0    0 -0.70548109876E+01 -0.13208118985E+02  0.79253670617E+01  0.16942142973E+02  0.51100000000E-03 0.  1.
         12    1    3    3    0    0 -0.58652168960E+01  0.82715022679E-01  0.19672161716E+01  0.61868853616E+01  0.00000000000E+00 0. -1.
</event>
<event>
 7    1  0.4723144E-009  0.4778729E+02  0.7816164E-02  0.1312668E+00
        -11   -1    0    0    0    0  0.00000000000E+00  0.00000000000E+00  0.45593999997E+02  0.45594000000E+02  0.51100000000E-03 0.  1.
         11   -1    0    0    0    0 -0.00000000000E+00 -0.00000000000E+00 -0.45593999997E+02  0.45594000000E+02  0.51100000000E-03 0. -1.
    9900012    2    1    2    0    0 -0.20317411472E+02  0.26827679947E+02  0.27406208042E+02  0.47787287339E+02  0.20000074295E+02 0.  0.
         12    1    1    2    0    0  0.20317411472E+02 -0.26827679947E+02 -0.27406208042E+02  0.43400712661E+02  0.00000000000E+00 0. -1.
         11    1    3    3    0    0 -0.32677436135E+01  0.49877285411E+01  0.27330007663E+01  0.65593351624E+01  0.51100000000E-03 0. -1.
        -11    1    3    3    0    0 -0.37569684013E+01  0.19071035065E+02  0.15121970915E+02  0.24627082544E+02  0.51100000000E-03 0.  1.
        -12    1    3    3    0    0 -0.13292699457E+02  0.27689163405E+01  0.95512363600E+01  0.16600869633E+02  0.00000000000E+00 0.  1.
</event>
<event>
 7    1  0.4723144E-009  0.4778727E+02  0.7816164E-02  0.1312668E+00
        -11   -1    0    0    0    0  0.00000000000E+00  0.00000000000E+00  0.45593999997E+02  0.45594000000E+02  0.51100000000E-03 0.  1.
         11   -1    0    0    0    0 -0.00000000000E+00 -0.00000000000E+00 -0.45593999997E+02  0.45594000000E+02  0.51100000000E-03 0. -1.
    9900012    2    1    2    0    0 -0.22839656640E+01 -0.13307914862E+02  0.41246896067E+02  0.47787268068E+02  0.19999986428E+02 0.  0.
         12    1    1    2    0    0  0.22839656640E+01  0.13307914862E+02 -0.41246896067E+02  0.43400731932E+02  0.00000000000E+00 0. -1.
         11    1    3    3    0    0  0.25897134790E+00  0.24404892151E+01  0.35017779440E+01  0.42761551420E+01  0.51100000000E-03 0. -1.
        -11    1    3    3    0    0  0.33101773739E+00 -0.15929345291E+02  0.20180392305E+02  0.25711900902E+02  0.51100000000E-03 0.  1.
        -12    1    3    3    0    0 -0.28739547493E+01  0.18094121371E+00  0.17564725818E+02  0.17799212024E+02  0.00000000000E+00 0.  1.
</event>
<event>
 7    1  0.4723144E-009  0.4778727E+02  0.7816164E-02  0.1312668E+00
        -11   -1    0    0    0    0  0.00000000000E+00  0.00000000000E+00  0.45593999997E+02  0.45594000000E+02  0.51100000000E-03 0.  1.
         11   -1    0    0    0    0 -0.00000000000E+00 -0.00000000000E+00 -0.45593999997E+02  0.45594000000E+02  0.51100000000E-03 0. -1.
    9900012    2    1    2    0    0  0.39052799109E+02  0.49878035864E+01  0.18265372879E+02  0.47787272480E+02  0.20000006543E+02 0.  0.
         12    1    1    2    0    0 -0.39052799109E+02 -0.49878035864E+01 -0.18265372879E+02  0.43400727520E+02  0.00000000000E+00 0. -1.
         11    1    3    3    0    0  0.50036283552E+01 -0.28677780526E+01 -0.10170479718E+01  0.58561791737E+01  0.51100000000E-03 0. -1.
        -11    1    3    3    0    0  0.20491359551E+02  0.38472301006E+01  0.18329809096E+02  0.27761104039E+02  0.51100000000E-03 0.  1.
        -12    1    3    3    0    0  0.13557811203E+02  0.40083515384E+01  0.95261175490E+00  0.14169989267E+02  0.00000000000E+00 0.  1.
</event>
<event>
 7    1  0.4723144E-009  0.4778726E+02  0.7816164E-02  0.1312668E+00
        -11   -1    0    0    0    0  0.00000000000E+00  0.00000000000E+00  0.45593999997E+02  0.45594000000E+02  0.51100000000E-03 0.  1.
         11   -1    0    0    0    0 -0.00000000000E+00 -0.00000000000E+00 -0.45593999997E+02  0.45594000000E+02  0.51100000000E-03 0. -1.
    9900012    2    1    2    0    0  0.20663856940E+02 -0.57277617128E+01  0.37733560681E+02  0.47787264527E+02  0.19999970287E+02 0.  0.
         12    1    1    2    0    0 -0.20663856940E+02  0.57277617128E+01 -0.37733560681E+02  0.43400735473E+02  0.00000000000E+00 0. -1.
         11    1    3    3    0    0  0.33551189623E+01  0.40850634635E+01  0.28626500384E+01  0.60115998083E+01  0.51100000000E-03 0. -1.
        -11    1    3    3    0    0  0.30216654539E+01  0.24233144397E+01  0.36285331670E+01  0.53074634425E+01  0.51100000000E-03 0.  1.
         12    1    3    3    0    0  0.14287072523E+02 -0.12236139616E+02  0.31242377476E+02  0.36468201277E+02  0.00000000000E+00 0. -1.
</event>
<event>
 7    1  0.4723144E-009  0.4778727E+02  0.7816164E-02  0.1312668E+00
        -11   -1    0    0    0    0  0.00000000000E+00  0.00000000000E+00  0.45593999997E+02  0.45594000000E+02  0.51100000000E-03 0.  1.
         11   -1    0    0    0    0 -0.00000000000E+00 -0.00000000000E+00 -0.45593999997E+02  0.45594000000E+02  0.51100000000E-03 0. -1.
    9900012    2    1    2    0    0 -0.37153997265E+02  0.22267161746E+02  0.27162083257E+01  0.47787265068E+02  0.19999972751E+02 0.  0.
         12    1    1    2    0    0  0.37153997265E+02 -0.22267161746E+02 -0.27162083257E+01  0.43400734932E+02  0.00000000000E+00 0. -1.
         11    1    3    3    0    0 -0.83122922337E+01  0.80719724942E+01  0.19854394451E+01  0.11755548144E+02  0.51100000000E-03 0. -1.
        -11    1    3    3    0    0 -0.13792806934E+02  0.14229958478E+02  0.49032187621E+01  0.20415062965E+02  0.51100000000E-03 0.  1.
        -12    1    3    3    0    0 -0.15048898097E+02 -0.34769225787E-01 -0.41724498816E+01  0.15616653958E+02  0.00000000000E+00 0.  1.
</event>
<event>
 7    1  0.4723144E-009  0.4778727E+02  0.7816164E-02  0.1312668E+00
        -11   -1    0    0    0    0  0.00000000000E+00  0.00000000000E+00  0.45593999997E+02  0.45594000000E+02  0.51100000000E-03 0.  1.
         11   -1    0    0    0    0 -0.00000000000E+00 -0.00000000000E+00 -0.45593999997E+02  0.45594000000E+02  0.51100000000E-03 0. -1.
    9900012    2    1    2    0    0  0.22632927716E+02  0.36993163117E+02  0.16969689697E+01  0.47787271457E+02  0.20000001880E+02 0.  0.
         12    1    1    2    0    0 -0.22632927716E+02 -0.36993163117E+02 -0.16969689697E+01  0.43400728543E+02  0.00000000000E+00 0. -1.
         11    1    3    3    0    0  0.42835034210E+01  0.74866456018E+01 -0.47133574210E+01  0.98292422070E+01  0.51100000000E-03 0. -1.
        -11    1    3    3    0    0  0.20443929578E+02  0.24146948414E+02  0.49793793113E+01  0.32028480964E+02  0.51100000000E-03 0.  1.
        -12    1    3    3    0    0 -0.20945052826E+01  0.53595691008E+01  0.14309470793E+01  0.59295482854E+01  0.00000000000E+00 0.  1.
</event>
<event>
 7    1  0.4723144E-009  0.4778727E+02  0.7816164E-02  0.1312668E+00
        -11   -1    0    0    0    0  0.00000000000E+00  0.00000000000E+00  0.45593999997E+02  0.45594000000E+02  0.51100000000E-03 0.  1.
         11   -1    0    0    0    0 -0.00000000000E+00 -0.00000000000E+00 -0.45593999997E+02  0.45594000000E+02  0.51100000000E-03 0. -1.
    9900012    2    1    2    0    0 -0.30672462201E+01  0.15989924818E+02  0.40231050119E+02  0.47787273178E+02  0.20000009726E+02 0.  0.
         12    1    1    2    0    0  0.30672462201E+01 -0.15989924818E+02 -0.40231050119E+02  0.43400726822E+02  0.00000000000E+00 0. -1.
         11    1    3    3    0    0 -0.25131173675E+01  0.29496996484E+01  0.69382543550E+00  0.39367348037E+01  0.51100000000E-03 0. -1.
        -11    1    3    3    0    0 -0.20319163916E+01  0.14768612932E+02  0.38621964898E+02  0.41399236527E+02  0.51100000000E-03 0.  1.
        -12    1    3    3    0    0  0.14777875390E+01 -0.17283877630E+01  0.91525978504E+00  0.24513018467E+01  0.00000000000E+00 0.  1.
</event>
<event>
 7    1  0.4723144E-009  0.4778726E+02  0.7816164E-02  0.1312668E+00
        -11   -1    0    0    0    0  0.00000000000E+00  0.00000000000E+00  0.45593999997E+02  0.45594000000E+02  0.51100000000E-03 0.  1.
         11   -1    0    0    0    0 -0.00000000000E+00 -0.00000000000E+00 -0.45593999997E+02  0.45594000000E+02  0.51100000000E-03 0. -1.
    9900012    2    1    2    0    0  0.36168151363E+01  0.34042602667E+02  0.26676650420E+02  0.47787264687E+02  0.19999971014E+02 0.  0.
         12    1    1    2    0    0 -0.36168151363E+01 -0.34042602667E+02 -0.26676650420E+02  0.43400735313E+02  0.00000000000E+00 0. -1.
         11    1    3    3    0    0  0.52868818878E+01  0.34832459002E+01  0.14710699583E+01  0.64998591661E+01  0.51100000000E-03 0. -1.
        -11    1    3    3    0    0 -0.64125598679E+01  0.18379347719E+02  0.17079936056E+02  0.25896825338E+02  0.51100000000E-03 0.  1.
        -12    1    3    3    0    0  0.47424931165E+01  0.12180009048E+02  0.81256444050E+01  0.15390580183E+02  0.00000000000E+00 0.  1.
</event>
<event>
 7    1  0.4723144E-009  0.4778727E+02  0.7816164E-02  0.1312668E+00
        -11   -1    0    0    0    0  0.00000000000E+00  0.00000000000E+00  0.45593999997E+02  0.45594000000E+02  0.51100000000E-03 0. -1.
         11   -1    0    0    0    0 -0.00000000000E+00 -0.00000000000E+00 -0.45593999997E+02  0.45594000000E+02  0.51100000000E-03 0.  1.
    9900012    2    1    2    0    0 -0.97274434804E+01 -0.39340555409E+02  0.15534512893E+02  0.47787267894E+02  0.19999985636E+02 0.  0.
         12    1    1    2    0    0  0.97274434804E+01  0.39340555409E+02 -0.15534512893E+02  0.43400732106E+02  0.00000000000E+00 0. -1.
         11    1    3    3    0    0 -0.11991566691E+02 -0.19524579365E+02  0.90560093795E+01  0.24637738882E+02  0.51100000000E-03 0. -1.
        -11    1    3    3    0    0  0.31123773748E+01 -0.20584242900E+01 -0.99943231241E+00  0.38630129030E+01  0.51100000000E-03 0.  1.
        -12    1    3    3    0    0 -0.84825416472E+00 -0.17757551753E+02  0.74779358259E+01  0.19286516109E+02  0.00000000000E+00 0.  1.
</event>
<event>
 7    1  0.4723144E-009  0.4778728E+02  0.7816164E-02  0.1312668E+00
        -11   -1    0    0    0    0  0.00000000000E+00  0.00000000000E+00  0.45593999997E+02  0.45594000000E+02  0.51100000000E-03 0.  1.
         11   -1    0    0    0    0 -0.00000000000E+00 -0.00000000000E+00 -0.45593999997E+02  0.45594000000E+02  0.51100000000E-03 0. -1.
    9900012    2    1    2    0    0  0.15470422842E+02 -0.16904577886E+02  0.36858152427E+02  0.47787284145E+02  0.20000059729E+02 0.  0.
         12    1    1    2    0    0 -0.15470422842E+02  0.16904577886E+02 -0.36858152427E+02  0.43400715855E+02  0.00000000000E+00 0. -1.
         11    1    3    3    0    0  0.17679183364E+01 -0.48366963969E+01  0.23202298349E+02  0.23766905903E+02  0.51100000000E-03 0.  1.
        -11    1    3    3    0    0  0.87499113361E+01 -0.11570638106E+02  0.11829567040E+02  0.18718420638E+02  0.51100000000E-03 0. -1.
         12    1    3    3    0    0  0.49525931691E+01 -0.49724338334E+00  0.18262870385E+01  0.53019576033E+01  0.00000000000E+00 0. -1.
</event>
<event>
 7    1  0.4723144E-009  0.4778727E+02  0.7816164E-02  0.1312668E+00
        -11   -1    0    0    0    0  0.00000000000E+00  0.00000000000E+00  0.45593999997E+02  0.45594000000E+02  0.51100000000E-03 0. -1.
         11   -1    0    0    0    0 -0.00000000000E+00 -0.00000000000E+00 -0.45593999997E+02  0.45594000000E+02  0.51100000000E-03 0.  1.
    9900012    2    1    2    0    0 -0.42071936140E+02  0.80283536545E+01  0.70086523648E+01  0.47787268659E+02  0.19999989123E+02 0.  0.
         12    1    1    2    0    0  0.42071936140E+02 -0.80283536545E+01 -0.70086523648E+01  0.43400731341E+02  0.00000000000E+00 0. -1.
         11    1    3    3    0    0  0.77956073770E+00 -0.36546803658E+00 -0.14919976430E+01  0.17225966032E+01  0.51100000000E-03 0. -1.
        -11    1    3    3    0    0 -0.30198932133E+02  0.29359690887E+01  0.10571842157E+02  0.32130348011E+02  0.51100000000E-03 0.  1.
        -12    1    3    3    0    0 -0.12652564745E+02  0.54578526023E+01 -0.20711921495E+01  0.13934324044E+02  0.00000000000E+00 0.  1.
</event>
<event>
 7    1  0.4723144E-009  0.4778727E+02  0.7816164E-02  0.1312668E+00
        -11   -1    0    0    0    0  0.00000000000E+00  0.00000000000E+00  0.45593999997E+02  0.45594000000E+02  0.51100000000E-03 0.  1.
         11   -1    0    0    0    0 -0.00000000000E+00 -0.00000000000E+00 -0.45593999997E+02  0.45594000000E+02  0.51100000000E-03 0. -1.
    9900012    2    1    2    0    0 -0.26167598132E+02  0.14040039491E+02  0.31650549085E+02  0.47787272376E+02  0.20000006071E+02 0.  0.
         12    1    1    2    0    0  0.26167598132E+02 -0.14040039491E+02 -0.31650549085E+02  0.43400727624E+02  0.00000000000E+00 0. -1.
         11    1    3    3    0    0 -0.21165183781E+02  0.11371212714E+02  0.13374834963E+02  0.27498285285E+02  0.51100000000E-03 0. -1.
        -11    1    3    3    0    0 -0.63698257055E+01  0.95738243830E+00  0.15240418519E+02  0.16545743185E+02  0.51100000000E-03 0.  1.
         12    1    3    3    0    0  0.13674113550E+01  0.17114443385E+01  0.30352956035E+01  0.37432439058E+01  0.00000000000E+00 0. -1.
</event>
<event>
 7    1  0.4723144E-009  0.4778727E+02  0.7816164E-02  0.1312668E+00
        -11   -1    0    0    0    0  0.00000000000E+00  0.00000000000E+00  0.45593999997E+02  0.45594000000E+02  0.51100000000E-03 0.  1.
         11   -1    0    0    0    0 -0.00000000000E+00 -0.00000000000E+00 -0.45593999997E+02  0.45594000000E+02  0.51100000000E-03 0. -1.
    9900012    2    1    2    0    0  0.16064401842E+02 -0.93556632077E+01  0.39217724203E+02  0.47787270372E+02  0.19999996935E+02 0.  0.
         12    1    1    2    0    0 -0.16064401842E+02  0.93556632077E+01 -0.39217724203E+02  0.43400729628E+02  0.00000000000E+00 0. -1.
         11    1    3    3    0    0  0.10316560386E+02  0.16593164921E+01  0.13499940436E+02  0.17071412990E+02  0.51100000000E-03 0. -1.
        -11    1    3    3    0    0 -0.11925098537E+00 -0.75119992379E+01  0.21281773879E+02  0.22568966593E+02  0.51100000000E-03 0.  1.
        -12    1    3    3    0    0  0.58670924407E+01 -0.35029804620E+01  0.44360098875E+01  0.81468907902E+01  0.00000000000E+00 0.  1.
</event>
<event>
 7    1  0.4723144E-009  0.4778727E+02  0.7816164E-02  0.1312668E+00
        -11   -1    0    0    0    0  0.00000000000E+00  0.00000000000E+00  0.45593999997E+02  0.45594000000E+02  0.51100000000E-03 0.  1.
         11   -1    0    0    0    0 -0.00000000000E+00 -0.00000000000E+00 -0.45593999997E+02  0.45594000000E+02  0.51100000000E-03 0. -1.
    9900012    2    1    2    0    0  0.28366217685E+02 -0.17189572192E+01  0.32802836536E+02  0.47787271844E+02  0.20000003644E+02 0.  0.
         12    1    1    2    0    0 -0.28366217685E+02  0.17189572192E+01 -0.32802836536E+02  0.43400728156E+02  0.00000000000E+00 0. -1.
         11    1    3    3    0    0  0.97339646776E+01 -0.73886432594E+01  0.16697635314E+02  0.20691861755E+02  0.51100000000E-03 0. -1.
        -11    1    3    3    0    0  0.78279685432E+01 -0.12983003112E+01  0.10266118075E+02  0.12975201571E+02  0.51100000000E-03 0.  1.
         12    1    3    3    0    0  0.10804284465E+02  0.69679863514E+01  0.58390831468E+01  0.14120208518E+02  0.00000000000E+00 0. -1.
</event>
<event>
 7    1  0.4723144E-009  0.4778727E+02  0.7816164E-02  0.1312668E+00
        -11   -1    0    0    0    0  0.00000000000E+00  0.00000000000E+00  0.45593999997E+02  0.45594000000E+02  0.51100000000E-03 0.  1.
         11   -1    0    0    0    0 -0.00000000000E+00 -0.00000000000E+00 -0.45593999997E+02  0.45594000000E+02  0.51100000000E-03 0. -1.
    9900012    2    1    2    0    0  0.16107295777E+02  0.36117918561E+02 -0.17879429778E+02  0.47787273882E+02  0.20000012938E+02 0.  0.
         12    1    1    2    0    0 -0.16107295777E+02 -0.36117918561E+02  0.17879429778E+02  0.43400726118E+02  0.00000000000E+00 0. -1.
         11    1    3    3    0    0 -0.20699592696E+01  0.45299354900E+01 -0.40600160709E+01  0.64256344183E+01  0.51100000000E-03 0. -1.
        -11    1    3    3    0    0  0.19339871288E+02  0.26545214330E+02 -0.14915996795E+02  0.36071678446E+02  0.51100000000E-03 0.  1.
        -12    1    3    3    0    0 -0.11626162419E+01  0.50427687403E+01  0.10965830884E+01  0.52899610173E+01  0.00000000000E+00 0.  1.
</event>
<event>
 7    1  0.4723144E-009  0.4778727E+02  0.7816164E-02  0.1312668E+00
        -11   -1    0    0    0    0  0.00000000000E+00  0.00000000000E+00  0.45593999997E+02  0.45594000000E+02  0.51100000000E-03 0. -1.
         11   -1    0    0    0    0 -0.00000000000E+00 -0.00000000000E+00 -0.45593999997E+02  0.45594000000E+02  0.51100000000E-03 0.  1.
    9900012    2    1    2    0    0 -0.72413474116E+01 -0.13478191491E+02 -0.40614341744E+02  0.47787268284E+02  0.19999987414E+02 0.  0.
         12    1    1    2    0    0  0.72413474116E+01  0.13478191491E+02  0.40614341744E+02  0.43400731716E+02  0.00000000000E+00 0. -1.
         11    1    3    3    0    0 -0.86703320973E+01 -0.72560030850E+00 -0.12013009015E+02  0.14832853412E+02  0.51100000000E-03 0. -1.
        -11    1    3    3    0    0 -0.26131326843E+01 -0.11043525725E+02 -0.24251219908E+02  0.26775167416E+02  0.51100000000E-03 0.  1.
         12    1    3    3    0    0  0.40421173700E+01 -0.17090654575E+01 -0.43501128213E+01  0.61792474565E+01  0.00000000000E+00 0. -1.
</event>
<event>
 7    1  0.4723144E-009  0.4778728E+02  0.7816164E-02  0.1312668E+00
        -11   -1    0    0    0    0  0.00000000000E+00  0.00000000000E+00  0.45593999997E+02  0.45594000000E+02  0.51100000000E-03 0. -1.
         11   -1    0    0    0    0 -0.00000000000E+00 -0.00000000000E+00 -0.45593999997E+02  0.45594000000E+02  0.51100000000E-03 0.  1.
    9900012    2    1    2    0    0  0.41395114814E+02 -0.93148126153E+01  0.91269528876E+01  0.47787279574E+02  0.20000038888E+02 0.  0.
         12    1    1    2    0    0 -0.41395114814E+02  0.93148126153E+01 -0.91269528876E+01  0.43400720426E+02  0.00000000000E+00 0. -1.
         11    1    3    3    0    0  0.10868050562E-01  0.16456923090E-01  0.18963546871E+01  0.18964573038E+01  0.51100000000E-03 0. -1.
        -11    1    3    3    0    0  0.15980590587E+02 -0.84566457815E+01  0.94035160726E+01  0.20379407454E+02  0.51100000000E-03 0.  1.
        -12    1    3    3    0    0  0.25403656176E+02 -0.87462375689E+00 -0.21729178721E+01  0.25511414816E+02  0.00000000000E+00 0.  1.
</event>
<event>
 7    1  0.4723144E-009  0.4778727E+02  0.7816164E-02  0.1312668E+00
        -11   -1    0    0    0    0  0.00000000000E+00  0.00000000000E+00  0.45593999997E+02  0.45594000000E+02  0.51100000000E-03 0. -1.
         11   -1    0    0    0    0 -0.00000000000E+00 -0.00000000000E+00 -0.45593999997E+02  0.45594000000E+02  0.51100000000E-03 0.  1.
    9900012    2    1    2    0    0 -0.34290146648E+02  0.22657477346E+02  0.13944459069E+02  0.47787269873E+02  0.19999994659E+02 0.  0.
         12    1    1    2    0    0  0.34290146648E+02 -0.22657477346E+02 -0.13944459069E+02  0.43400730127E+02  0.00000000000E+00 0. -1.
         11    1    3    3    0    0 -0.14685013557E+02  0.16644806790E+02  0.45149571183E+00  0.22201420335E+02  0.51100000000E-03 0. -1.
        -11    1    3    3    0    0 -0.51911826879E+01  0.15670664207E+01  0.77217560423E+01  0.94355493483E+01  0.51100000000E-03 0.  1.
        -12    1    3    3    0    0 -0.14413950403E+02  0.44456041345E+01  0.57712073150E+01  0.16150300190E+02  0.00000000000E+00 0.  1.
</event>
<event>
 7    1  0.4723144E-009  0.4778721E+02  0.7816164E-02  0.1312668E+00
        -11   -1    0    0    0    0  0.00000000000E+00  0.00000000000E+00  0.45593999997E+02  0.45594000000E+02  0.51100000000E-03 0. -1.
         11   -1    0    0    0    0 -0.00000000000E+00 -0.00000000000E+00 -0.45593999997E+02  0.45594000000E+02  0.51100000000E-03 0.  1.
    9900012    2    1    2    0    0  0.95219334089E+01  0.23197905347E+02 -0.35423420666E+02  0.47787207841E+02  0.19999711830E+02 0.  0.
         12    1    1    2    0    0 -0.95219334089E+01 -0.23197905347E+02  0.35423420666E+02  0.43400792159E+02  0.00000000000E+00 0. -1.
         11    1    3    3    0    0 -0.29548069271E+01  0.19742703101E+00 -0.90077861338E+01  0.94820922113E+01  0.51100000000E-03 0. -1.
        -11    1    3    3    0    0  0.74388296793E+01  0.14838786215E+02 -0.22464801994E+02  0.27931936779E+02  0.51100000000E-03 0.  1.
        -12    1    3    3    0    0  0.50379106567E+01  0.81616921012E+01 -0.39508325385E+01  0.10373178852E+02  0.00000000000E+00 0.  1.
</event>
<event>
 7    1  0.4723144E-009  0.4778727E+02  0.7816164E-02  0.1312668E+00
        -11   -1    0    0    0    0  0.00000000000E+00  0.00000000000E+00  0.45593999997E+02  0.45594000000E+02  0.51100000000E-03 0. -1.
         11   -1    0    0    0    0 -0.00000000000E+00 -0.00000000000E+00 -0.45593999997E+02  0.45594000000E+02  0.51100000000E-03 0.  1.
    9900012    2    1    2    0    0  0.63413990524E+01  0.39755312812E+02 -0.16214961960E+02  0.47787271549E+02  0.20000002300E+02 0.  0.
         12    1    1    2    0    0 -0.63413990524E+01 -0.39755312812E+02  0.16214961960E+02  0.43400728451E+02  0.00000000000E+00 0. -1.
         11    1    3    3    0    0 -0.31347100854E+01  0.65939399726E+01  0.31570441974E+01  0.79544566129E+01  0.51100000000E-03 0. -1.
        -11    1    3    3    0    0  0.27877999962E+00  0.46760822086E+01 -0.12774033148E+01  0.48554322773E+01  0.51100000000E-03 0.  1.
         12    1    3    3    0    0  0.91973291382E+01  0.28485290631E+02 -0.18094602843E+02  0.34977382659E+02  0.00000000000E+00 0. -1.
</event>
<event>
 7    1  0.4723144E-009  0.4778725E+02  0.7816164E-02  0.1312668E+00
        -11   -1    0    0    0    0  0.00000000000E+00  0.00000000000E+00  0.45593999997E+02  0.45594000000E+02  0.51100000000E-03 0.  1.
         11   -1    0    0    0    0 -0.00000000000E+00 -0.00000000000E+00 -0.45593999997E+02  0.45594000000E+02  0.51100000000E-03 0. -1.
    9900012    2    1    2    0    0  0.31312726827E+02  0.21772770132E+02  0.20714349783E+02  0.47787254989E+02  0.19999926798E+02 0.  0.
         12    1    1    2    0    0 -0.31312726827E+02 -0.21772770132E+02 -0.20714349783E+02  0.43400745011E+02  0.00000000000E+00 0. -1.
         11    1    3    3    0    0 -0.13244598260E+01 -0.13579204590E+01  0.39994104524E+01  0.44264462079E+01  0.51100000000E-03 0. -1.
        -11    1    3    3    0    0  0.23473264106E+02  0.16330303253E+02  0.11701617235E+02  0.30896614350E+02  0.51100000000E-03 0.  1.
         12    1    3    3    0    0  0.91639225466E+01  0.68003873373E+01  0.50133220962E+01  0.12464194431E+02  0.00000000000E+00 0. -1.
</event>
<event>
 7    1  0.4723144E-009  0.4778727E+02  0.7816164E-02  0.1312668E+00
        -11   -1    0    0    0    0  0.00000000000E+00  0.00000000000E+00  0.45593999997E+02  0.45594000000E+02  0.51100000000E-03 0. -1.
         11   -1    0    0    0    0 -0.00000000000E+00 -0.00000000000E+00 -0.45593999997E+02  0.45594000000E+02  0.51100000000E-03 0.  1.
    9900012    2    1    2    0    0 -0.23467198829E+02  0.17916072425E+02 -0.31810826848E+02  0.47787265251E+02  0.19999973585E+02 0.  0.
         12    1    1    2    0    0  0.23467198829E+02 -0.17916072425E+02  0.31810826848E+02  0.43400734749E+02  0.00000000000E+00 0. -1.
         11    1    3    3    0    0 -0.77594828607E+01  0.75900006625E+01 -0.49649324055E+01  0.11936005964E+02  0.51100000000E-03 0. -1.
        -11    1    3    3    0    0 -0.13890572012E+02  0.67587425015E+01 -0.96918680619E+01  0.18236252297E+02  0.51100000000E-03 0.  1.
        -12    1    3    3    0    0 -0.18171439562E+01  0.35673292605E+01 -0.17154026380E+02  0.17615006990E+02  0.00000000000E+00 0.  1.
</event>
<event>
 7    1  0.4723144E-009  0.4778727E+02  0.7816164E-02  0.1312668E+00
        -11   -1    0    0    0    0  0.00000000000E+00  0.00000000000E+00  0.45593999997E+02  0.45594000000E+02  0.51100000000E-03 0.  1.
         11   -1    0    0    0    0 -0.00000000000E+00 -0.00000000000E+00 -0.45593999997E+02  0.45594000000E+02  0.51100000000E-03 0. -1.
    9900012    2    1    2    0    0 -0.17977912056E+02  0.10664297906E+02  0.38035385416E+02  0.47787272870E+02  0.20000008322E+02 0.  0.
         12    1    1    2    0    0  0.17977912056E+02 -0.10664297906E+02 -0.38035385416E+02  0.43400727130E+02  0.00000000000E+00 0. -1.
         11    1    3    3    0    0 -0.57822114335E+01  0.49543775378E+01  0.68800524288E+01  0.10262307125E+02  0.51100000000E-03 0. -1.
        -11    1    3    3    0    0 -0.11769780150E+02 -0.23520274534E+01  0.13216283553E+02  0.17853008406E+02  0.51100000000E-03 0.  1.
        -12    1    3    3    0    0 -0.42592047234E+00  0.80619478220E+01  0.17939049434E+02  0.19671957339E+02  0.00000000000E+00 0.  1.
</event>
<event>
 7    1  0.4723144E-009  0.4778727E+02  0.7816164E-02  0.1312668E+00
        -11   -1    0    0    0    0  0.00000000000E+00  0.00000000000E+00  0.45593999997E+02  0.45594000000E+02  0.51100000000E-03 0. -1.
         11   -1    0    0    0    0 -0.00000000000E+00 -0.00000000000E+00 -0.45593999997E+02  0.45594000000E+02  0.51100000000E-03 0.  1.
    9900012    2    1    2    0    0 -0.50850293550E+01  0.43101012140E+02  0.26253371367E+00  0.47787266193E+02  0.19999977881E+02 0.  0.
         12    1    1    2    0    0  0.50850293550E+01 -0.43101012140E+02 -0.26253371367E+00  0.43400733807E+02  0.00000000000E+00 0. -1.
         11    1    3    3    0    0  0.32970740955E+01  0.18424805031E+02  0.37963029575E+01  0.19098587760E+02  0.51100000000E-03 0. -1.
        -11    1    3    3    0    0 -0.16779634002E+01  0.14176248421E+01 -0.39048689214E+01  0.44803150470E+01  0.51100000000E-03 0.  1.
         12    1    3    3    0    0 -0.67041400503E+01  0.23258582266E+02  0.37109967765E+00  0.24208363386E+02  0.00000000000E+00 0. -1.
</event>
<event>
 7    1  0.4723144E-009  0.4778727E+02  0.7816164E-02  0.1312668E+00
        -11   -1    0    0    0    0  0.00000000000E+00  0.00000000000E+00  0.45593999997E+02  0.45594000000E+02  0.51100000000E-03 0. -1.
         11   -1    0    0    0    0 -0.00000000000E+00 -0.00000000000E+00 -0.45593999997E+02  0.45594000000E+02  0.51100000000E-03 0.  1.
    9900012    2    1    2    0    0 -0.70595498424E+01 -0.31830847415E+02 -0.28645822798E+02  0.47787271263E+02  0.20000000997E+02 0.  0.
         12    1    1    2    0    0  0.70595498424E+01  0.31830847415E+02  0.28645822798E+02  0.43400728737E+02  0.00000000000E+00 0. -1.
         11    1    3    3    0    0 -0.77028984218E+01 -0.41454334426E+01 -0.91597240001E+01  0.12665694081E+02  0.51100000000E-03 0. -1.
        -11    1    3    3    0    0 -0.31090090083E+01 -0.16824325834E+02 -0.15107651323E+02  0.22824657841E+02  0.51100000000E-03 0.  1.
         12    1    3    3    0    0  0.37523575876E+01 -0.10861088138E+02 -0.43784474743E+01  0.12296919342E+02  0.00000000000E+00 0. -1.
</event>
<event>
 7    1  0.4723144E-009  0.4778727E+02  0.7816164E-02  0.1312668E+00
        -11   -1    0    0    0    0  0.00000000000E+00  0.00000000000E+00  0.45593999997E+02  0.45594000000E+02  0.51100000000E-03 0.  1.
         11   -1    0    0    0    0 -0.00000000000E+00 -0.00000000000E+00 -0.45593999997E+02  0.45594000000E+02  0.51100000000E-03 0. -1.
    9900012    2    1    2    0    0 -0.17812556148E+02 -0.34125523468E+02  0.20044567123E+02  0.47787272130E+02  0.20000004948E+02 0.  0.
         12    1    1    2    0    0  0.17812556148E+02  0.34125523468E+02 -0.20044567123E+02  0.43400727870E+02  0.00000000000E+00 0. -1.
         11    1    3    3    0    0 -0.11722829981E+02 -0.98092748782E+01 -0.52604859189E+00  0.15294552748E+02  0.51100000000E-03 0. -1.
        -11    1    3    3    0    0 -0.49169656667E+01 -0.20171963237E+02  0.15998186499E+02  0.26211192718E+02  0.51100000000E-03 0.  1.
         12    1    3    3    0    0 -0.11727605004E+01 -0.41442853536E+01  0.45724292165E+01  0.62815266634E+01  0.00000000000E+00 0. -1.
</event>
<event>
 7    1  0.4723144E-009  0.4778727E+02  0.7816164E-02  0.1312668E+00
        -11   -1    0    0    0    0  0.00000000000E+00  0.00000000000E+00  0.45593999997E+02  0.45594000000E+02  0.51100000000E-03 0.  1.
         11   -1    0    0    0    0 -0.00000000000E+00 -0.00000000000E+00 -0.45593999997E+02  0.45594000000E+02  0.51100000000E-03 0. -1.
    9900012    2    1    2    0    0 -0.21658633094E+02  0.33689091219E+02  0.16720407605E+02  0.47787270915E+02  0.19999999408E+02 0.  0.
         12    1    1    2    0    0  0.21658633094E+02 -0.33689091219E+02 -0.16720407605E+02  0.43400729085E+02  0.00000000000E+00 0. -1.
         11    1    3    3    0    0 -0.10967534562E+02  0.11067601461E+02 -0.18095082541E+01  0.15686074616E+02  0.51100000000E-03 0. -1.
        -11    1    3    3    0    0 -0.98543873224E+01  0.12025832948E+02  0.11836759768E+02  0.19540688055E+02  0.51100000000E-03 0.  1.
         12    1    3    3    0    0 -0.83671120973E+00  0.10595656810E+02  0.66931560906E+01  0.12560508244E+02  0.00000000000E+00 0. -1.
</event>
<event>
 7    1  0.4723144E-009  0.4778731E+02  0.7816164E-02  0.1312668E+00
        -11   -1    0    0    0    0  0.00000000000E+00  0.00000000000E+00  0.45593999997E+02  0.45594000000E+02  0.51100000000E-03 0.  1.
         11   -1    0    0    0    0 -0.00000000000E+00 -0.00000000000E+00 -0.45593999997E+02  0.45594000000E+02  0.51100000000E-03 0. -1.
    9900012    2    1    2    0    0 -0.11701254669E+02 -0.19442438833E+02  0.36995836688E+02  0.47787311977E+02  0.20000186627E+02 0.  0.
         12    1    1    2    0    0  0.11701254669E+02  0.19442438833E+02 -0.36995836688E+02  0.43400688023E+02  0.00000000000E+00 0. -1.
         11    1    3    3    0    0  0.36231896459E+00 -0.62267798464E+00 -0.17510781691E+01  0.18934830129E+01  0.51100000000E-03 0. -1.
        -11    1    3    3    0    0 -0.12271692346E+02 -0.19026083064E+02  0.39249957826E+02  0.45311648165E+02  0.51100000000E-03 0.  1.
        -12    1    3    3    0    0  0.20811871204E+00  0.20632221520E+00 -0.50304296875E+00  0.58218079940E+00  0.00000000000E+00 0.  1.
</event>
<event>
 7    1  0.4723144E-009  0.4778727E+02  0.7816164E-02  0.1312668E+00
        -11   -1    0    0    0    0  0.00000000000E+00  0.00000000000E+00  0.45593999997E+02  0.45594000000E+02  0.51100000000E-03 0.  1.
         11   -1    0    0    0    0 -0.00000000000E+00 -0.00000000000E+00 -0.45593999997E+02  0.45594000000E+02  0.51100000000E-03 0. -1.
    9900012    2    1    2    0    0  0.21414270440E+02 -0.25204974761E+02  0.28102694444E+02  0.47787272285E+02  0.20000005656E+02 0.  0.
         12    1    1    2    0    0 -0.21414270440E+02  0.25204974761E+02 -0.28102694444E+02  0.43400727715E+02  0.00000000000E+00 0. -1.
         11    1    3    3    0    0 -0.60422221932E-01 -0.25098535786E+01 -0.24288281529E+01  0.34931679445E+01  0.51100000000E-03 0. -1.
        -11    1    3    3    0    0  0.84986441142E+01 -0.13993900961E+02  0.13921970258E+02  0.21491334812E+02  0.51100000000E-03 0.  1.
         12    1    3    3    0    0  0.12976048548E+02 -0.87012202215E+01  0.16609552339E+02  0.22802769528E+02  0.00000000000E+00 0. -1.
</event>
<event>
 7    1  0.4723144E-009  0.4778727E+02  0.7816164E-02  0.1312668E+00
        -11   -1    0    0    0    0  0.00000000000E+00  0.00000000000E+00  0.45593999997E+02  0.45594000000E+02  0.51100000000E-03 0.  1.
         11   -1    0    0    0    0 -0.00000000000E+00 -0.00000000000E+00 -0.45593999997E+02  0.45594000000E+02  0.51100000000E-03 0. -1.
    9900012    2    1    2    0    0 -0.29658897858E+01 -0.41727337597E+02  0.11560979503E+02  0.47787268990E+02  0.19999990633E+02 0.  0.
         12    1    1    2    0    0  0.29658897858E+01  0.41727337597E+02 -0.11560979503E+02  0.43400731010E+02  0.00000000000E+00 0. -1.
         11    1    3    3    0    0  0.55529369101E+01 -0.16598611173E+02  0.10714768720E+02  0.20522067883E+02  0.51100000000E-03 0. -1.
        -11    1    3    3    0    0 -0.84138331355E+01 -0.17494047153E+02 -0.89849336771E+00  0.19433001940E+02  0.51100000000E-03 0.  1.
         12    1    3    3    0    0 -0.10499356044E+00 -0.76346792706E+01  0.17447041508E+01  0.78321991667E+01  0.00000000000E+00 0. -1.
</event>
<event>
 7    1  0.4723144E-009  0.4778727E+02  0.7816164E-02  0.1312668E+00
        -11   -1    0    0    0    0  0.00000000000E+00  0.00000000000E+00  0.45593999997E+02  0.45594000000E+02  0.51100000000E-03 0. -1.
         11   -1    0    0    0    0 -0.00000000000E+00 -0.00000000000E+00 -0.45593999997E+02  0.45594000000E+02  0.51100000000E-03 0.  1.
    9900012    2    1    2    0    0 -0.28888161188E+02 -0.27901114664E+02 -0.16450685909E+02  0.47787272780E+02  0.20000007914E+02 0.  0.
         12    1    1    2    0    0  0.28888161188E+02  0.27901114664E+02  0.16450685909E+02  0.43400727220E+02  0.00000000000E+00 0. -1.
         11    1    3    3    0    0 -0.25082228155E+02 -0.14860570409E+02 -0.69994051622E+01  0.29982434774E+02  0.51100000000E-03 0. -1.
        -11    1    3    3    0    0 -0.34992701736E+01 -0.71699933000E+01 -0.88190122572E+01  0.11892378783E+02  0.51100000000E-03 0.  1.
         12    1    3    3    0    0 -0.30666285998E+00 -0.58705509547E+01 -0.63226848969E+00  0.59124592231E+01  0.00000000000E+00 0. -1.
</event>
<event>
 7    1  0.4723144E-009  0.4778727E+02  0.7816164E-02  0.1312668E+00
        -11   -1    0    0    0    0  0.00000000000E+00  0.00000000000E+00  0.45593999997E+02  0.45594000000E+02  0.51100000000E-03 0.  1.
         11   -1    0    0    0    0 -0.00000000000E+00 -0.00000000000E+00 -0.45593999997E+02  0.45594000000E+02  0.51100000000E-03 0. -1.
    9900012    2    1    2    0    0 -0.29670393487E+02 -0.23041762628E+02 -0.21734038872E+02  0.47787268205E+02  0.19999987054E+02 0.  0.
         12    1    1    2    0    0  0.29670393487E+02  0.23041762628E+02  0.21734038872E+02  0.43400731795E+02  0.00000000000E+00 0. -1.
         11    1    3    3    0    0 -0.27987483674E+02 -0.13234311882E+02 -0.11071717535E+02  0.32879008240E+02  0.51100000000E-03 0. -1.
        -11    1    3    3    0    0 -0.64281403894E+00 -0.71904273307E+01 -0.93191325452E+01  0.11788201167E+02  0.51100000000E-03 0.  1.
        -12    1    3    3    0    0 -0.10400957732E+01 -0.26170234153E+01 -0.13431887926E+01  0.31200587986E+01  0.00000000000E+00 0.  1.
</event>
<event>
 7    1  0.4723144E-009  0.4778728E+02  0.7816164E-02  0.1312668E+00
        -11   -1    0    0    0    0  0.00000000000E+00  0.00000000000E+00  0.45593999997E+02  0.45594000000E+02  0.51100000000E-03 0. -1.
         11   -1    0    0    0    0 -0.00000000000E+00 -0.00000000000E+00 -0.45593999997E+02  0.45594000000E+02  0.51100000000E-03 0.  1.
    9900012    2    1    2    0    0 -0.31467563197E+02 -0.27748419944E+02  0.11110381128E+02  0.47787275216E+02  0.20000019020E+02 0.  0.
         12    1    1    2    0    0  0.31467563197E+02  0.27748419944E+02 -0.11110381128E+02  0.43400724784E+02  0.00000000000E+00 0. -1.
         11    1    3    3    0    0 -0.10185679408E+01  0.20495399303E+01  0.24312557065E+01  0.33390266766E+01  0.51100000000E-03 0. -1.
        -11    1    3    3    0    0 -0.15383359454E+02 -0.91381009171E+01  0.18876234263E+01  0.17992102682E+02  0.51100000000E-03 0.  1.
         12    1    3    3    0    0 -0.15065635802E+02 -0.20659858957E+02  0.67915019953E+01  0.26456145857E+02  0.00000000000E+00 0. -1.
</event>
<event>
 7    1  0.4723144E-009  0.4778727E+02  0.7816164E-02  0.1312668E+00
        -11   -1    0    0    0    0  0.00000000000E+00  0.00000000000E+00  0.45593999997E+02  0.45594000000E+02  0.51100000000E-03 0. -1.
         11   -1    0    0    0    0 -0.00000000000E+00 -0.00000000000E+00 -0.45593999997E+02  0.45594000000E+02  0.51100000000E-03 0.  1.
    9900012    2    1    2    0    0 -0.65126226082E+01 -0.42713326025E+02  0.40964353612E+01  0.47787271250E+02  0.20000000936E+02 0.  0.
         12    1    1    2    0    0  0.65126226082E+01  0.42713326025E+02 -0.40964353612E+01  0.43400728750E+02  0.00000000000E+00 0. -1.
         11    1    3    3    0    0 -0.94580614277E+01 -0.15483622419E+02 -0.48747814779E+01  0.18787255891E+02  0.51100000000E-03 0.  1.
        -11    1    3    3    0    0  0.21683162983E+01 -0.12278613015E+02  0.26397402610E+01  0.12744966146E+02  0.51100000000E-03 0. -1.
         12    1    3    3    0    0  0.77712252114E+00 -0.14951090591E+02  0.63314765781E+01  0.16255049213E+02  0.00000000000E+00 0. -1.
</event>
<event>
 7    1  0.4723144E-009  0.4778726E+02  0.7816164E-02  0.1312668E+00
        -11   -1    0    0    0    0  0.00000000000E+00  0.00000000000E+00  0.45593999997E+02  0.45594000000E+02  0.51100000000E-03 0.  1.
         11   -1    0    0    0    0 -0.00000000000E+00 -0.00000000000E+00 -0.45593999997E+02  0.45594000000E+02  0.51100000000E-03 0. -1.
    9900012    2    1    2    0    0  0.21469591214E+01 -0.85024313427E+01  0.42505568030E+02  0.47787261691E+02  0.19999957354E+02 0.  0.
         12    1    1    2    0    0 -0.21469591214E+01  0.85024313427E+01 -0.42505568030E+02  0.43400738309E+02  0.00000000000E+00 0. -1.
         11    1    3    3    0    0 -0.13511333523E+01 -0.74042167318E+01  0.44273280254E+01  0.87320799615E+01  0.51100000000E-03 0. -1.
        -11    1    3    3    0    0  0.47096611593E+01 -0.32869348554E+01  0.20124246273E+02  0.20927736077E+02  0.51100000000E-03 0.  1.
         12    1    3    3    0    0 -0.12115686856E+01  0.21887202445E+01  0.17953993731E+02  0.18127445653E+02  0.00000000000E+00 0. -1.
</event>
<event>
 7    1  0.4723144E-009  0.4778727E+02  0.7816164E-02  0.1312668E+00
        -11   -1    0    0    0    0  0.00000000000E+00  0.00000000000E+00  0.45593999997E+02  0.45594000000E+02  0.51100000000E-03 0. -1.
         11   -1    0    0    0    0 -0.00000000000E+00 -0.00000000000E+00 -0.45593999997E+02  0.45594000000E+02  0.51100000000E-03 0.  1.
    9900012    2    1    2    0    0  0.18078566004E+02 -0.17765594812E+02 -0.35230272649E+02  0.47787273984E+02  0.20000013401E+02 0.  0.
         12    1    1    2    0    0 -0.18078566004E+02  0.17765594812E+02  0.35230272649E+02  0.43400726016E+02  0.00000000000E+00 0. -1.
         11    1    3    3    0    0  0.48018106919E+01 -0.13288567651E+02 -0.71608628134E+01  0.15840497866E+02  0.51100000000E-03 0. -1.
        -11    1    3    3    0    0  0.11157454022E+02 -0.36453994139E+01 -0.17082950233E+02  0.20726912603E+02  0.51100000000E-03 0.  1.
        -12    1    3    3    0    0  0.21193012900E+01 -0.83162774694E+00 -0.10986459603E+02  0.11219863515E+02  0.00000000000E+00 0.  1.
</event>
<event>
 7    1  0.4723144E-009  0.4778729E+02  0.7816164E-02  0.1312668E+00
        -11   -1    0    0    0    0  0.00000000000E+00  0.00000000000E+00  0.45593999997E+02  0.45594000000E+02  0.51100000000E-03 0.  1.
         11   -1    0    0    0    0 -0.00000000000E+00 -0.00000000000E+00 -0.45593999997E+02  0.45594000000E+02  0.51100000000E-03 0. -1.
    9900012    2    1    2    0    0  0.15203108136E+02  0.17632022843E+01  0.40612543135E+02  0.47787285268E+02  0.20000064852E+02 0.  0.
         12    1    1    2    0    0 -0.15203108136E+02 -0.17632022843E+01 -0.40612543135E+02  0.43400714732E+02  0.00000000000E+00 0. -1.
         11    1    3    3    0    0  0.15432851637E+02  0.11012369829E+01  0.19758583859E+02  0.25095562734E+02  0.51100000000E-03 0. -1.
        -11    1    3    3    0    0 -0.18472437610E+00  0.14847521794E+01  0.21556808920E+02  0.21608670094E+02  0.51100000000E-03 0.  1.
        -12    1    3    3    0    0 -0.45019125527E-01 -0.82278687800E+00 -0.70284964364E+00  0.10830524409E+01  0.00000000000E+00 0.  1.
</event>
<event>
 7    1  0.4723144E-009  0.4778727E+02  0.7816164E-02  0.1312668E+00
        -11   -1    0    0    0    0  0.00000000000E+00  0.00000000000E+00  0.45593999997E+02  0.45594000000E+02  0.51100000000E-03 0.  1.
         11   -1    0    0    0    0 -0.00000000000E+00 -0.00000000000E+00 -0.45593999997E+02  0.45594000000E+02  0.51100000000E-03 0. -1.
    9900012    2    1    2    0    0 -0.23830603150E+02  0.11873984237E+02  0.34274393234E+02  0.47787272129E+02  0.20000004946E+02 0.  0.
         12    1    1    2    0    0  0.23830603150E+02 -0.11873984237E+02 -0.34274393234E+02  0.43400727871E+02  0.00000000000E+00 0. -1.
         11    1    3    3    0    0 -0.25362730426E+00  0.82728304388E+00 -0.82094576233E+00  0.11927599297E+01  0.51100000000E-03 0. -1.
        -11    1    3    3    0    0 -0.68494317006E+01 -0.32897549730E+01  0.43015793644E+01  0.87315970872E+01  0.51100000000E-03 0.  1.
        -12    1    3    3    0    0 -0.16727544145E+02  0.14336456167E+02  0.30793759632E+02  0.37862915112E+02  0.00000000000E+00 0.  1.
</event>
<event>
 7    1  0.4723144E-009  0.4778727E+02  0.7816164E-02  0.1312668E+00
        -11   -1    0    0    0    0  0.00000000000E+00  0.00000000000E+00  0.45593999997E+02  0.45594000000E+02  0.51100000000E-03 0. -1.
         11   -1    0    0    0    0 -0.00000000000E+00 -0.00000000000E+00 -0.45593999997E+02  0.45594000000E+02  0.51100000000E-03 0.  1.
    9900012    2    1    2    0    0  0.14102461584E+02 -0.16058609459E+02 -0.37773863975E+02  0.47787272356E+02  0.20000005978E+02 0.  0.
         12    1    1    2    0    0 -0.14102461584E+02  0.16058609459E+02  0.37773863975E+02  0.43400727644E+02  0.00000000000E+00 0. -1.
         11    1    3    3    0    0 -0.19463709922E+01  0.11848747095E+01 -0.21858204409E+01  0.31575464173E+01  0.51100000000E-03 0. -1.
        -11    1    3    3    0    0  0.11856596507E+02 -0.79678638044E+01 -0.29479971649E+02  0.32758731096E+02  0.51100000000E-03 0.  1.
        -12    1    3    3    0    0  0.41922360691E+01 -0.92756203643E+01 -0.61080718853E+01  0.11870994843E+02  0.00000000000E+00 0.  1.
</event>
<event>
 7    1  0.4723144E-009  0.4778727E+02  0.7816164E-02  0.1312668E+00
        -11   -1    0    0    0    0  0.00000000000E+00  0.00000000000E+00  0.45593999997E+02  0.45594000000E+02  0.51100000000E-03 0.  1.
         11   -1    0    0    0    0 -0.00000000000E+00 -0.00000000000E+00 -0.45593999997E+02  0.45594000000E+02  0.51100000000E-03 0. -1.
    9900012    2    1    2    0    0 -0.17936796013E+02 -0.56042617398E+01  0.39121443761E+02  0.47787265411E+02  0.19999974316E+02 0.  0.
         12    1    1    2    0    0  0.17936796013E+02  0.56042617398E+01 -0.39121443761E+02  0.43400734589E+02  0.00000000000E+00 0. -1.
         11    1    3    3    0    0  0.47092246329E+00  0.16332639570E+01  0.78053204779E+00  0.18704410331E+01  0.51100000000E-03 0. -1.
        -11    1    3    3    0    0 -0.12653608624E+02 -0.34930809140E+01  0.93302713697E+01  0.16104949226E+02  0.51100000000E-03 0.  1.
        -12    1    3    3    0    0 -0.57541098528E+01 -0.37444447828E+01  0.29010640344E+02  0.29811875152E+02  0.00000000000E+00 0.  1.
</event>
<event>
 7    1  0.4723144E-009  0.4778728E+02  0.7816164E-02  0.1312668E+00
        -11   -1    0    0    0    0  0.00000000000E+00  0.00000000000E+00  0.45593999997E+02  0.45594000000E+02  0.51100000000E-03 0. -1.
         11   -1    0    0    0    0 -0.00000000000E+00 -0.00000000000E+00 -0.45593999997E+02  0.45594000000E+02  0.51100000000E-03 0.  1.
    9900012    2    1    2    0    0  0.23289473404E+02 -0.32355850845E+02 -0.17155818430E+02  0.47787276949E+02  0.20000026920E+02 0.  0.
         12    1    1    2    0    0 -0.23289473404E+02  0.32355850845E+02  0.17155818430E+02  0.43400723051E+02  0.00000000000E+00 0. -1.
         11    1    3    3    0    0  0.16657052972E+01 -0.11283673224E+02 -0.85254701475E+00  0.11437774794E+02  0.51100000000E-03 0. -1.
        -11    1    3    3    0    0  0.11131432428E+02 -0.35409186432E+01 -0.33261597563E+01  0.12145379027E+02  0.51100000000E-03 0.  1.
        -12    1    3    3    0    0  0.10492335680E+02 -0.17531258978E+02 -0.12977111659E+02  0.24204123128E+02  0.00000000000E+00 0.  1.
</event>
<event>
 7    1  0.4723144E-009  0.4778727E+02  0.7816164E-02  0.1312668E+00
        -11   -1    0    0    0    0  0.00000000000E+00  0.00000000000E+00  0.45593999997E+02  0.45594000000E+02  0.51100000000E-03 0. -1.
         11   -1    0    0    0    0 -0.00000000000E+00 -0.00000000000E+00 -0.45593999997E+02  0.45594000000E+02  0.51100000000E-03 0.  1.
    9900012    2    1    2    0    0  0.36914769920E+02  0.17931679650E+02 -0.14120121645E+02  0.47787271797E+02  0.20000003430E+02 0.  0.
         12    1    1    2    0    0 -0.36914769920E+02 -0.17931679650E+02  0.14120121645E+02  0.43400728203E+02  0.00000000000E+00 0. -1.
         11    1    3    3    0    0  0.10344083048E+02  0.88442964767E+01 -0.81033238923E+01  0.15839365285E+02  0.51100000000E-03 0. -1.
        -11    1    3    3    0    0  0.15623201661E+02  0.47688531387E+01  0.36271588916E+01  0.16732682759E+02  0.51100000000E-03 0.  1.
        -12    1    3    3    0    0  0.10947485211E+02  0.43185300343E+01 -0.96439566444E+01  0.15215223753E+02  0.00000000000E+00 0.  1.
</event>
<event>
 7    1  0.4723144E-009  0.4778727E+02  0.7816164E-02  0.1312668E+00
        -11   -1    0    0    0    0  0.00000000000E+00  0.00000000000E+00  0.45593999997E+02  0.45594000000E+02  0.51100000000E-03 0.  1.
         11   -1    0    0    0    0 -0.00000000000E+00 -0.00000000000E+00 -0.45593999997E+02  0.45594000000E+02  0.51100000000E-03 0. -1.
    9900012    2    1    2    0    0  0.20471712252E+02 -0.34726530188E+02  0.16081052527E+02  0.47787272450E+02  0.20000006410E+02 0.  0.
         12    1    1    2    0    0 -0.20471712252E+02  0.34726530188E+02 -0.16081052527E+02  0.43400727550E+02  0.00000000000E+00 0. -1.
         11    1    3    3    0    0  0.12904472196E+02 -0.24485252278E+02  0.19491227778E+01  0.27746208059E+02  0.51100000000E-03 0. -1.
        -11    1    3    3    0    0  0.13914321702E+01 -0.44898425794E+01  0.90283708137E+01  0.10178715522E+02  0.51100000000E-03 0.  1.
         12    1    3    3    0    0  0.61758078858E+01 -0.57514353309E+01  0.51035589355E+01  0.98623488691E+01  0.00000000000E+00 0. -1.
</event>
<event>
 7    1  0.4723144E-009  0.4778725E+02  0.7816164E-02  0.1312668E+00
        -11   -1    0    0    0    0  0.00000000000E+00  0.00000000000E+00  0.45593999997E+02  0.45594000000E+02  0.51100000000E-03 0.  1.
         11   -1    0    0    0    0 -0.00000000000E+00 -0.00000000000E+00 -0.45593999997E+02  0.45594000000E+02  0.51100000000E-03 0. -1.
    9900012    2    1    2    0    0  0.68577620763E+01 -0.31603638136E+02  0.28944879521E+02  0.47787252373E+02  0.19999914868E+02 0.  0.
         12    1    1    2    0    0 -0.68577620763E+01  0.31603638136E+02 -0.28944879521E+02  0.43400747627E+02  0.00000000000E+00 0. -1.
         11    1    3    3    0    0 -0.21383575705E+01 -0.23356623232E+02  0.17085943599E+02  0.29017820229E+02  0.51100000000E-03 0.  1.
        -11    1    3    3    0    0  0.10283509981E+02 -0.58701827340E+01  0.98309867245E+01  0.15390189184E+02  0.51100000000E-03 0. -1.
         12    1    3    3    0    0 -0.12873903346E+01 -0.23768321695E+01  0.20279491972E+01  0.33792429599E+01  0.00000000000E+00 0. -1.
</event>
<event>
 7    1  0.4723144E-009  0.4778727E+02  0.7816164E-02  0.1312668E+00
        -11   -1    0    0    0    0  0.00000000000E+00  0.00000000000E+00  0.45593999997E+02  0.45594000000E+02  0.51100000000E-03 0.  1.
         11   -1    0    0    0    0 -0.00000000000E+00 -0.00000000000E+00 -0.45593999997E+02  0.45594000000E+02  0.51100000000E-03 0. -1.
    9900012    2    1    2    0    0  0.11349514047E+01  0.10830474011E+02  0.42012332882E+02  0.47787269635E+02  0.19999993574E+02 0.  0.
         12    1    1    2    0    0 -0.11349514047E+01 -0.10830474011E+02 -0.42012332882E+02  0.43400730365E+02  0.00000000000E+00 0. -1.
         11    1    3    3    0    0 -0.17226043054E+01  0.10401618726E+02  0.77184394801E+01  0.13066573613E+02  0.51100000000E-03 0. -1.
        -11    1    3    3    0    0  0.78551230435E+00 -0.20505523884E+01  0.13723658012E+02  0.13898222339E+02  0.51100000000E-03 0.  1.
         12    1    3    3    0    0  0.20720434058E+01  0.24794076733E+01  0.20570235390E+02  0.20822473683E+02  0.00000000000E+00 0. -1.
</event>
<event>
 7    1  0.4723144E-009  0.4778726E+02  0.7816164E-02  0.1312668E+00
        -11   -1    0    0    0    0  0.00000000000E+00  0.00000000000E+00  0.45593999997E+02  0.45594000000E+02  0.51100000000E-03 0.  1.
         11   -1    0    0    0    0 -0.00000000000E+00 -0.00000000000E+00 -0.45593999997E+02  0.45594000000E+02  0.51100000000E-03 0. -1.
    9900012    2    1    2    0    0 -0.29739625327E+02  0.13795330549E+02  0.28440594895E+02  0.47787263860E+02  0.19999967242E+02 0.  0.
         12    1    1    2    0    0  0.29739625327E+02 -0.13795330549E+02 -0.28440594895E+02  0.43400736140E+02  0.00000000000E+00 0. -1.
         11    1    3    3    0    0 -0.19181050319E+02  0.11097493525E+01  0.14625073364E+02  0.24146159242E+02  0.51100000000E-03 0. -1.
        -11    1    3    3    0    0 -0.36908974715E+01  0.11518120307E+02  0.10030223217E+02  0.15712899083E+02  0.51100000000E-03 0.  1.
        -12    1    3    3    0    0 -0.68676775361E+01  0.11674608891E+01  0.37852983143E+01  0.79282055344E+01  0.00000000000E+00 0.  1.
</event>
<event>
 7    1  0.4723144E-009  0.4778727E+02  0.7816164E-02  0.1312668E+00
        -11   -1    0    0    0    0  0.00000000000E+00  0.00000000000E+00  0.45593999997E+02  0.45594000000E+02  0.51100000000E-03 0. -1.
         11   -1    0    0    0    0 -0.00000000000E+00 -0.00000000000E+00 -0.45593999997E+02  0.45594000000E+02  0.51100000000E-03 0.  1.
    9900012    2    1    2    0    0 -0.28517907620E+02  0.29344554062E+02  0.14465461000E+02  0.47787268784E+02  0.19999989694E+02 0.  0.
         12    1    1    2    0    0  0.28517907620E+02 -0.29344554062E+02 -0.14465461000E+02  0.43400731216E+02  0.00000000000E+00 0. -1.
         11    1    3    3    0    0 -0.43841655874E+01  0.15078838029E+02  0.65270561161E+01  0.17005726271E+02  0.51100000000E-03 0. -1.
        -11    1    3    3    0    0 -0.23902951587E+02  0.13126033322E+02  0.51384502311E+01  0.27749730024E+02  0.51100000000E-03 0.  1.
        -12    1    3    3    0    0 -0.23079044528E+00  0.11396827109E+01  0.27999546524E+01  0.30318124887E+01  0.00000000000E+00 0.  1.
</event>
<event>
 7    1  0.4723144E-009  0.4778727E+02  0.7816164E-02  0.1312668E+00
        -11   -1    0    0    0    0  0.00000000000E+00  0.00000000000E+00  0.45593999997E+02  0.45594000000E+02  0.51100000000E-03 0. -1.
         11   -1    0    0    0    0 -0.00000000000E+00 -0.00000000000E+00 -0.45593999997E+02  0.45594000000E+02  0.51100000000E-03 0.  1.
    9900012    2    1    2    0    0 -0.40322928161E+02  0.14273974281E+02  0.73442614045E+01  0.47787273591E+02  0.20000011612E+02 0.  0.
         12    1    1    2    0    0  0.40322928161E+02 -0.14273974281E+02 -0.73442614045E+01  0.43400726409E+02  0.00000000000E+00 0. -1.
         11    1    3    3    0    0 -0.13260459737E+02  0.14250564844E+02  0.23441221947E+01  0.19606460668E+02  0.51100000000E-03 0. -1.
        -11    1    3    3    0    0 -0.19416294117E+02  0.16692675269E+01  0.13077865310E+01  0.19531749466E+02  0.51100000000E-03 0.  1.
         12    1    3    3    0    0 -0.76461743063E+01 -0.16458580902E+01  0.36923526789E+01  0.86490634569E+01  0.00000000000E+00 0. -1.
</event>
<event>
 7    1  0.4723144E-009  0.4778727E+02  0.7816164E-02  0.1312668E+00
        -11   -1    0    0    0    0  0.00000000000E+00  0.00000000000E+00  0.45593999997E+02  0.45594000000E+02  0.51100000000E-03 0. -1.
         11   -1    0    0    0    0 -0.00000000000E+00 -0.00000000000E+00 -0.45593999997E+02  0.45594000000E+02  0.51100000000E-03 0.  1.
    9900012    2    1    2    0    0  0.33224813580E+02 -0.10050385360E+02 -0.26052352876E+02  0.47787267591E+02  0.19999984252E+02 0.  0.
         12    1    1    2    0    0 -0.33224813580E+02  0.10050385360E+02  0.26052352876E+02  0.43400732409E+02  0.00000000000E+00 0. -1.
         11    1    3    3    0    0  0.21028482732E+02 -0.75989306821E+01 -0.20137288984E+02  0.30090716864E+02  0.51100000000E-03 0. -1.
        -11    1    3    3    0    0  0.95360648463E+01 -0.31159927607E+01 -0.90644669707E+01  0.13520743521E+02  0.51100000000E-03 0.  1.
         12    1    3    3    0    0  0.26602660014E+01  0.66453808238E+00  0.31494030788E+01  0.41758072051E+01  0.00000000000E+00 0. -1.
</event>
<event>
 7    1  0.4723144E-009  0.4778727E+02  0.7816164E-02  0.1312668E+00
        -11   -1    0    0    0    0  0.00000000000E+00  0.00000000000E+00  0.45593999997E+02  0.45594000000E+02  0.51100000000E-03 0. -1.
         11   -1    0    0    0    0 -0.00000000000E+00 -0.00000000000E+00 -0.45593999997E+02  0.45594000000E+02  0.51100000000E-03 0.  1.
    9900012    2    1    2    0    0 -0.25422573871E+02 -0.34857005760E+02 -0.47228199616E+01  0.47787272573E+02  0.20000006968E+02 0.  0.
         12    1    1    2    0    0  0.25422573871E+02  0.34857005760E+02  0.47228199616E+01  0.43400727427E+02  0.00000000000E+00 0. -1.
         11    1    3    3    0    0  0.12035363331E+01 -0.14635963270E+01 -0.39644315860E+01  0.43940109211E+01  0.51100000000E-03 0. -1.
        -11    1    3    3    0    0 -0.18286480742E+02 -0.23665853673E+02 -0.40067082166E+01  0.30174852427E+02  0.51100000000E-03 0.  1.
        -12    1    3    3    0    0 -0.83396294628E+01 -0.97275557605E+01  0.32483198410E+01  0.13218409225E+02  0.00000000000E+00 0.  1.
</event>
<event>
 7    1  0.4723144E-009  0.4778728E+02  0.7816164E-02  0.1312668E+00
        -11   -1    0    0    0    0  0.00000000000E+00  0.00000000000E+00  0.45593999997E+02  0.45594000000E+02  0.51100000000E-03 0.  1.
         11   -1    0    0    0    0 -0.00000000000E+00 -0.00000000000E+00 -0.45593999997E+02  0.45594000000E+02  0.51100000000E-03 0. -1.
    9900012    2    1    2    0    0  0.10331672216E+02  0.22377626976E+02  0.35722832433E+02  0.47787281148E+02  0.20000046065E+02 0.  0.
         12    1    1    2    0    0 -0.10331672216E+02 -0.22377626976E+02 -0.35722832433E+02  0.43400718852E+02  0.00000000000E+00 0. -1.
         11    1    3    3    0    0 -0.19314313609E+01 -0.22302293616E+01  0.39743975730E+01  0.49497663013E+01  0.51100000000E-03 0. -1.
        -11    1    3    3    0    0  0.94324896840E+01  0.15776207892E+02  0.15132837651E+02  0.23808892724E+02  0.51100000000E-03 0.  1.
         12    1    3    3    0    0  0.28306138933E+01  0.88316484449E+01  0.16615597209E+02  0.19028622122E+02  0.00000000000E+00 0. -1.
</event>
<event>
 7    1  0.4723144E-009  0.4778725E+02  0.7816164E-02  0.1312668E+00
        -11   -1    0    0    0    0  0.00000000000E+00  0.00000000000E+00  0.45593999997E+02  0.45594000000E+02  0.51100000000E-03 0. -1.
         11   -1    0    0    0    0 -0.00000000000E+00 -0.00000000000E+00 -0.45593999997E+02  0.45594000000E+02  0.51100000000E-03 0.  1.
    9900012    2    1    2    0    0  0.17193935160E+02 -0.39684076015E+02 -0.36287325793E+01  0.47787251210E+02  0.19999909565E+02 0.  0.
         12    1    1    2    0    0 -0.17193935160E+02  0.39684076015E+02  0.36287325793E+01  0.43400748790E+02  0.00000000000E+00 0. -1.
         11    1    3    3    0    0  0.79655848112E+01 -0.11647687098E+02  0.77899609207E+01  0.16118394694E+02  0.51100000000E-03 0. -1.
        -11    1    3    3    0    0  0.62165788755E+01 -0.20408021661E+02 -0.84618779231E+01  0.22950742456E+02  0.51100000000E-03 0.  1.
         12    1    3    3    0    0  0.30117714730E+01 -0.76283672555E+01 -0.29568155769E+01  0.87181140591E+01  0.00000000000E+00 0. -1.
</event>
<event>
 7    1  0.4723144E-009  0.4778726E+02  0.7816164E-02  0.1312668E+00
        -11   -1    0    0    0    0  0.00000000000E+00  0.00000000000E+00  0.45593999997E+02  0.45594000000E+02  0.51100000000E-03 0.  1.
         11   -1    0    0    0    0 -0.00000000000E+00 -0.00000000000E+00 -0.45593999997E+02  0.45594000000E+02  0.51100000000E-03 0. -1.
    9900012    2    1    2    0    0 -0.10922762369E+02 -0.20260509140E+02  0.36794421717E+02  0.47787257635E+02  0.19999938859E+02 0.  0.
         12    1    1    2    0    0  0.10922762369E+02  0.20260509140E+02 -0.36794421717E+02  0.43400742365E+02  0.00000000000E+00 0. -1.
         11    1    3    3    0    0 -0.39759125105E+01 -0.86432645489E+01  0.16805360212E+01  0.96611647297E+01  0.51100000000E-03 0. -1.
        -11    1    3    3    0    0 -0.58680524725E+01 -0.12263186331E+02  0.32252398187E+02  0.35000528108E+02  0.51100000000E-03 0.  1.
         12    1    3    3    0    0 -0.10787973863E+01  0.64594174019E+00  0.28614875092E+01  0.31255647966E+01  0.00000000000E+00 0. -1.
</event>
<event>
 7    1  0.4723144E-009  0.4778724E+02  0.7816164E-02  0.1312668E+00
        -11   -1    0    0    0    0  0.00000000000E+00  0.00000000000E+00  0.45593999997E+02  0.45594000000E+02  0.51100000000E-03 0. -1.
         11   -1    0    0    0    0 -0.00000000000E+00 -0.00000000000E+00 -0.45593999997E+02  0.45594000000E+02  0.51100000000E-03 0.  1.
    9900012    2    1    2    0    0  0.54039440874E+01  0.28481644298E+02 -0.32298901187E+02  0.47787243192E+02  0.19999873007E+02 0.  0.
         12    1    1    2    0    0 -0.54039440874E+01 -0.28481644298E+02  0.32298901187E+02  0.43400756808E+02  0.00000000000E+00 0. -1.
         11    1    3    3    0    0  0.34065173792E+01 -0.14096537009E+01 -0.56409971506E+01  0.67388673622E+01  0.51100000000E-03 0. -1.
        -11    1    3    3    0    0  0.54768170132E+01  0.17981889039E+02 -0.15561787944E+02  0.24403137140E+02  0.51100000000E-03 0.  1.
         12    1    3    3    0    0 -0.34793903050E+01  0.11909408961E+02 -0.11096116093E+02  0.16645238690E+02  0.00000000000E+00 0. -1.
</event>
<event>
 7    1  0.4723144E-009  0.4778727E+02  0.7816164E-02  0.1312668E+00
        -11   -1    0    0    0    0  0.00000000000E+00  0.00000000000E+00  0.45593999997E+02  0.45594000000E+02  0.51100000000E-03 0.  1.
         11   -1    0    0    0    0 -0.00000000000E+00 -0.00000000000E+00 -0.45593999997E+02  0.45594000000E+02  0.51100000000E-03 0. -1.
    9900012    2    1    2    0    0 -0.76093087788E+01  0.17542070598E+02  0.38961486357E+02  0.47787271433E+02  0.20000001773E+02 0.  0.
         12    1    1    2    0    0  0.76093087788E+01 -0.17542070598E+02 -0.38961486357E+02  0.43400728567E+02  0.00000000000E+00 0. -1.
         11    1    3    3    0    0 -0.81810015339E+01  0.60945870568E+01  0.62859991501E+01  0.11982761079E+02  0.51100000000E-03 0. -1.
        -11    1    3    3    0    0  0.28786453823E+01  0.69754879568E+01  0.97275345558E+01  0.12311334626E+02  0.51100000000E-03 0.  1.
         12    1    3    3    0    0 -0.23069526272E+01  0.44719955841E+01  0.22947952652E+02  0.23493175729E+02  0.00000000000E+00 0. -1.
</event>
<event>
 7    1  0.4723144E-009  0.4778727E+02  0.7816164E-02  0.1312668E+00
        -11   -1    0    0    0    0  0.00000000000E+00  0.00000000000E+00  0.45593999997E+02  0.45594000000E+02  0.51100000000E-03 0.  1.
         11   -1    0    0    0    0 -0.00000000000E+00 -0.00000000000E+00 -0.45593999997E+02  0.45594000000E+02  0.51100000000E-03 0. -1.
    9900012    2    1    2    0    0  0.27059973134E+02  0.25597861551E+02  0.22273994748E+02  0.47787268393E+02  0.19999987910E+02 0.  0.
         12    1    1    2    0    0 -0.27059973134E+02 -0.25597861551E+02 -0.22273994748E+02  0.43400731607E+02  0.00000000000E+00 0. -1.
         11    1    3    3    0    0  0.12322632504E+02  0.24256867851E+02  0.13414503666E+02  0.30334663648E+02  0.51100000000E-03 0. -1.
        -11    1    3    3    0    0  0.10191938831E+02  0.19740264670E+01  0.53743328163E+01  0.11689989355E+02  0.51100000000E-03 0.  1.
         12    1    3    3    0    0  0.45454017983E+01 -0.63303276687E+00  0.34851582665E+01  0.57626153901E+01  0.00000000000E+00 0. -1.
</event>
<event>
 7    1  0.4723144E-009  0.4778727E+02  0.7816164E-02  0.1312668E+00
        -11   -1    0    0    0    0  0.00000000000E+00  0.00000000000E+00  0.45593999997E+02  0.45594000000E+02  0.51100000000E-03 0. -1.
         11   -1    0    0    0    0 -0.00000000000E+00 -0.00000000000E+00 -0.45593999997E+02  0.45594000000E+02  0.51100000000E-03 0.  1.
    9900012    2    1    2    0    0  0.24129811810E+02 -0.32004084504E+02 -0.16646743358E+02  0.47787270659E+02  0.19999998241E+02 0.  0.
         12    1    1    2    0    0 -0.24129811810E+02  0.32004084504E+02  0.16646743358E+02  0.43400729341E+02  0.00000000000E+00 0. -1.
         11    1    3    3    0    0  0.15771747975E+01  0.17541378209E+01 -0.18905189421E+01  0.30230021450E+01  0.51100000000E-03 0. -1.
        -11    1    3    3    0    0  0.17013306868E+02 -0.32192223128E+02 -0.13746805796E+02  0.38920001418E+02  0.51100000000E-03 0.  1.
        -12    1    3    3    0    0  0.55393301447E+01 -0.15659991966E+01 -0.10094186196E+01  0.58442670956E+01  0.00000000000E+00 0.  1.
</event>
<event>
 7    1  0.4723144E-009  0.4778727E+02  0.7816164E-02  0.1312668E+00
        -11   -1    0    0    0    0  0.00000000000E+00  0.00000000000E+00  0.45593999997E+02  0.45594000000E+02  0.51100000000E-03 0.  1.
         11   -1    0    0    0    0 -0.00000000000E+00 -0.00000000000E+00 -0.45593999997E+02  0.45594000000E+02  0.51100000000E-03 0. -1.
    9900012    2    1    2    0    0  0.23812462519E+00 -0.12299739257E+02  0.41620701039E+02  0.47787273692E+02  0.20000012070E+02 0.  0.
         12    1    1    2    0    0 -0.23812462519E+00  0.12299739257E+02 -0.41620701039E+02  0.43400726308E+02  0.00000000000E+00 0. -1.
         11    1    3    3    0    0 -0.12864380859E+00 -0.12132995141E+02  0.16372457970E+02  0.20378505847E+02  0.51100000000E-03 0.  1.
        -11    1    3    3    0    0 -0.34225219668E+01  0.29121077145E+01  0.56910983067E+01  0.72513880155E+01  0.51100000000E-03 0. -1.
        -12    1    3    3    0    0  0.37892904006E+01 -0.30788518305E+01  0.19557144763E+02  0.20157379830E+02  0.00000000000E+00 0.  1.
</event>
<event>
 7    1  0.4723144E-009  0.4778727E+02  0.7816164E-02  0.1312668E+00
        -11   -1    0    0    0    0  0.00000000000E+00  0.00000000000E+00  0.45593999997E+02  0.45594000000E+02  0.51100000000E-03 0.  1.
         11   -1    0    0    0    0 -0.00000000000E+00 -0.00000000000E+00 -0.45593999997E+02  0.45594000000E+02  0.51100000000E-03 0. -1.
    9900012    2    1    2    0    0 -0.62912372803E+01 -0.17524052590E+02  0.39203967969E+02  0.47787272008E+02  0.20000004393E+02 0.  0.
         12    1    1    2    0    0  0.62912372803E+01  0.17524052590E+02 -0.39203967969E+02  0.43400727992E+02  0.00000000000E+00 0. -1.
         11    1    3    3    0    0 -0.10070147512E+01 -0.42997722764E+01  0.29163835116E+01  0.52922030748E+01  0.51100000000E-03 0. -1.
        -11    1    3    3    0    0 -0.93226223281E+01 -0.85612367929E+01  0.12018348218E+02  0.17454132939E+02  0.51100000000E-03 0.  1.
        -12    1    3    3    0    0  0.40383997991E+01 -0.46630435209E+01  0.24269236240E+02  0.25040935994E+02  0.00000000000E+00 0.  1.
</event>
<event>
 7    1  0.4723144E-009  0.4778727E+02  0.7816164E-02  0.1312668E+00
        -11   -1    0    0    0    0  0.00000000000E+00  0.00000000000E+00  0.45593999997E+02  0.45594000000E+02  0.51100000000E-03 0.  1.
         11   -1    0    0    0    0 -0.00000000000E+00 -0.00000000000E+00 -0.45593999997E+02  0.45594000000E+02  0.51100000000E-03 0. -1.
    9900012    2    1    2    0    0 -0.26625451146E+02  0.77703599143E+01  0.33381587189E+02  0.47787268379E+02  0.19999987849E+02 0.  0.
         12    1    1    2    0    0  0.26625451146E+02 -0.77703599143E+01 -0.33381587189E+02  0.43400731621E+02  0.00000000000E+00 0. -1.
         11    1    3    3    0    0 -0.22224364255E+01 -0.28186723236E+01  0.67822509632E+01  0.76735301995E+01  0.51100000000E-03 0. -1.
        -11    1    3    3    0    0 -0.14383569984E+02  0.11347939488E+02  0.23078525389E+02  0.29466610774E+02  0.51100000000E-03 0.  1.
        -12    1    3    3    0    0 -0.10019444737E+02 -0.75890725041E+00  0.35208108366E+01  0.10647127406E+02  0.00000000000E+00 0.  1.
</event>
<event>
 7    1  0.4723144E-009  0.4778727E+02  0.7816164E-02  0.1312668E+00
        -11   -1    0    0    0    0  0.00000000000E+00  0.00000000000E+00  0.45593999997E+02  0.45594000000E+02  0.51100000000E-03 0.  1.
         11   -1    0    0    0    0 -0.00000000000E+00 -0.00000000000E+00 -0.45593999997E+02  0.45594000000E+02  0.51100000000E-03 0. -1.
    9900012    2    1    2    0    0 -0.25065858083E+02 -0.17468551493E+02  0.30824920545E+02  0.47787271212E+02  0.20000000763E+02 0.  0.
         12    1    1    2    0    0  0.25065858083E+02  0.17468551493E+02 -0.30824920545E+02  0.43400728788E+02  0.00000000000E+00 0. -1.
         11    1    3    3    0    0 -0.14309594655E+02 -0.13730102636E+02  0.13049932136E+02  0.23739859869E+02  0.51100000000E-03 0. -1.
        -11    1    3    3    0    0 -0.66855056268E+01 -0.71206469992E+01  0.69177271649E+01  0.11968899221E+02  0.51100000000E-03 0.  1.
         12    1    3    3    0    0 -0.40707578011E+01  0.33821981419E+01  0.10857261244E+02  0.12078512121E+02  0.00000000000E+00 0. -1.
</event>
<event>
 7    1  0.4723144E-009  0.4778727E+02  0.7816164E-02  0.1312668E+00
        -11   -1    0    0    0    0  0.00000000000E+00  0.00000000000E+00  0.45593999997E+02  0.45594000000E+02  0.51100000000E-03 0.  1.
         11   -1    0    0    0    0 -0.00000000000E+00 -0.00000000000E+00 -0.45593999997E+02  0.45594000000E+02  0.51100000000E-03 0. -1.
    9900012    2    1    2    0    0  0.22394934753E+02 -0.33491539900E+02  0.16137136737E+02  0.47787268099E+02  0.19999986571E+02 0.  0.
         12    1    1    2    0    0 -0.22394934753E+02  0.33491539900E+02 -0.16137136737E+02  0.43400731901E+02  0.00000000000E+00 0. -1.
         11    1    3    3    0    0  0.14903660902E+02 -0.13682880200E+02  0.14559097836E+02  0.24926043587E+02  0.51100000000E-03 0. -1.
        -11    1    3    3    0    0  0.80720774128E+01 -0.11613171008E+02 -0.11861773048E+01  0.14192645683E+02  0.51100000000E-03 0.  1.
         12    1    3    3    0    0 -0.58080356200E+00 -0.81954886924E+01  0.27642162057E+01  0.86685788291E+01  0.00000000000E+00 0. -1.
</event>
<event>
 7    1  0.4723144E-009  0.4778727E+02  0.7816164E-02  0.1312668E+00
        -11   -1    0    0    0    0  0.00000000000E+00  0.00000000000E+00  0.45593999997E+02  0.45594000000E+02  0.51100000000E-03 0.  1.
         11   -1    0    0    0    0 -0.00000000000E+00 -0.00000000000E+00 -0.45593999997E+02  0.45594000000E+02  0.51100000000E-03 0. -1.
    9900012    2    1    2    0    0  0.19715966076E+02  0.25832398934E+02  0.28767885099E+02  0.47787269983E+02  0.19999995159E+02 0.  0.
         12    1    1    2    0    0 -0.19715966076E+02 -0.25832398934E+02 -0.28767885099E+02  0.43400730017E+02  0.00000000000E+00 0. -1.
         11    1    3    3    0    0 -0.28470107732E+01  0.39549716165E+01  0.22206702799E+01  0.53552448667E+01  0.51100000000E-03 0. -1.
        -11    1    3    3    0    0  0.22575004155E+02  0.22186573946E+02  0.27184406580E+02  0.41723696354E+02  0.51100000000E-03 0.  1.
        -12    1    3    3    0    0 -0.12027305349E-01 -0.30914662930E+00 -0.63719176115E+00  0.70832876192E+00  0.00000000000E+00 0.  1.
</event>
<event>
 7    1  0.4723144E-009  0.4778727E+02  0.7816164E-02  0.1312668E+00
        -11   -1    0    0    0    0  0.00000000000E+00  0.00000000000E+00  0.45593999997E+02  0.45594000000E+02  0.51100000000E-03 0.  1.
         11   -1    0    0    0    0 -0.00000000000E+00 -0.00000000000E+00 -0.45593999997E+02  0.45594000000E+02  0.51100000000E-03 0. -1.
    9900012    2    1    2    0    0 -0.23824192189E+02 -0.30704162835E+02  0.19320596102E+02  0.47787272096E+02  0.20000004797E+02 0.  0.
         12    1    1    2    0    0  0.23824192189E+02  0.30704162835E+02 -0.19320596102E+02  0.43400727904E+02  0.00000000000E+00 0. -1.
         11    1    3    3    0    0 -0.18742758634E+02 -0.22278575744E+02  0.14627673874E+02  0.32582123651E+02  0.51100000000E-03 0. -1.
        -11    1    3    3    0    0 -0.77407519803E+01 -0.73039662772E+01  0.12551471199E+01  0.10716462063E+02  0.51100000000E-03 0.  1.
         12    1    3    3    0    0  0.26593184259E+01 -0.11216208136E+01  0.34377751089E+01  0.44886863824E+01  0.00000000000E+00 0. -1.
</event>
<event>
 7    1  0.4723144E-009  0.4778727E+02  0.7816164E-02  0.1312668E+00
        -11   -1    0    0    0    0  0.00000000000E+00  0.00000000000E+00  0.45593999997E+02  0.45594000000E+02  0.51100000000E-03 0.  1.
         11   -1    0    0    0    0 -0.00000000000E+00 -0.00000000000E+00 -0.45593999997E+02  0.45594000000E+02  0.51100000000E-03 0. -1.
    9900012    2    1    2    0    0  0.15251397222E+02 -0.37785452234E+02  0.14942486467E+02  0.47787269366E+02  0.19999992349E+02 0.  0.
         12    1    1    2    0    0 -0.15251397222E+02  0.37785452234E+02 -0.14942486467E+02  0.43400730634E+02  0.00000000000E+00 0. -1.
         11    1    3    3    0    0  0.24642593771E+01 -0.93776357772E+00  0.17700398107E+00  0.26425944592E+01  0.51100000000E-03 0. -1.
        -11    1    3    3    0    0 -0.25650816540E+01 -0.16763670786E+01 -0.15623979223E+01  0.34396130600E+01  0.51100000000E-03 0.  1.
        -12    1    3    3    0    0  0.15352219499E+02 -0.35171321577E+02  0.16327880408E+02  0.41705061847E+02  0.00000000000E+00 0.  1.
</event>
<event>
 7    1  0.4723144E-009  0.4778727E+02  0.7816164E-02  0.1312668E+00
        -11   -1    0    0    0    0  0.00000000000E+00  0.00000000000E+00  0.45593999997E+02  0.45594000000E+02  0.51100000000E-03 0. -1.
         11   -1    0    0    0    0 -0.00000000000E+00 -0.00000000000E+00 -0.45593999997E+02  0.45594000000E+02  0.51100000000E-03 0.  1.
    9900012    2    1    2    0    0 -0.39490164811E+02  0.17776252030E+02  0.28557451061E+01  0.47787268057E+02  0.19999986380E+02 0.  0.
         12    1    1    2    0    0  0.39490164811E+02 -0.17776252030E+02 -0.28557451061E+01  0.43400731943E+02  0.00000000000E+00 0. -1.
         11    1    3    3    0    0 -0.38158009999E+01 -0.11367280043E+01  0.57122595331E+01  0.69629302066E+01  0.51100000000E-03 0. -1.
        -11    1    3    3    0    0 -0.25088899801E+02  0.14879526138E+02 -0.39852260907E+01  0.29440367161E+02  0.51100000000E-03 0.  1.
         12    1    3    3    0    0 -0.10585464010E+02  0.40334538967E+01  0.11287116637E+01  0.11383970690E+02  0.00000000000E+00 0. -1.
</event>
<event>
 7    1  0.4723144E-009  0.4778727E+02  0.7816164E-02  0.1312668E+00
        -11   -1    0    0    0    0  0.00000000000E+00  0.00000000000E+00  0.45593999997E+02  0.45594000000E+02  0.51100000000E-03 0.  1.
         11   -1    0    0    0    0 -0.00000000000E+00 -0.00000000000E+00 -0.45593999997E+02  0.45594000000E+02  0.51100000000E-03 0. -1.
    9900012    2    1    2    0    0  0.78437422766E+00  0.38956006473E+02  0.19116432204E+02  0.47787266556E+02  0.19999979535E+02 0.  0.
         12    1    1    2    0    0 -0.78437422766E+00 -0.38956006473E+02 -0.19116432204E+02  0.43400733444E+02  0.00000000000E+00 0. -1.
         11    1    3    3    0    0 -0.57752404819E+01  0.22268701033E+02  0.16451585194E+02  0.28282558299E+02  0.51100000000E-03 0. -1.
        -11    1    3    3    0    0  0.58690976718E+01  0.16888300847E+02  0.36866388193E+01  0.18255199780E+02  0.51100000000E-03 0.  1.
         12    1    3    3    0    0  0.69051703775E+00 -0.20099540606E+00 -0.10217918087E+01  0.12495084766E+01  0.00000000000E+00 0. -1.
</event>
<event>
 7    1  0.4723144E-009  0.4778727E+02  0.7816164E-02  0.1312668E+00
        -11   -1    0    0    0    0  0.00000000000E+00  0.00000000000E+00  0.45593999997E+02  0.45594000000E+02  0.51100000000E-03 0.  1.
         11   -1    0    0    0    0 -0.00000000000E+00 -0.00000000000E+00 -0.45593999997E+02  0.45594000000E+02  0.51100000000E-03 0. -1.
    9900012    2    1    2    0    0 -0.20310592866E+02  0.32786570641E+02  0.19903362438E+02  0.47787271512E+02  0.20000002131E+02 0.  0.
         12    1    1    2    0    0  0.20310592866E+02 -0.32786570641E+02 -0.19903362438E+02  0.43400728488E+02  0.00000000000E+00 0. -1.
         11    1    3    3    0    0 -0.27399050453E+00 -0.17893111201E+01 -0.66591203421E-01  0.18113916557E+01  0.51100000000E-03 0. -1.
        -11    1    3    3    0    0 -0.16766774686E+02  0.18359669972E+02  0.12376978632E+02  0.27773941296E+02  0.51100000000E-03 0.  1.
        -12    1    3    3    0    0 -0.32698276761E+01  0.16216211789E+02  0.75929750094E+01  0.18201938560E+02  0.00000000000E+00 0.  1.
</event>
<event>
 7    1  0.4723144E-009  0.4778727E+02  0.7816164E-02  0.1312668E+00
        -11   -1    0    0    0    0  0.00000000000E+00  0.00000000000E+00  0.45593999997E+02  0.45594000000E+02  0.51100000000E-03 0. -1.
         11   -1    0    0    0    0 -0.00000000000E+00 -0.00000000000E+00 -0.45593999997E+02  0.45594000000E+02  0.51100000000E-03 0.  1.
    9900012    2    1    2    0    0 -0.22897459014E+02 -0.20595749323E+02 -0.30580134093E+02  0.47787272810E+02  0.20000008050E+02 0.  0.
         12    1    1    2    0    0  0.22897459014E+02  0.20595749323E+02  0.30580134093E+02  0.43400727190E+02  0.00000000000E+00 0. -1.
         11    1    3    3    0    0 -0.22289920394E+02 -0.19573284214E+02 -0.20044876575E+02  0.35801551408E+02  0.51100000000E-03 0. -1.
        -11    1    3    3    0    0  0.42786585621E+00 -0.30876858139E+01 -0.78333694365E+01  0.84308095617E+01  0.51100000000E-03 0.  1.
         12    1    3    3    0    0 -0.10354044763E+01  0.20652207043E+01 -0.27018880816E+01  0.35549118403E+01  0.00000000000E+00 0. -1.
</event>
<event>
 7    1  0.4723144E-009  0.4778727E+02  0.7816164E-02  0.1312668E+00
        -11   -1    0    0    0    0  0.00000000000E+00  0.00000000000E+00  0.45593999997E+02  0.45594000000E+02  0.51100000000E-03 0. -1.
         11   -1    0    0    0    0 -0.00000000000E+00 -0.00000000000E+00 -0.45593999997E+02  0.45594000000E+02  0.51100000000E-03 0.  1.
    9900012    2    1    2    0    0 -0.19762657000E+02 -0.12303884989E+01 -0.38620548028E+02  0.47787271924E+02  0.20000004010E+02 0.  0.
         12    1    1    2    0    0  0.19762657000E+02  0.12303884989E+01  0.38620548028E+02  0.43400728076E+02  0.00000000000E+00 0. -1.
         11    1    3    3    0    0 -0.11902762793E+02  0.70816857970E+01 -0.27477527272E+02  0.30770774139E+02  0.51100000000E-03 0. -1.
        -11    1    3    3    0    0 -0.70161977427E+01 -0.87418132212E+01 -0.11447805168E+02  0.16021815521E+02  0.51100000000E-03 0.  1.
         12    1    3    3    0    0 -0.84369646488E+00  0.42973892538E+00  0.30478441281E+00  0.99468226441E+00  0.00000000000E+00 0. -1.
</event>
<event>
 7    1  0.4723144E-009  0.4778727E+02  0.7816164E-02  0.1312668E+00
        -11   -1    0    0    0    0  0.00000000000E+00  0.00000000000E+00  0.45593999997E+02  0.45594000000E+02  0.51100000000E-03 0.  1.
         11   -1    0    0    0    0 -0.00000000000E+00 -0.00000000000E+00 -0.45593999997E+02  0.45594000000E+02  0.51100000000E-03 0. -1.
    9900012    2    1    2    0    0 -0.70932025629E+01 -0.24463945075E+02  0.35140079362E+02  0.47787270642E+02  0.19999998164E+02 0.  0.
         12    1    1    2    0    0  0.70932025629E+01  0.24463945075E+02 -0.35140079362E+02  0.43400729358E+02  0.00000000000E+00 0. -1.
         11    1    3    3    0    0 -0.22079228802E+01  0.65395619080E+00 -0.13893058882E+01  0.26893778568E+01  0.51100000000E-03 0. -1.
        -11    1    3    3    0    0  0.64484880103E+00 -0.11649230329E+02  0.13399976588E+02  0.17767379380E+02  0.51100000000E-03 0.  1.
         12    1    3    3    0    0 -0.55301284837E+01 -0.13468670937E+02  0.23129408663E+02  0.27330513405E+02  0.00000000000E+00 0. -1.
</event>
<event>
 7    1  0.5664873E-009  0.4778731E+02  0.7816164E-02  0.1312668E+00
        -11   -1    0    0    0    0  0.00000000000E+00  0.00000000000E+00  0.45593999997E+02  0.45594000000E+02  0.51100000000E-03 0. -1.
         11   -1    0    0    0    0 -0.00000000000E+00 -0.00000000000E+00 -0.45593999997E+02  0.45594000000E+02  0.51100000000E-03 0.  1.
    9900012    2    1    2    0    0 -0.32168663062E+02 -0.28608380589E+02 -0.55097684573E+01  0.47787310241E+02  0.20000178714E+02 0.  0.
         12    1    1    2    0    0  0.32168663062E+02  0.28608380589E+02  0.55097684573E+01  0.43400689759E+02  0.00000000000E+00 0. -1.
         11    1    3    3    0    0 -0.13278752390E+02 -0.41696217865E+01 -0.64256388929E+01  0.15329704704E+02  0.51100000000E-03 0. -1.
        -11    1    3    3    0    0 -0.82096018978E+01 -0.93407819518E+01 -0.44389476667E+01  0.13204242782E+02  0.51100000000E-03 0.  1.
         12    1    3    3    0    0 -0.10680308774E+02 -0.15097976850E+02  0.53548181023E+01  0.19253362755E+02  0.00000000000E+00 0. -1.
</event>
<event>
 7    1  0.4723144E-009  0.4778727E+02  0.7816164E-02  0.1312668E+00
        -11   -1    0    0    0    0  0.00000000000E+00  0.00000000000E+00  0.45593999997E+02  0.45594000000E+02  0.51100000000E-03 0. -1.
         11   -1    0    0    0    0 -0.00000000000E+00 -0.00000000000E+00 -0.45593999997E+02  0.45594000000E+02  0.51100000000E-03 0.  1.
    9900012    2    1    2    0    0  0.41296955093E+00  0.39394948755E+02  0.18206889533E+02  0.47787270079E+02  0.19999995596E+02 0.  0.
         12    1    1    2    0    0 -0.41296955093E+00 -0.39394948755E+02 -0.18206889533E+02  0.43400729921E+02  0.00000000000E+00 0. -1.
         11    1    3    3    0    0  0.68551635432E+01  0.84944799856E+01  0.45196174029E-01  0.10915653915E+02  0.51100000000E-03 0. -1.
        -11    1    3    3    0    0 -0.12190750911E+01  0.19412808417E+02  0.10408423462E+02  0.22060792232E+02  0.51100000000E-03 0.  1.
         12    1    3    3    0    0 -0.52231189012E+01  0.11487660352E+02  0.77532698979E+01  0.14810823932E+02  0.00000000000E+00 0. -1.
</event>
<event>
 7    1  0.4723144E-009  0.4778727E+02  0.7816164E-02  0.1312668E+00
        -11   -1    0    0    0    0  0.00000000000E+00  0.00000000000E+00  0.45593999997E+02  0.45594000000E+02  0.51100000000E-03 0.  1.
         11   -1    0    0    0    0 -0.00000000000E+00 -0.00000000000E+00 -0.45593999997E+02  0.45594000000E+02  0.51100000000E-03 0. -1.
    9900012    2    1    2    0    0  0.40119170799E+01  0.21553093677E+02  0.37456530239E+02  0.47787274393E+02  0.20000015266E+02 0.  0.
         12    1    1    2    0    0 -0.40119170799E+01 -0.21553093677E+02 -0.37456530239E+02  0.43400725607E+02  0.00000000000E+00 0. -1.
         11    1    3    3    0    0 -0.43196195390E+01  0.94376219988E+01  0.44155296792E+01  0.11279393803E+02  0.51100000000E-03 0. -1.
        -11    1    3    3    0    0  0.50627722181E+01  0.63302585066E+01  0.12319113820E+02  0.14746674230E+02  0.51100000000E-03 0.  1.
         12    1    3    3    0    0  0.32687644008E+01  0.57852131711E+01  0.20721886740E+02  0.21761206359E+02  0.00000000000E+00 0. -1.
</event>
<event>
 7    1  0.4723144E-009  0.4778726E+02  0.7816164E-02  0.1312668E+00
        -11   -1    0    0    0    0  0.00000000000E+00  0.00000000000E+00  0.45593999997E+02  0.45594000000E+02  0.51100000000E-03 0. -1.
         11   -1    0    0    0    0 -0.00000000000E+00 -0.00000000000E+00 -0.45593999997E+02  0.45594000000E+02  0.51100000000E-03 0.  1.
    9900012    2    1    2    0    0  0.29685751966E+02  0.27755659815E+02  0.15231668565E+02  0.47787259812E+02  0.19999948786E+02 0.  0.
         12    1    1    2    0    0 -0.29685751966E+02 -0.27755659815E+02 -0.15231668565E+02  0.43400740188E+02  0.00000000000E+00 0. -1.
         11    1    3    3    0    0 -0.17641564397E+01 -0.12996620077E-01  0.24947169396E+01  0.30554917322E+01  0.51100000000E-03 0. -1.
        -11    1    3    3    0    0  0.25066617438E+02  0.16844026787E+02  0.82491198683E+01  0.31306621138E+02  0.51100000000E-03 0.  1.
        -12    1    3    3    0    0  0.63832909679E+01  0.10924629648E+02  0.44878317575E+01  0.13425146942E+02  0.00000000000E+00 0.  1.
</event>
<event>
 7    1  0.4723144E-009  0.4778726E+02  0.7816164E-02  0.1312668E+00
        -11   -1    0    0    0    0  0.00000000000E+00  0.00000000000E+00  0.45593999997E+02  0.45594000000E+02  0.51100000000E-03 0.  1.
         11   -1    0    0    0    0 -0.00000000000E+00 -0.00000000000E+00 -0.45593999997E+02  0.45594000000E+02  0.51100000000E-03 0. -1.
    9900012    2    1    2    0    0  0.28580300283E+02 -0.21929313452E+01  0.32588054612E+02  0.47787264804E+02  0.19999971548E+02 0.  0.
         12    1    1    2    0    0 -0.28580300283E+02  0.21929313452E+01 -0.32588054612E+02  0.43400735196E+02  0.00000000000E+00 0. -1.
         11    1    3    3    0    0  0.53116652104E+01 -0.43482575785E+01  0.91159505990E+01  0.11411471722E+02  0.51100000000E-03 0. -1.
        -11    1    3    3    0    0  0.11133133288E+02  0.72404127607E+01  0.61828621492E+01  0.14649164426E+02  0.51100000000E-03 0.  1.
        -12    1    3    3    0    0  0.12135501785E+02 -0.50850865274E+01  0.17289241864E+02  0.21726628657E+02  0.00000000000E+00 0.  1.
</event>
<event>
 7    1  0.4723144E-009  0.4778725E+02  0.7816164E-02  0.1312668E+00
        -11   -1    0    0    0    0  0.00000000000E+00  0.00000000000E+00  0.45593999997E+02  0.45594000000E+02  0.51100000000E-03 0.  1.
         11   -1    0    0    0    0 -0.00000000000E+00 -0.00000000000E+00 -0.45593999997E+02  0.45594000000E+02  0.51100000000E-03 0. -1.
    9900012    2    1    2    0    0 -0.34714336640E+02 -0.21607992270E+02  0.14547658346E+02  0.47787252752E+02  0.19999916599E+02 0.  0.
         12    1    1    2    0    0  0.34714336640E+02  0.21607992270E+02 -0.14547658346E+02  0.43400747248E+02  0.00000000000E+00 0. -1.
         11    1    3    3    0    0 -0.18697723932E+01 -0.21631398917E+01 -0.39146447483E+01  0.48476454862E+01  0.51100000000E-03 0. -1.
        -11    1    3    3    0    0 -0.29842968923E+02 -0.18672272910E+02  0.18643060866E+02  0.39834912934E+02  0.51100000000E-03 0.  1.
        -12    1    3    3    0    0 -0.30015953239E+01 -0.77257946862E+00 -0.18075777154E+00  0.31046943321E+01  0.00000000000E+00 0.  1.
</event>
<event>
 7    1  0.4723144E-009  0.4778727E+02  0.7816164E-02  0.1312668E+00
        -11   -1    0    0    0    0  0.00000000000E+00  0.00000000000E+00  0.45593999997E+02  0.45594000000E+02  0.51100000000E-03 0. -1.
         11   -1    0    0    0    0 -0.00000000000E+00 -0.00000000000E+00 -0.45593999997E+02  0.45594000000E+02  0.51100000000E-03 0.  1.
    9900012    2    1    2    0    0 -0.40588082108E+02  0.15110227791E+02 -0.28127806013E+01  0.47787272728E+02  0.20000007674E+02 0.  0.
         12    1    1    2    0    0  0.40588082108E+02 -0.15110227791E+02  0.28127806013E+01  0.43400727272E+02  0.00000000000E+00 0. -1.
         11    1    3    3    0    0 -0.38870164598E+01  0.60558743882E+01 -0.39540847621E+00  0.72068619862E+01  0.51100000000E-03 0. -1.
        -11    1    3    3    0    0 -0.18820865003E+02 -0.28339486977E+01 -0.14070442894E+01  0.19084967870E+02  0.51100000000E-03 0.  1.
        -12    1    3    3    0    0 -0.17880200644E+02  0.11888302100E+02 -0.10103278357E+01  0.21495442872E+02  0.00000000000E+00 0.  1.
</event>
<event>
 7    1  0.4723144E-009  0.4778727E+02  0.7816164E-02  0.1312668E+00
        -11   -1    0    0    0    0  0.00000000000E+00  0.00000000000E+00  0.45593999997E+02  0.45594000000E+02  0.51100000000E-03 0.  1.
         11   -1    0    0    0    0 -0.00000000000E+00 -0.00000000000E+00 -0.45593999997E+02  0.45594000000E+02  0.51100000000E-03 0. -1.
    9900012    2    1    2    0    0  0.38187558625E+02  0.76465962914E+01  0.19153676429E+02  0.47787269715E+02  0.19999993938E+02 0.  0.
         12    1    1    2    0    0 -0.38187558625E+02 -0.76465962914E+01 -0.19153676429E+02  0.43400730285E+02  0.00000000000E+00 0. -1.
         11    1    3    3    0    0  0.52322921942E+01  0.15760665114E+01 -0.31206529210E+01  0.62928008207E+01  0.51100000000E-03 0. -1.
        -11    1    3    3    0    0  0.29693772886E+02  0.20357284253E+01  0.18095050514E+02  0.34832387110E+02  0.51100000000E-03 0.  1.
        -12    1    3    3    0    0  0.32614935441E+01  0.40348013547E+01  0.41792788355E+01  0.66620817839E+01  0.00000000000E+00 0.  1.
</event>
<event>
 7    1  0.4723144E-009  0.4778727E+02  0.7816164E-02  0.1312668E+00
        -11   -1    0    0    0    0  0.00000000000E+00  0.00000000000E+00  0.45593999997E+02  0.45594000000E+02  0.51100000000E-03 0.  1.
         11   -1    0    0    0    0 -0.00000000000E+00 -0.00000000000E+00 -0.45593999997E+02  0.45594000000E+02  0.51100000000E-03 0. -1.
    9900012    2    1    2    0    0  0.20131462408E+00 -0.13881628585E+02  0.41120345480E+02  0.47787274751E+02  0.20000016900E+02 0.  0.
         12    1    1    2    0    0 -0.20131462408E+00  0.13881628585E+02 -0.41120345480E+02  0.43400725249E+02  0.00000000000E+00 0. -1.
         11    1    3    3    0    0  0.36548146297E+01 -0.11747304236E+01  0.38201384509E+01  0.54158212296E+01  0.51100000000E-03 0. -1.
        -11    1    3    3    0    0  0.22577721047E+01 -0.12261382709E+02  0.32790593107E+02  0.35080792999E+02  0.51100000000E-03 0.  1.
        -12    1    3    3    0    0 -0.57112721103E+01 -0.44551545221E+00  0.45096139217E+01  0.72906605229E+01  0.00000000000E+00 0.  1.
</event>
<event>
 7    1  0.4723144E-009  0.4778726E+02  0.7816164E-02  0.1312668E+00
        -11   -1    0    0    0    0  0.00000000000E+00  0.00000000000E+00  0.45593999997E+02  0.45594000000E+02  0.51100000000E-03 0.  1.
         11   -1    0    0    0    0 -0.00000000000E+00 -0.00000000000E+00 -0.45593999997E+02  0.45594000000E+02  0.51100000000E-03 0. -1.
    9900012    2    1    2    0    0 -0.12048926602E+02  0.26260917715E+02  0.32385361581E+02  0.47787261801E+02  0.19999957856E+02 0.  0.
         12    1    1    2    0    0  0.12048926602E+02 -0.26260917715E+02 -0.32385361581E+02  0.43400738199E+02  0.00000000000E+00 0. -1.
         11    1    3    3    0    0  0.33926435101E+01  0.97343768495E+01  0.44188606693E+01  0.11215812610E+02  0.51100000000E-03 0. -1.
        -11    1    3    3    0    0 -0.10838018417E+02  0.14999063813E+02  0.24000398675E+02  0.30306000978E+02  0.51100000000E-03 0.  1.
         12    1    3    3    0    0 -0.46035516946E+01  0.15274770516E+01  0.39661022370E+01  0.62654482124E+01  0.00000000000E+00 0. -1.
</event>
<event>
 7    1  0.4723144E-009  0.4778727E+02  0.7816164E-02  0.1312668E+00
        -11   -1    0    0    0    0  0.00000000000E+00  0.00000000000E+00  0.45593999997E+02  0.45594000000E+02  0.51100000000E-03 0. -1.
         11   -1    0    0    0    0 -0.00000000000E+00 -0.00000000000E+00 -0.45593999997E+02  0.45594000000E+02  0.51100000000E-03 0.  1.
    9900012    2    1    2    0    0  0.42502374975E+02 -0.48753053077E+01 -0.73077284186E+01  0.47787269879E+02  0.19999994687E+02 0.  0.
         12    1    1    2    0    0 -0.42502374975E+02  0.48753053077E+01  0.73077284186E+01  0.43400730121E+02  0.00000000000E+00 0. -1.
         11    1    3    3    0    0  0.19311885376E+02 -0.10163424753E+02  0.71874698336E+00  0.21834850973E+02  0.51100000000E-03 0. -1.
        -11    1    3    3    0    0  0.93851298962E+01  0.23140571350E+01 -0.67146642461E+01  0.11769547136E+02  0.51100000000E-03 0.  1.
         12    1    3    3    0    0  0.13805359703E+02  0.29740623107E+01 -0.13118111558E+01  0.14182871770E+02  0.00000000000E+00 0. -1.
</event>
<event>
 7    1  0.4723144E-009  0.4778727E+02  0.7816164E-02  0.1312668E+00
        -11   -1    0    0    0    0  0.00000000000E+00  0.00000000000E+00  0.45593999997E+02  0.45594000000E+02  0.51100000000E-03 0.  1.
         11   -1    0    0    0    0 -0.00000000000E+00 -0.00000000000E+00 -0.45593999997E+02  0.45594000000E+02  0.51100000000E-03 0. -1.
    9900012    2    1    2    0    0  0.50216820523E+00  0.24938413282E+02  0.35516848524E+02  0.47787272368E+02  0.20000006034E+02 0.  0.
         12    1    1    2    0    0 -0.50216820523E+00 -0.24938413282E+02 -0.35516848524E+02  0.43400727632E+02  0.00000000000E+00 0. -1.
         11    1    3    3    0    0 -0.47622470893E+01  0.77401805291E+01  0.21212922321E+01  0.93321633589E+01  0.51100000000E-03 0. -1.
        -11    1    3    3    0    0  0.51636141223E+01  0.63973844592E+01  0.15735842623E+02  0.17754046920E+02  0.51100000000E-03 0.  1.
        -12    1    3    3    0    0  0.10080117224E+00  0.10800848293E+02  0.17659713669E+02  0.20701062089E+02  0.00000000000E+00 0.  1.
</event>
<event>
 7    1  0.4723144E-009  0.4778727E+02  0.7816164E-02  0.1312668E+00
        -11   -1    0    0    0    0  0.00000000000E+00  0.00000000000E+00  0.45593999997E+02  0.45594000000E+02  0.51100000000E-03 0.  1.
         11   -1    0    0    0    0 -0.00000000000E+00 -0.00000000000E+00 -0.45593999997E+02  0.45594000000E+02  0.51100000000E-03 0. -1.
    9900012    2    1    2    0    0  0.68698830340E+01 -0.70806089297E+01  0.42264564675E+02  0.47787265641E+02  0.19999975365E+02 0.  0.
         12    1    1    2    0    0 -0.68698830340E+01  0.70806089297E+01 -0.42264564675E+02  0.43400734359E+02  0.00000000000E+00 0. -1.
         11    1    3    3    0    0  0.11665366267E+02 -0.26134390789E+01  0.34935166754E+02  0.36923931405E+02  0.51100000000E-03 0. -1.
        -11    1    3    3    0    0 -0.12772976447E+01  0.41758146355E+00  0.34481504083E+01  0.37007573618E+01  0.51100000000E-03 0.  1.
         12    1    3    3    0    0 -0.35181855882E+01 -0.48847513144E+01  0.38812475121E+01  0.71625768747E+01  0.00000000000E+00 0. -1.
</event>
<event>
 7    1  0.4723144E-009  0.4778727E+02  0.7816164E-02  0.1312668E+00
        -11   -1    0    0    0    0  0.00000000000E+00  0.00000000000E+00  0.45593999997E+02  0.45594000000E+02  0.51100000000E-03 0.  1.
         11   -1    0    0    0    0 -0.00000000000E+00 -0.00000000000E+00 -0.45593999997E+02  0.45594000000E+02  0.51100000000E-03 0. -1.
    9900012    2    1    2    0    0 -0.21753928419E+02  0.26930803251E+02  0.26174828254E+02  0.47787271901E+02  0.20000003908E+02 0.  0.
         12    1    1    2    0    0  0.21753928419E+02 -0.26930803251E+02 -0.26174828254E+02  0.43400728099E+02  0.00000000000E+00 0. -1.
         11    1    3    3    0    0 -0.74406311758E+01 -0.10995975769E+01  0.24942772171E+01  0.79242366334E+01  0.51100000000E-03 0. -1.
        -11    1    3    3    0    0 -0.14279097855E+02  0.27613338147E+02  0.24050772351E+02  0.39304309307E+02  0.51100000000E-03 0.  1.
        -12    1    3    3    0    0 -0.34199388040E-01  0.41706268110E+00 -0.37022131453E+00  0.55872596131E+00  0.00000000000E+00 0.  1.
</event>
<event>
 7    1  0.4723144E-009  0.4778728E+02  0.7816164E-02  0.1312668E+00
        -11   -1    0    0    0    0  0.00000000000E+00  0.00000000000E+00  0.45593999997E+02  0.45594000000E+02  0.51100000000E-03 0.  1.
         11   -1    0    0    0    0 -0.00000000000E+00 -0.00000000000E+00 -0.45593999997E+02  0.45594000000E+02  0.51100000000E-03 0. -1.
    9900012    2    1    2    0    0 -0.11810820205E+02  0.38731480793E+02  0.15620494366E+02  0.47787275092E+02  0.20000018452E+02 0.  0.
         12    1    1    2    0    0  0.11810820205E+02 -0.38731480793E+02 -0.15620494366E+02  0.43400724908E+02  0.00000000000E+00 0. -1.
         11    1    3    3    0    0 -0.88690322095E+01  0.18544394656E+02 -0.11849784550E+01  0.20590252055E+02  0.51100000000E-03 0. -1.
        -11    1    3    3    0    0 -0.13760869114E+01  0.18393475736E+02  0.16587133693E+02  0.24806180062E+02  0.51100000000E-03 0.  1.
        -12    1    3    3    0    0 -0.15657010844E+01  0.17936104007E+01  0.21833912823E+00  0.23908429748E+01  0.00000000000E+00 0.  1.
</event>
<event>
 7    1  0.5557025E-009  0.4778727E+02  0.7816164E-02  0.1312668E+00
        -11   -1    0    0    0    0  0.00000000000E+00  0.00000000000E+00  0.45593999997E+02  0.45594000000E+02  0.51100000000E-03 0.  1.
         11   -1    0    0    0    0 -0.00000000000E+00 -0.00000000000E+00 -0.45593999997E+02  0.45594000000E+02  0.51100000000E-03 0. -1.
    9900012    2    1    2    0    0 -0.38658724687E+02 -0.14037943081E+02  0.13858666104E+02  0.47787268824E+02  0.19999989876E+02 0.  0.
         12    1    1    2    0    0  0.38658724687E+02  0.14037943081E+02 -0.13858666104E+02  0.43400731176E+02  0.00000000000E+00 0. -1.
         11    1    3    3    0    0 -0.64934273911E+01 -0.26974224447E+01 -0.24857650516E+01  0.74578626484E+01  0.51100000000E-03 0. -1.
        -11    1    3    3    0    0 -0.33217436359E+02 -0.91765471547E+01  0.15200561807E+02  0.37665158641E+02  0.51100000000E-03 0.  1.
        -12    1    3    3    0    0  0.10521390627E+01 -0.21639734819E+01  0.11438693490E+01  0.26642475345E+01  0.00000000000E+00 0.  1.
</event>
<event>
 7    1  0.4723144E-009  0.4778729E+02  0.7816164E-02  0.1312668E+00
        -11   -1    0    0    0    0  0.00000000000E+00  0.00000000000E+00  0.45593999997E+02  0.45594000000E+02  0.51100000000E-03 0.  1.
         11   -1    0    0    0    0 -0.00000000000E+00 -0.00000000000E+00 -0.45593999997E+02  0.45594000000E+02  0.51100000000E-03 0. -1.
    9900012    2    1    2    0    0 -0.39678276079E+02  0.13101910045E+02  0.11730147069E+02  0.47787285839E+02  0.20000067452E+02 0.  0.
         12    1    1    2    0    0  0.39678276079E+02 -0.13101910045E+02 -0.11730147069E+02  0.43400714161E+02  0.00000000000E+00 0. -1.
         11    1    3    3    0    0 -0.20111061109E+02  0.13554838062E+02  0.10465248829E+02  0.26414197832E+02  0.51100000000E-03 0. -1.
        -11    1    3    3    0    0 -0.16739599859E+02  0.27919957097E+01  0.16551976385E+01  0.17051367188E+02  0.51100000000E-03 0.  1.
         12    1    3    3    0    0 -0.28276151115E+01 -0.32449237272E+01 -0.39029939806E+00  0.43217208187E+01  0.00000000000E+00 0. -1.
</event>
<event>
 7    1  0.4723144E-009  0.4778727E+02  0.7816164E-02  0.1312668E+00
        -11   -1    0    0    0    0  0.00000000000E+00  0.00000000000E+00  0.45593999997E+02  0.45594000000E+02  0.51100000000E-03 0.  1.
         11   -1    0    0    0    0 -0.00000000000E+00 -0.00000000000E+00 -0.45593999997E+02  0.45594000000E+02  0.51100000000E-03 0. -1.
    9900012    2    1    2    0    0 -0.36381464667E+02 -0.85908054323E+01  0.22050173499E+02  0.47787273501E+02  0.20000011200E+02 0.  0.
         12    1    1    2    0    0  0.36381464667E+02  0.85908054323E+01 -0.22050173499E+02  0.43400726499E+02  0.00000000000E+00 0. -1.
         11    1    3    3    0    0 -0.10364445285E+02  0.24440872535E+01  0.78708983178E+01  0.13241840097E+02  0.51100000000E-03 0. -1.
        -11    1    3    3    0    0 -0.11701448416E+02 -0.10426166650E+02  0.21154877802E+01  0.15814680991E+02  0.51100000000E-03 0.  1.
        -12    1    3    3    0    0 -0.14315570967E+02 -0.60872603583E+00  0.12063787401E+02  0.18730752413E+02  0.00000000000E+00 0.  1.
</event>
<event>
 7    1  0.4723144E-009  0.4778729E+02  0.7816164E-02  0.1312668E+00
        -11   -1    0    0    0    0  0.00000000000E+00  0.00000000000E+00  0.45593999997E+02  0.45594000000E+02  0.51100000000E-03 0.  1.
         11   -1    0    0    0    0 -0.00000000000E+00 -0.00000000000E+00 -0.45593999997E+02  0.45594000000E+02  0.51100000000E-03 0. -1.
    9900012    2    1    2    0    0 -0.24959726678E+02  0.96029827528E+01  0.34182107997E+02  0.47787288707E+02  0.20000080533E+02 0.  0.
         12    1    1    2    0    0  0.24959726678E+02 -0.96029827528E+01 -0.34182107997E+02  0.43400711293E+02  0.00000000000E+00 0. -1.
         11    1    3    3    0    0 -0.17926266971E+02  0.12798536061E+02  0.20802897510E+02  0.30297097516E+02  0.51100000000E-03 0. -1.
        -11    1    3    3    0    0 -0.18351771322E+01 -0.53317079190E+01  0.64067965549E+01  0.85347540561E+01  0.51100000000E-03 0.  1.
        -12    1    3    3    0    0 -0.51982825750E+01  0.21361546110E+01  0.69724139315E+01  0.89554371353E+01  0.00000000000E+00 0.  1.
</event>
<event>
 7    1  0.4723144E-009  0.4778728E+02  0.7816164E-02  0.1312668E+00
        -11   -1    0    0    0    0  0.00000000000E+00  0.00000000000E+00  0.45593999997E+02  0.45594000000E+02  0.51100000000E-03 0. -1.
         11   -1    0    0    0    0 -0.00000000000E+00 -0.00000000000E+00 -0.45593999997E+02  0.45594000000E+02  0.51100000000E-03 0.  1.
    9900012    2    1    2    0    0  0.11038923727E+02 -0.41952935075E+02  0.13099712037E+01  0.47787278543E+02  0.20000034189E+02 0.  0.
         12    1    1    2    0    0 -0.11038923727E+02  0.41952935075E+02 -0.13099712037E+01  0.43400721457E+02  0.00000000000E+00 0. -1.
         11    1    3    3    0    0  0.11168649590E+02 -0.93200631462E+01  0.24929635775E+01  0.14758630641E+02  0.51100000000E-03 0. -1.
        -11    1    3    3    0    0 -0.16170820773E+01 -0.16021196802E+02 -0.25132604401E+01  0.16297551341E+02  0.51100000000E-03 0.  1.
         12    1    3    3    0    0  0.14873562137E+01 -0.16611675127E+02  0.13302680664E+01  0.16731096562E+02  0.00000000000E+00 0. -1.
</event>
<event>
 7    1  0.4723144E-009  0.4778727E+02  0.7816164E-02  0.1312668E+00
        -11   -1    0    0    0    0  0.00000000000E+00  0.00000000000E+00  0.45593999997E+02  0.45594000000E+02  0.51100000000E-03 0.  1.
         11   -1    0    0    0    0 -0.00000000000E+00 -0.00000000000E+00 -0.45593999997E+02  0.45594000000E+02  0.51100000000E-03 0. -1.
    9900012    2    1    2    0    0  0.28531311169E+02  0.17484476078E+02  0.27638387592E+02  0.47787273170E+02  0.20000009690E+02 0.  0.
         12    1    1    2    0    0 -0.28531311169E+02 -0.17484476078E+02 -0.27638387592E+02  0.43400726830E+02  0.00000000000E+00 0. -1.
         11    1    3    3    0    0  0.19729042532E+02  0.14882328556E+02  0.12006819486E+02  0.27475125786E+02  0.51100000000E-03 0.  1.
        -11    1    3    3    0    0  0.11700101051E+01 -0.28644075504E+01  0.65802142784E+01  0.72713805066E+01  0.51100000000E-03 0. -1.
         12    1    3    3    0    0  0.76322585311E+01  0.54665550725E+01  0.90513538272E+01  0.13040766877E+02  0.00000000000E+00 0. -1.
</event>
<event>
 7    1  0.4723144E-009  0.4778727E+02  0.7816164E-02  0.1312668E+00
        -11   -1    0    0    0    0  0.00000000000E+00  0.00000000000E+00  0.45593999997E+02  0.45594000000E+02  0.51100000000E-03 0.  1.
         11   -1    0    0    0    0 -0.00000000000E+00 -0.00000000000E+00 -0.45593999997E+02  0.45594000000E+02  0.51100000000E-03 0. -1.
    9900012    2    1    2    0    0 -0.15235658054E+02 -0.30022177397E+02  0.27389174075E+02  0.47787271106E+02  0.20000000281E+02 0.  0.
         12    1    1    2    0    0  0.15235658054E+02  0.30022177397E+02 -0.27389174075E+02  0.43400728894E+02  0.00000000000E+00 0. -1.
         11    1    3    3    0    0 -0.10297064320E+02 -0.20210496468E+02  0.87022934484E+01  0.24294518160E+02  0.51100000000E-03 0. -1.
        -11    1    3    3    0    0  0.12323798117E+01  0.10164553695E+01  0.34947584258E+01  0.38425614158E+01  0.51100000000E-03 0.  1.
        -12    1    3    3    0    0 -0.61709735456E+01 -0.10828136298E+02  0.15192122201E+02  0.19650191530E+02  0.00000000000E+00 0.  1.
</event>
<event>
 7    1  0.4723144E-009  0.4778726E+02  0.7816164E-02  0.1312668E+00
        -11   -1    0    0    0    0  0.00000000000E+00  0.00000000000E+00  0.45593999997E+02  0.45594000000E+02  0.51100000000E-03 0. -1.
         11   -1    0    0    0    0 -0.00000000000E+00 -0.00000000000E+00 -0.45593999997E+02  0.45594000000E+02  0.51100000000E-03 0.  1.
    9900012    2    1    2    0    0  0.57710785068E+01  0.19034579952E+02 -0.38574645752E+02  0.47787264108E+02  0.19999968373E+02 0.  0.
         12    1    1    2    0    0 -0.57710785068E+01 -0.19034579952E+02  0.38574645752E+02  0.43400735892E+02  0.00000000000E+00 0. -1.
         11    1    3    3    0    0  0.18806989893E+01 -0.22017660646E+01 -0.10253739607E+02  0.10654763192E+02  0.51100000000E-03 0. -1.
        -11    1    3    3    0    0  0.61393282318E+01  0.17489124620E+02 -0.17621455961E+02  0.25574920167E+02  0.51100000000E-03 0.  1.
         12    1    3    3    0    0 -0.22489487144E+01  0.37472213974E+01 -0.10699450184E+02  0.11557580749E+02  0.00000000000E+00 0. -1.
</event>
<event>
 7    1  0.4723144E-009  0.4778727E+02  0.7816164E-02  0.1312668E+00
        -11   -1    0    0    0    0  0.00000000000E+00  0.00000000000E+00  0.45593999997E+02  0.45594000000E+02  0.51100000000E-03 0. -1.
         11   -1    0    0    0    0 -0.00000000000E+00 -0.00000000000E+00 -0.45593999997E+02  0.45594000000E+02  0.51100000000E-03 0.  1.
    9900012    2    1    2    0    0  0.54910979899E+01  0.31073627675E+02 -0.29797670307E+02  0.47787266714E+02  0.19999980257E+02 0.  0.
         12    1    1    2    0    0 -0.54910979899E+01 -0.31073627675E+02  0.29797670307E+02  0.43400733286E+02  0.00000000000E+00 0. -1.
         11    1    3    3    0    0  0.81010665173E+00  0.83601901279E+00  0.27465378406E+01  0.29830640201E+01  0.51100000000E-03 0. -1.
        -11    1    3    3    0    0  0.45083390064E+01  0.18820630382E+02 -0.19625674257E+02  0.27562807166E+02  0.51100000000E-03 0.  1.
         12    1    3    3    0    0  0.17265233178E+00  0.11416978280E+02 -0.12918533891E+02  0.17241395528E+02  0.00000000000E+00 0. -1.
</event>
<event>
 7    1  0.4723144E-009  0.4778727E+02  0.7816164E-02  0.1312668E+00
        -11   -1    0    0    0    0  0.00000000000E+00  0.00000000000E+00  0.45593999997E+02  0.45594000000E+02  0.51100000000E-03 0.  1.
         11   -1    0    0    0    0 -0.00000000000E+00 -0.00000000000E+00 -0.45593999997E+02  0.45594000000E+02  0.51100000000E-03 0. -1.
    9900012    2    1    2    0    0  0.89452167599E+01 -0.35381369476E+02 -0.23489681246E+02  0.47787270353E+02  0.19999996846E+02 0.  0.
         12    1    1    2    0    0 -0.89452167599E+01  0.35381369476E+02  0.23489681246E+02  0.43400729647E+02  0.00000000000E+00 0. -1.
         11    1    3    3    0    0  0.16331240163E+01  0.18643474559E+00 -0.54373390668E-01  0.16446302605E+01  0.51100000000E-03 0. -1.
        -11    1    3    3    0    0 -0.32863627277E+01 -0.86269327162E+01 -0.11701131810E+02  0.14904383045E+02  0.51100000000E-03 0.  1.
        -12    1    3    3    0    0  0.10598455471E+02 -0.26940871505E+02 -0.11734176046E+02  0.31238257047E+02  0.00000000000E+00 0.  1.
</event>
<event>
 7    1  0.4723144E-009  0.4778725E+02  0.7816164E-02  0.1312668E+00
        -11   -1    0    0    0    0  0.00000000000E+00  0.00000000000E+00  0.45593999997E+02  0.45594000000E+02  0.51100000000E-03 0. -1.
         11   -1    0    0    0    0 -0.00000000000E+00 -0.00000000000E+00 -0.45593999997E+02  0.45594000000E+02  0.51100000000E-03 0.  1.
    9900012    2    1    2    0    0 -0.32655648248E+01 -0.19950076142E+02 -0.38405150671E+02  0.47787250585E+02  0.19999906718E+02 0.  0.
         12    1    1    2    0    0  0.32655648248E+01  0.19950076142E+02  0.38405150671E+02  0.43400749415E+02  0.00000000000E+00 0. -1.
         11    1    3    3    0    0 -0.70338071352E+01 -0.15157003784E+02 -0.12353382264E+02  0.20780165065E+02  0.51100000000E-03 0. -1.
        -11    1    3    3    0    0  0.80431917669E+00 -0.39593476519E+01 -0.14923449357E+02  0.15460682525E+02  0.51100000000E-03 0.  1.
         12    1    3    3    0    0  0.29639231338E+01 -0.83372470547E+00 -0.11128319051E+02  0.11546402995E+02  0.00000000000E+00 0. -1.
</event>
<event>
 7    1  0.4723144E-009  0.4778727E+02  0.7816164E-02  0.1312668E+00
        -11   -1    0    0    0    0  0.00000000000E+00  0.00000000000E+00  0.45593999997E+02  0.45594000000E+02  0.51100000000E-03 0. -1.
         11   -1    0    0    0    0 -0.00000000000E+00 -0.00000000000E+00 -0.45593999997E+02  0.45594000000E+02  0.51100000000E-03 0.  1.
    9900012    2    1    2    0    0  0.31707045332E+02  0.95681072313E+00 -0.29620451359E+02  0.47787270177E+02  0.19999996044E+02 0.  0.
         12    1    1    2    0    0 -0.31707045332E+02 -0.95681072313E+00  0.29620451359E+02  0.43400729823E+02  0.00000000000E+00 0. -1.
         11    1    3    3    0    0  0.18676261910E+02 -0.86152746229E+01 -0.15752275983E+02  0.25906754229E+02  0.51100000000E-03 0. -1.
        -11    1    3    3    0    0  0.12683350995E+02  0.73340138683E+01 -0.12239454410E+02  0.19090819689E+02  0.51100000000E-03 0.  1.
         12    1    3    3    0    0  0.34743242701E+00  0.22380714778E+01 -0.16287209664E+01  0.27896962590E+01  0.00000000000E+00 0. -1.
</event>
<event>
 7    1  0.4723144E-009  0.4778726E+02  0.7816164E-02  0.1312668E+00
        -11   -1    0    0    0    0  0.00000000000E+00  0.00000000000E+00  0.45593999997E+02  0.45594000000E+02  0.51100000000E-03 0.  1.
         11   -1    0    0    0    0 -0.00000000000E+00 -0.00000000000E+00 -0.45593999997E+02  0.45594000000E+02  0.51100000000E-03 0. -1.
    9900012    2    1    2    0    0 -0.14999971184E+02  0.40659988369E+02  0.23216446010E+01  0.47787264714E+02  0.19999971138E+02 0.  0.
         12    1    1    2    0    0  0.14999971184E+02 -0.40659988369E+02 -0.23216446010E+01  0.43400735286E+02  0.00000000000E+00 0. -1.
         11    1    3    3    0    0  0.13646359633E+01  0.19418113901E+02 -0.45867724993E+01  0.19999096505E+02  0.51100000000E-03 0. -1.
        -11    1    3    3    0    0 -0.10372376803E+02  0.12617357446E+02  0.31531579864E+01  0.16635092876E+02  0.51100000000E-03 0.  1.
         12    1    3    3    0    0 -0.59922303447E+01  0.86245170217E+01  0.37552591139E+01  0.11153075333E+02  0.00000000000E+00 0. -1.
</event>
<event>
 7    1  0.4723144E-009  0.4778727E+02  0.7816164E-02  0.1312668E+00
        -11   -1    0    0    0    0  0.00000000000E+00  0.00000000000E+00  0.45593999997E+02  0.45594000000E+02  0.51100000000E-03 0.  1.
         11   -1    0    0    0    0 -0.00000000000E+00 -0.00000000000E+00 -0.45593999997E+02  0.45594000000E+02  0.51100000000E-03 0. -1.
    9900012    2    1    2    0    0 -0.25816366107E+02  0.33337368226E+02 -0.10283878986E+02  0.47787273667E+02  0.20000011958E+02 0.  0.
         12    1    1    2    0    0  0.25816366107E+02 -0.33337368226E+02  0.10283878986E+02  0.43400726333E+02  0.00000000000E+00 0. -1.
         11    1    3    3    0    0 -0.19166581098E+02  0.13887217030E+02  0.29747997867E+00  0.23670680649E+02  0.51100000000E-03 0. -1.
        -11    1    3    3    0    0 -0.39375260361E+01  0.18291097945E+02 -0.88650244020E+01  0.20704034226E+02  0.51100000000E-03 0.  1.
         12    1    3    3    0    0 -0.27122589737E+01  0.11590532517E+01 -0.17163345623E+01  0.34125587922E+01  0.00000000000E+00 0. -1.
</event>
<event>
 7    1  0.4723144E-009  0.4778727E+02  0.7816164E-02  0.1312668E+00
        -11   -1    0    0    0    0  0.00000000000E+00  0.00000000000E+00  0.45593999997E+02  0.45594000000E+02  0.51100000000E-03 0. -1.
         11   -1    0    0    0    0 -0.00000000000E+00 -0.00000000000E+00 -0.45593999997E+02  0.45594000000E+02  0.51100000000E-03 0.  1.
    9900012    2    1    2    0    0  0.58265125591E+01 -0.17600337911E+01 -0.42971819502E+02  0.47787271448E+02  0.20000001838E+02 0.  0.
         12    1    1    2    0    0 -0.58265125591E+01  0.17600337911E+01  0.42971819502E+02  0.43400728552E+02  0.00000000000E+00 0. -1.
         11    1    3    3    0    0  0.66829458096E+01 -0.38848068025E+01 -0.69875936629E+01  0.10420170538E+02  0.51100000000E-03 0. -1.
        -11    1    3    3    0    0  0.40662797427E+01  0.36633905066E+00 -0.90216483613E+01  0.99024731588E+01  0.51100000000E-03 0.  1.
         12    1    3    3    0    0 -0.49227129931E+01  0.17584339608E+01 -0.26962577478E+02  0.27464627750E+02  0.00000000000E+00 0. -1.
</event>
<event>
 7    1  0.4723144E-009  0.4778727E+02  0.7816164E-02  0.1312668E+00
        -11   -1    0    0    0    0  0.00000000000E+00  0.00000000000E+00  0.45593999997E+02  0.45594000000E+02  0.51100000000E-03 0. -1.
         11   -1    0    0    0    0 -0.00000000000E+00 -0.00000000000E+00 -0.45593999997E+02  0.45594000000E+02  0.51100000000E-03 0.  1.
    9900012    2    1    2    0    0  0.42207148504E+02 -0.96723408496E+01 -0.29370145802E+01  0.47787267091E+02  0.19999981975E+02 0.  0.
         12    1    1    2    0    0 -0.42207148504E+02  0.96723408496E+01  0.29370145802E+01  0.43400732909E+02  0.00000000000E+00 0. -1.
         11    1    3    3    0    0  0.27730548538E+02 -0.22218547064E+01  0.20988638247E+01  0.27898480069E+02  0.51100000000E-03 0. -1.
        -11    1    3    3    0    0 -0.80448031670E+00  0.29455825304E+00 -0.24090036963E+01  0.25568050795E+01  0.51100000000E-03 0.  1.
         12    1    3    3    0    0  0.15281080283E+02 -0.77450443962E+01 -0.26268747085E+01  0.17331981943E+02  0.00000000000E+00 0. -1.
</event>
<event>
 7    1  0.4723144E-009  0.4778727E+02  0.7816164E-02  0.1312668E+00
        -11   -1    0    0    0    0  0.00000000000E+00  0.00000000000E+00  0.45593999997E+02  0.45594000000E+02  0.51100000000E-03 0. -1.
         11   -1    0    0    0    0 -0.00000000000E+00 -0.00000000000E+00 -0.45593999997E+02  0.45594000000E+02  0.51100000000E-03 0.  1.
    9900012    2    1    2    0    0 -0.22669583837E+02 -0.11383661177E+02 -0.35215415412E+02  0.47787271252E+02  0.20000000949E+02 0.  0.
         12    1    1    2    0    0  0.22669583837E+02  0.11383661177E+02  0.35215415412E+02  0.43400728748E+02  0.00000000000E+00 0. -1.
         11    1    3    3    0    0  0.18962815898E+01 -0.54312673905E+01 -0.22822517068E+01  0.61889597227E+01  0.51100000000E-03 0. -1.
        -11    1    3    3    0    0 -0.11376879371E+02 -0.17077686476E+01 -0.16290722719E+02  0.19943357414E+02  0.51100000000E-03 0.  1.
         12    1    3    3    0    0 -0.13188986057E+02 -0.42446251387E+01 -0.16642440986E+02  0.21654954116E+02  0.00000000000E+00 0. -1.
</event>
<event>
 7    1  0.4723144E-009  0.4778729E+02  0.7816164E-02  0.1312668E+00
        -11   -1    0    0    0    0  0.00000000000E+00  0.00000000000E+00  0.45593999997E+02  0.45594000000E+02  0.51100000000E-03 0. -1.
         11   -1    0    0    0    0 -0.00000000000E+00 -0.00000000000E+00 -0.45593999997E+02  0.45594000000E+02  0.51100000000E-03 0.  1.
    9900012    2    1    2    0    0  0.35515906749E+02 -0.24940829944E+02  0.44417765765E+00  0.47787286592E+02  0.20000070888E+02 0.  0.
         12    1    1    2    0    0 -0.35515906749E+02  0.24940829944E+02 -0.44417765765E+00  0.43400713408E+02  0.00000000000E+00 0. -1.
         11    1    3    3    0    0  0.14837307170E+02 -0.15803916285E+02 -0.79181220773E+01  0.23078260582E+02  0.51100000000E-03 0.  1.
        -11    1    3    3    0    0  0.11803987100E+02 -0.72146598340E+01  0.70732542256E+01  0.15537578755E+02  0.51100000000E-03 0. -1.
        -12    1    3    3    0    0  0.88746124796E+01 -0.19222538255E+01  0.12890455094E+01  0.91714472554E+01  0.00000000000E+00 0.  1.
</event>
<event>
 7    1  0.4723144E-009  0.4778727E+02  0.7816164E-02  0.1312668E+00
        -11   -1    0    0    0    0  0.00000000000E+00  0.00000000000E+00  0.45593999997E+02  0.45594000000E+02  0.51100000000E-03 0. -1.
         11   -1    0    0    0    0 -0.00000000000E+00 -0.00000000000E+00 -0.45593999997E+02  0.45594000000E+02  0.51100000000E-03 0.  1.
    9900012    2    1    2    0    0 -0.15593831463E+02 -0.40476664524E+02 -0.14475211612E+01  0.47787271110E+02  0.20000000300E+02 0.  0.
         12    1    1    2    0    0  0.15593831463E+02  0.40476664524E+02  0.14475211612E+01  0.43400728890E+02  0.00000000000E+00 0. -1.
         11    1    3    3    0    0 -0.13980575712E+02 -0.12374668617E+02  0.19815782592E+01  0.18775398085E+02  0.51100000000E-03 0. -1.
        -11    1    3    3    0    0 -0.30329339401E+01 -0.25672811187E+02 -0.22104270268E+01  0.25945672287E+02  0.51100000000E-03 0.  1.
         12    1    3    3    0    0  0.14196781887E+01 -0.24291847196E+01 -0.12186723936E+01  0.30662007378E+01  0.00000000000E+00 0. -1.
</event>
<event>
 7    1  0.4723144E-009  0.4778727E+02  0.7816164E-02  0.1312668E+00
        -11   -1    0    0    0    0  0.00000000000E+00  0.00000000000E+00  0.45593999997E+02  0.45594000000E+02  0.51100000000E-03 0. -1.
         11   -1    0    0    0    0 -0.00000000000E+00 -0.00000000000E+00 -0.45593999997E+02  0.45594000000E+02  0.51100000000E-03 0.  1.
    9900012    2    1    2    0    0  0.33521621347E+02  0.57653902179E+01 -0.26957085235E+02  0.47787271129E+02  0.20000000388E+02 0.  0.
         12    1    1    2    0    0 -0.33521621347E+02 -0.57653902179E+01  0.26957085235E+02  0.43400728871E+02  0.00000000000E+00 0. -1.
         11    1    3    3    0    0  0.49915500196E+01  0.29525906910E+01  0.14407874370E+00  0.58012173147E+01  0.51100000000E-03 0. -1.
        -11    1    3    3    0    0  0.19913468875E+02 -0.38350531445E+01 -0.22145260735E+02  0.30027761297E+02  0.51100000000E-03 0.  1.
        -12    1    3    3    0    0  0.86166024529E+01  0.66478526715E+01 -0.49559032441E+01  0.11958292518E+02  0.00000000000E+00 0.  1.
</event>
<event>
 7    1  0.4723144E-009  0.4778727E+02  0.7816164E-02  0.1312668E+00
        -11   -1    0    0    0    0  0.00000000000E+00  0.00000000000E+00  0.45593999997E+02  0.45594000000E+02  0.51100000000E-03 0.  1.
         11   -1    0    0    0    0 -0.00000000000E+00 -0.00000000000E+00 -0.45593999997E+02  0.45594000000E+02  0.51100000000E-03 0. -1.
    9900012    2    1    2    0    0  0.24056363507E+02 -0.36050094583E+02 -0.23033280311E+01  0.47787271150E+02  0.20000000483E+02 0.  0.
         12    1    1    2    0    0 -0.24056363507E+02  0.36050094583E+02  0.23033280311E+01  0.43400728850E+02  0.00000000000E+00 0. -1.
         11    1    3    3    0    0  0.10325289253E+02 -0.21817865190E+02  0.72389444082E+01  0.25199864206E+02  0.51100000000E-03 0. -1.
        -11    1    3    3    0    0  0.93222032596E+01 -0.82009278448E+01 -0.84935325030E+01  0.15043230563E+02  0.51100000000E-03 0.  1.
        -12    1    3    3    0    0  0.44088709947E+01 -0.60313015485E+01 -0.10487399364E+01  0.75441763813E+01  0.00000000000E+00 0.  1.
</event>
<event>
 7    1  0.4723144E-009  0.4778727E+02  0.7816164E-02  0.1312668E+00
        -11   -1    0    0    0    0  0.00000000000E+00  0.00000000000E+00  0.45593999997E+02  0.45594000000E+02  0.51100000000E-03 0.  1.
         11   -1    0    0    0    0 -0.00000000000E+00 -0.00000000000E+00 -0.45593999997E+02  0.45594000000E+02  0.51100000000E-03 0. -1.
    9900012    2    1    2    0    0 -0.16295073194E+02  0.62645796174E+01  0.39734730130E+02  0.47787272510E+02  0.20000006680E+02 0.  0.
         12    1    1    2    0    0  0.16295073194E+02 -0.62645796174E+01 -0.39734730130E+02  0.43400727490E+02  0.00000000000E+00 0. -1.
         11    1    3    3    0    0  0.15718968065E+01 -0.40230334405E+00  0.18311161336E+01  0.24465678218E+01  0.51100000000E-03 0. -1.
        -11    1    3    3    0    0 -0.36780280372E+01  0.65832285396E+01  0.38880128586E+01  0.84843050686E+01  0.51100000000E-03 0.  1.
        -12    1    3    3    0    0 -0.14188941963E+02  0.83654421822E-01  0.34015601138E+02  0.36856399619E+02  0.00000000000E+00 0.  1.
</event>
<event>
 7    1  0.4723144E-009  0.4778727E+02  0.7816164E-02  0.1312668E+00
        -11   -1    0    0    0    0  0.00000000000E+00  0.00000000000E+00  0.45593999997E+02  0.45594000000E+02  0.51100000000E-03 0.  1.
         11   -1    0    0    0    0 -0.00000000000E+00 -0.00000000000E+00 -0.45593999997E+02  0.45594000000E+02  0.51100000000E-03 0. -1.
    9900012    2    1    2    0    0  0.29561681467E+01  0.22769430291E+02  0.36829846794E+02  0.47787268431E+02  0.19999988083E+02 0.  0.
         12    1    1    2    0    0 -0.29561681467E+01 -0.22769430291E+02 -0.36829846794E+02  0.43400731569E+02  0.00000000000E+00 0. -1.
         11    1    3    3    0    0 -0.50478858127E+01  0.11887511319E+02  0.10401771774E+02  0.16582850564E+02  0.51100000000E-03 0. -1.
        -11    1    3    3    0    0  0.52690864434E+01  0.12308299256E+02  0.22818471232E+02  0.26456381690E+02  0.51100000000E-03 0.  1.
        -12    1    3    3    0    0  0.27349675160E+01 -0.14263802836E+01  0.36096037888E+01  0.47480361771E+01  0.00000000000E+00 0.  1.
</event>
<event>
 7    1  0.4723144E-009  0.4778727E+02  0.7816164E-02  0.1312668E+00
        -11   -1    0    0    0    0  0.00000000000E+00  0.00000000000E+00  0.45593999997E+02  0.45594000000E+02  0.51100000000E-03 0.  1.
         11   -1    0    0    0    0 -0.00000000000E+00 -0.00000000000E+00 -0.45593999997E+02  0.45594000000E+02  0.51100000000E-03 0. -1.
    9900012    2    1    2    0    0  0.23658280854E+02 -0.10827838293E+02  0.34737109441E+02  0.47787272962E+02  0.20000008743E+02 0.  0.
         12    1    1    2    0    0 -0.23658280854E+02  0.10827838293E+02 -0.34737109441E+02  0.43400727038E+02  0.00000000000E+00 0. -1.
         11    1    3    3    0    0 -0.24381992808E+01 -0.11509222858E+01  0.13235374983E+01  0.30035295256E+01  0.51100000000E-03 0. -1.
        -11    1    3    3    0    0  0.22516393331E+02 -0.11002682634E+02  0.24320760524E+02  0.34922004331E+02  0.51100000000E-03 0.  1.
        -12    1    3    3    0    0  0.35800868043E+01  0.13257666271E+01  0.90928114188E+01  0.98617391049E+01  0.00000000000E+00 0.  1.
</event>
<event>
 7    1  0.4723144E-009  0.4778730E+02  0.7816164E-02  0.1312668E+00
        -11   -1    0    0    0    0  0.00000000000E+00  0.00000000000E+00  0.45593999997E+02  0.45594000000E+02  0.51100000000E-03 0.  1.
         11   -1    0    0    0    0 -0.00000000000E+00 -0.00000000000E+00 -0.45593999997E+02  0.45594000000E+02  0.51100000000E-03 0. -1.
    9900012    2    1    2    0    0 -0.15536385919E+02  0.13569377376E+02  0.38185251287E+02  0.47787300632E+02  0.20000134899E+02 0.  0.
         12    1    1    2    0    0  0.15536385919E+02 -0.13569377376E+02 -0.38185251287E+02  0.43400699368E+02  0.00000000000E+00 0. -1.
         11    1    3    3    0    0 -0.52367169315E+01 -0.26244059497E+01  0.14809129811E+02  0.15925483881E+02  0.51100000000E-03 0. -1.
        -11    1    3    3    0    0 -0.84067072062E+01  0.45486259040E+01  0.78936728066E+01  0.12396483143E+02  0.51100000000E-03 0.  1.
         12    1    3    3    0    0 -0.18929617815E+01  0.11645157422E+02  0.15482448669E+02  0.19465333608E+02  0.00000000000E+00 0. -1.
</event>
<event>
 7    1  0.4723144E-009  0.4778727E+02  0.7816164E-02  0.1312668E+00
        -11   -1    0    0    0    0  0.00000000000E+00  0.00000000000E+00  0.45593999997E+02  0.45594000000E+02  0.51100000000E-03 0.  1.
         11   -1    0    0    0    0 -0.00000000000E+00 -0.00000000000E+00 -0.45593999997E+02  0.45594000000E+02  0.51100000000E-03 0. -1.
    9900012    2    1    2    0    0 -0.13871640715E+02 -0.14401241522E+02  0.38520194544E+02  0.47787267734E+02  0.19999984908E+02 0.  0.
         12    1    1    2    0    0  0.13871640715E+02  0.14401241522E+02 -0.38520194544E+02  0.43400732266E+02  0.00000000000E+00 0. -1.
         11    1    3    3    0    0 -0.34576468213E+00 -0.14725375710E+01 -0.10779403474E+01  0.18573841194E+01  0.51100000000E-03 0. -1.
        -11    1    3    3    0    0 -0.55729267162E+01 -0.90326829166E+01  0.33593292513E+02  0.35230046480E+02  0.51100000000E-03 0.  1.
        -12    1    3    3    0    0 -0.79529493162E+01 -0.38960210348E+01  0.60048423784E+01  0.10699837135E+02  0.00000000000E+00 0.  1.
</event>
<event>
 7    1  0.4723144E-009  0.4778730E+02  0.7816164E-02  0.1312668E+00
        -11   -1    0    0    0    0  0.00000000000E+00  0.00000000000E+00  0.45593999997E+02  0.45594000000E+02  0.51100000000E-03 0.  1.
         11   -1    0    0    0    0 -0.00000000000E+00 -0.00000000000E+00 -0.45593999997E+02  0.45594000000E+02  0.51100000000E-03 0. -1.
    9900012    2    1    2    0    0  0.29219214038E+02 -0.32972612843E+01  0.31921566811E+02  0.47787299215E+02  0.20000128438E+02 0.  0.
         12    1    1    2    0    0 -0.29219214038E+02  0.32972612843E+01 -0.31921566811E+02  0.43400700785E+02  0.00000000000E+00 0. -1.
         11    1    3    3    0    0 -0.81862885606E+00 -0.15142350238E+01 -0.10741062517E+01  0.20289813731E+01  0.51100000000E-03 0. -1.
        -11    1    3    3    0    0  0.72288571732E+01 -0.48000555422E+01  0.83493743313E+01  0.12041966668E+02  0.51100000000E-03 0.  1.
         12    1    3    3    0    0  0.22808985721E+02  0.30170292818E+01  0.24646298732E+02  0.33716351174E+02  0.00000000000E+00 0. -1.
</event>
<event>
 7    1  0.4723144E-009  0.4778727E+02  0.7816164E-02  0.1312668E+00
        -11   -1    0    0    0    0  0.00000000000E+00  0.00000000000E+00  0.45593999997E+02  0.45594000000E+02  0.51100000000E-03 0.  1.
         11   -1    0    0    0    0 -0.00000000000E+00 -0.00000000000E+00 -0.45593999997E+02  0.45594000000E+02  0.51100000000E-03 0. -1.
    9900012    2    1    2    0    0  0.62772691550E+01  0.61653234389E+01  0.42499505372E+02  0.47787270996E+02  0.19999999781E+02 0.  0.
         12    1    1    2    0    0 -0.62772691550E+01 -0.61653234389E+01 -0.42499505372E+02  0.43400729004E+02  0.00000000000E+00 0. -1.
         11    1    3    3    0    0 -0.49613328211E+01  0.13129489407E+01  0.38436863243E+01  0.64119094740E+01  0.51100000000E-03 0. -1.
        -11    1    3    3    0    0  0.12167197846E+02  0.47071623722E+01  0.30600933228E+02  0.33265826245E+02  0.51100000000E-03 0.  1.
        -12    1    3    3    0    0 -0.92859587030E+00  0.14521212601E+00  0.80548858196E+01  0.81095352776E+01  0.00000000000E+00 0.  1.
</event>
<event>
 7    1  0.4723144E-009  0.4778727E+02  0.7816164E-02  0.1312668E+00
        -11   -1    0    0    0    0  0.00000000000E+00  0.00000000000E+00  0.45593999997E+02  0.45594000000E+02  0.51100000000E-03 0.  1.
         11   -1    0    0    0    0 -0.00000000000E+00 -0.00000000000E+00 -0.45593999997E+02  0.45594000000E+02  0.51100000000E-03 0. -1.
    9900012    2    1    2    0    0 -0.32101702129E+02 -0.17221453688E+02 -0.23590801862E+02  0.47787266375E+02  0.19999978711E+02 0.  0.
         12    1    1    2    0    0  0.32101702129E+02  0.17221453688E+02  0.23590801862E+02  0.43400733625E+02  0.00000000000E+00 0. -1.
         11    1    3    3    0    0  0.13394552364E+01  0.11467310562E+01  0.44341938489E+00  0.18181731099E+01  0.51100000000E-03 0. -1.
        -11    1    3    3    0    0 -0.22091790523E+02 -0.16214233221E+02 -0.14574472623E+02  0.31038102712E+02  0.51100000000E-03 0.  1.
         12    1    3    3    0    0 -0.11349366842E+02 -0.21539515229E+01 -0.94597486236E+01  0.14930990553E+02  0.00000000000E+00 0. -1.
</event>
<event>
 7    1  0.4723144E-009  0.4778727E+02  0.7816164E-02  0.1312668E+00
        -11   -1    0    0    0    0  0.00000000000E+00  0.00000000000E+00  0.45593999997E+02  0.45594000000E+02  0.51100000000E-03 0.  1.
         11   -1    0    0    0    0 -0.00000000000E+00 -0.00000000000E+00 -0.45593999997E+02  0.45594000000E+02  0.51100000000E-03 0. -1.
    9900012    2    1    2    0    0  0.37261171614E+02  0.16879501710E+02 -0.14502092280E+02  0.47787272258E+02  0.20000005535E+02 0.  0.
         12    1    1    2    0    0 -0.37261171614E+02 -0.16879501710E+02  0.14502092280E+02  0.43400727742E+02  0.00000000000E+00 0. -1.
         11    1    3    3    0    0  0.49395507841E+01 -0.13466376766E+00  0.61105639315E+00  0.49790246490E+01  0.51100000000E-03 0. -1.
        -11    1    3    3    0    0  0.84733469431E+01  0.13464140882E+02 -0.68493645916E+01  0.17320349121E+02  0.51100000000E-03 0.  1.
        -12    1    3    3    0    0  0.23848273886E+02  0.35500245957E+01 -0.82637840815E+01  0.25487898488E+02  0.00000000000E+00 0.  1.
</event>
<event>
 7    1  0.4723144E-009  0.4778728E+02  0.7816164E-02  0.1312668E+00
        -11   -1    0    0    0    0  0.00000000000E+00  0.00000000000E+00  0.45593999997E+02  0.45594000000E+02  0.51100000000E-03 0. -1.
         11   -1    0    0    0    0 -0.00000000000E+00 -0.00000000000E+00 -0.45593999997E+02  0.45594000000E+02  0.51100000000E-03 0.  1.
    9900012    2    1    2    0    0 -0.15065432041E+01  0.42699224668E+02  0.76242624433E+01  0.47787276072E+02  0.20000022924E+02 0.  0.
         12    1    1    2    0    0  0.15065432041E+01 -0.42699224668E+02 -0.76242624433E+01  0.43400723928E+02  0.00000000000E+00 0. -1.
         11    1    3    3    0    0  0.85589017140E+00 -0.40249104090E+00  0.23400774453E+01  0.25239868729E+01  0.51100000000E-03 0. -1.
        -11    1    3    3    0    0 -0.34587682749E+00  0.38225454792E+02  0.83947614464E+01  0.39137923359E+02  0.51100000000E-03 0.  1.
        -12    1    3    3    0    0 -0.20165565480E+01  0.48762609168E+01 -0.31105764484E+01  0.61253658406E+01  0.00000000000E+00 0.  1.
</event>
<event>
 7    1  0.4723144E-009  0.4778727E+02  0.7816164E-02  0.1312668E+00
        -11   -1    0    0    0    0  0.00000000000E+00  0.00000000000E+00  0.45593999997E+02  0.45594000000E+02  0.51100000000E-03 0.  1.
         11   -1    0    0    0    0 -0.00000000000E+00 -0.00000000000E+00 -0.45593999997E+02  0.45594000000E+02  0.51100000000E-03 0. -1.
    9900012    2    1    2    0    0  0.27214730499E+02  0.25347826118E+02  0.22371172556E+02  0.47787271820E+02  0.20000003537E+02 0.  0.
         12    1    1    2    0    0 -0.27214730499E+02 -0.25347826118E+02 -0.22371172556E+02  0.43400728180E+02  0.00000000000E+00 0. -1.
         11    1    3    3    0    0  0.19050166082E+02  0.12453892287E+02  0.18730944727E+02  0.29476372767E+02  0.51100000000E-03 0. -1.
        -11    1    3    3    0    0  0.99399853956E+01  0.86127379549E+01  0.37446939539E+01  0.13674988037E+02  0.51100000000E-03 0.  1.
         12    1    3    3    0    0 -0.17754209790E+01  0.42811958755E+01 -0.10446612581E+00  0.46359110161E+01  0.00000000000E+00 0. -1.
</event>
<event>
 7    1  0.4723144E-009  0.4778726E+02  0.7816164E-02  0.1312668E+00
        -11   -1    0    0    0    0  0.00000000000E+00  0.00000000000E+00  0.45593999997E+02  0.45594000000E+02  0.51100000000E-03 0. -1.
         11   -1    0    0    0    0 -0.00000000000E+00 -0.00000000000E+00 -0.45593999997E+02  0.45594000000E+02  0.51100000000E-03 0.  1.
    9900012    2    1    2    0    0  0.26716255031E+01  0.16599224471E+02 -0.40011900104E+02  0.47787262842E+02  0.19999962602E+02 0.  0.
         12    1    1    2    0    0 -0.26716255031E+01 -0.16599224471E+02  0.40011900104E+02  0.43400737158E+02  0.00000000000E+00 0. -1.
         11    1    3    3    0    0 -0.25316027231E+01  0.12761117605E+02 -0.21854996579E+02  0.25434150479E+02  0.51100000000E-03 0.  1.
        -11    1    3    3    0    0  0.22593948886E+01 -0.40386680149E+01 -0.65994496959E+01  0.80603003137E+01  0.51100000000E-03 0. -1.
         12    1    3    3    0    0  0.29438333376E+01  0.78767748807E+01 -0.11557453830E+02  0.14292812049E+02  0.00000000000E+00 0. -1.
</event>
<event>
 7    1  0.4723144E-009  0.4778727E+02  0.7816164E-02  0.1312668E+00
        -11   -1    0    0    0    0  0.00000000000E+00  0.00000000000E+00  0.45593999997E+02  0.45594000000E+02  0.51100000000E-03 0.  1.
         11   -1    0    0    0    0 -0.00000000000E+00 -0.00000000000E+00 -0.45593999997E+02  0.45594000000E+02  0.51100000000E-03 0. -1.
    9900012    2    1    2    0    0 -0.21638315662E+02  0.12440155915E+02  0.35505621840E+02  0.47787269982E+02  0.19999995156E+02 0.  0.
         12    1    1    2    0    0  0.21638315662E+02 -0.12440155915E+02 -0.35505621840E+02  0.43400730018E+02  0.00000000000E+00 0. -1.
         11    1    3    3    0    0 -0.40048471642E+01  0.10088556895E+02  0.69450604262E+01  0.12886102810E+02  0.51100000000E-03 0. -1.
        -11    1    3    3    0    0 -0.18427784327E+02  0.96279787359E+00  0.26518945778E+02  0.32307347467E+02  0.51100000000E-03 0.  1.
        -12    1    3    3    0    0  0.79431582919E+00  0.13888011461E+01  0.20416156354E+01  0.25938197051E+01  0.00000000000E+00 0.  1.
</event>
<event>
 7    1  0.4723144E-009  0.4778727E+02  0.7816164E-02  0.1312668E+00
        -11   -1    0    0    0    0  0.00000000000E+00  0.00000000000E+00  0.45593999997E+02  0.45594000000E+02  0.51100000000E-03 0.  1.
         11   -1    0    0    0    0 -0.00000000000E+00 -0.00000000000E+00 -0.45593999997E+02  0.45594000000E+02  0.51100000000E-03 0. -1.
    9900012    2    1    2    0    0 -0.76869460104E+01  0.24793147096E+02  0.34782665644E+02  0.47787272919E+02  0.20000008546E+02 0.  0.
         12    1    1    2    0    0  0.76869460104E+01 -0.24793147096E+02 -0.34782665644E+02  0.43400727081E+02  0.00000000000E+00 0. -1.
         11    1    3    3    0    0 -0.41724506770E+00 -0.91032745637E+00  0.25361121818E+01  0.27266563378E+01  0.51100000000E-03 0. -1.
        -11    1    3    3    0    0 -0.54917604571E+01  0.18243273447E+01  0.13373471215E+02  0.14571799332E+02  0.51100000000E-03 0.  1.
        -12    1    3    3    0    0 -0.17779404856E+01  0.23879147207E+02  0.18873082247E+02  0.30488817249E+02  0.00000000000E+00 0.  1.
</event>
<event>
 7    1  0.4723144E-009  0.4778727E+02  0.7816164E-02  0.1312668E+00
        -11   -1    0    0    0    0  0.00000000000E+00  0.00000000000E+00  0.45593999997E+02  0.45594000000E+02  0.51100000000E-03 0.  1.
         11   -1    0    0    0    0 -0.00000000000E+00 -0.00000000000E+00 -0.45593999997E+02  0.45594000000E+02  0.51100000000E-03 0. -1.
    9900012    2    1    2    0    0  0.28926437285E+02 -0.33865875071E+01  0.32177872382E+02  0.47787271666E+02  0.20000002833E+02 0.  0.
         12    1    1    2    0    0 -0.28926437285E+02  0.33865875071E+01 -0.32177872382E+02  0.43400728334E+02  0.00000000000E+00 0. -1.
         11    1    3    3    0    0  0.51611074784E+01  0.18450385984E+01 -0.18335987623E+01  0.57795572940E+01  0.51100000000E-03 0. -1.
        -11    1    3    3    0    0  0.16114571848E+02 -0.53985278778E+01  0.23929815332E+02  0.29350631870E+02  0.51100000000E-03 0.  1.
         12    1    3    3    0    0  0.76507579579E+01  0.16690177229E+00  0.10081655812E+02  0.12657082501E+02  0.00000000000E+00 0. -1.
</event>
<event>
 7    1  0.4723144E-009  0.4778727E+02  0.7816164E-02  0.1312668E+00
        -11   -1    0    0    0    0  0.00000000000E+00  0.00000000000E+00  0.45593999997E+02  0.45594000000E+02  0.51100000000E-03 0.  1.
         11   -1    0    0    0    0 -0.00000000000E+00 -0.00000000000E+00 -0.45593999997E+02  0.45594000000E+02  0.51100000000E-03 0. -1.
    9900012    2    1    2    0    0 -0.40343266445E+02 -0.99001441802E+01  0.12571038826E+02  0.47787273976E+02  0.20000013366E+02 0.  0.
         12    1    1    2    0    0  0.40343266445E+02  0.99001441802E+01 -0.12571038826E+02  0.43400726024E+02  0.00000000000E+00 0. -1.
         11    1    3    3    0    0 -0.23374804977E+02 -0.10793485487E+02  0.17579448173E+01  0.25806417940E+02  0.51100000000E-03 0. -1.
        -11    1    3    3    0    0 -0.12229763797E+02  0.28465719541E+01  0.11220096296E+02  0.16839259353E+02  0.51100000000E-03 0.  1.
        -12    1    3    3    0    0 -0.47386976712E+01 -0.19532306472E+01 -0.40700228757E+00  0.51415966821E+01  0.00000000000E+00 0.  1.
</event>
<event>
 7    1  0.4723144E-009  0.4778727E+02  0.7816164E-02  0.1312668E+00
        -11   -1    0    0    0    0  0.00000000000E+00  0.00000000000E+00  0.45593999997E+02  0.45594000000E+02  0.51100000000E-03 0.  1.
         11   -1    0    0    0    0 -0.00000000000E+00 -0.00000000000E+00 -0.45593999997E+02  0.45594000000E+02  0.51100000000E-03 0. -1.
    9900012    2    1    2    0    0 -0.89593791928E+01 -0.13022723152E+02  0.40419817206E+02  0.47787269398E+02  0.19999992494E+02 0.  0.
         12    1    1    2    0    0  0.89593791928E+01  0.13022723152E+02 -0.40419817206E+02  0.43400730602E+02  0.00000000000E+00 0. -1.
         11    1    3    3    0    0 -0.25937804717E+01  0.19636659705E+01  0.21921440692E+02  0.22161526199E+02  0.51100000000E-03 0. -1.
        -11    1    3    3    0    0 -0.42644488580E+01 -0.46727548490E+01  0.11045366016E+02  0.12728718420E+02  0.51100000000E-03 0.  1.
         12    1    3    3    0    0 -0.21011498631E+01 -0.10313634273E+02  0.74530104978E+01  0.12897024779E+02  0.00000000000E+00 0. -1.
</event>
<event>
 7    1  0.4723144E-009  0.4778727E+02  0.7816164E-02  0.1312668E+00
        -11   -1    0    0    0    0  0.00000000000E+00  0.00000000000E+00  0.45593999997E+02  0.45594000000E+02  0.51100000000E-03 0.  1.
         11   -1    0    0    0    0 -0.00000000000E+00 -0.00000000000E+00 -0.45593999997E+02  0.45594000000E+02  0.51100000000E-03 0. -1.
    9900012    2    1    2    0    0  0.10470106039E+02 -0.33340711277E+02  0.25737070881E+02  0.47787274586E+02  0.20000016148E+02 0.  0.
         12    1    1    2    0    0 -0.10470106039E+02  0.33340711277E+02 -0.25737070881E+02  0.43400725414E+02  0.00000000000E+00 0. -1.
         11    1    3    3    0    0  0.28046706870E+01 -0.20510721797E+02  0.63644754065E+01  0.21657849241E+02  0.51100000000E-03 0. -1.
        -11    1    3    3    0    0  0.53346541300E+01 -0.13956729907E+01  0.39199602334E+01  0.67655396145E+01  0.51100000000E-03 0.  1.
         12    1    3    3    0    0  0.23307812222E+01 -0.11434316489E+02  0.15452635241E+02  0.19363885730E+02  0.00000000000E+00 0. -1.
</event>
<event>
 7    1  0.4723144E-009  0.4778727E+02  0.7816164E-02  0.1312668E+00
        -11   -1    0    0    0    0  0.00000000000E+00  0.00000000000E+00  0.45593999997E+02  0.45594000000E+02  0.51100000000E-03 0.  1.
         11   -1    0    0    0    0 -0.00000000000E+00 -0.00000000000E+00 -0.45593999997E+02  0.45594000000E+02  0.51100000000E-03 0. -1.
    9900012    2    1    2    0    0  0.13492254477E+02 -0.40613628512E+02 -0.72191024750E+01  0.47787271984E+02  0.20000004285E+02 0.  0.
         12    1    1    2    0    0 -0.13492254477E+02  0.40613628512E+02  0.72191024750E+01  0.43400728016E+02  0.00000000000E+00 0. -1.
         11    1    3    3    0    0  0.15985835963E+02 -0.33248313503E+02 -0.11397349761E+02  0.38612133897E+02  0.51100000000E-03 0.  1.
        -11    1    3    3    0    0 -0.25275023249E+01 -0.53598887673E+01  0.40249373309E+01  0.71635742740E+01  0.51100000000E-03 0. -1.
        -12    1    3    3    0    0  0.33920839077E-01 -0.20054262416E+01  0.15330995511E+00  0.20115638136E+01  0.00000000000E+00 0.  1.
</event>
<event>
 7    1  0.4723144E-009  0.4778727E+02  0.7816164E-02  0.1312668E+00
        -11   -1    0    0    0    0  0.00000000000E+00  0.00000000000E+00  0.45593999997E+02  0.45594000000E+02  0.51100000000E-03 0.  1.
         11   -1    0    0    0    0 -0.00000000000E+00 -0.00000000000E+00 -0.45593999997E+02  0.45594000000E+02  0.51100000000E-03 0. -1.
    9900012    2    1    2    0    0 -0.89341880646E+00 -0.76161744067E+01  0.42717898635E+02  0.47787272201E+02  0.20000005272E+02 0.  0.
         12    1    1    2    0    0  0.89341880646E+00  0.76161744067E+01 -0.42717898635E+02  0.43400727799E+02  0.00000000000E+00 0. -1.
         11    1    3    3    0    0 -0.29588307082E+01 -0.43652874899E+01  0.20207756407E+01  0.56474727516E+01  0.51100000000E-03 0. -1.
        -11    1    3    3    0    0  0.45421917554E+00  0.12952564994E+01  0.33179921635E+02  0.33208300234E+02  0.51100000000E-03 0.  1.
        -12    1    3    3    0    0  0.16111927262E+01 -0.45461434162E+01  0.75172013587E+01  0.89314992150E+01  0.00000000000E+00 0.  1.
</event>
<event>
 7    1  0.4723144E-009  0.4778727E+02  0.7816164E-02  0.1312668E+00
        -11   -1    0    0    0    0  0.00000000000E+00  0.00000000000E+00  0.45593999997E+02  0.45594000000E+02  0.51100000000E-03 0.  1.
         11   -1    0    0    0    0 -0.00000000000E+00 -0.00000000000E+00 -0.45593999997E+02  0.45594000000E+02  0.51100000000E-03 0. -1.
    9900012    2    1    2    0    0  0.17372581808E+02 -0.39746786271E+02 -0.14176527279E+01  0.47787270089E+02  0.19999995645E+02 0.  0.
         12    1    1    2    0    0 -0.17372581808E+02  0.39746786271E+02  0.14176527279E+01  0.43400729911E+02  0.00000000000E+00 0. -1.
         11    1    3    3    0    0  0.14444514281E+02 -0.21696168935E+02 -0.25585056183E+01  0.26189954000E+02  0.51100000000E-03 0. -1.
        -11    1    3    3    0    0  0.21485373004E+01 -0.12001080828E+02  0.61953296851E+01  0.13675681472E+02  0.51100000000E-03 0.  1.
        -12    1    3    3    0    0  0.77953022664E+00 -0.60495365081E+01 -0.50544767946E+01  0.79216346169E+01  0.00000000000E+00 0.  1.
</event>
<event>
 7    1  0.4723144E-009  0.4778728E+02  0.7816164E-02  0.1312668E+00
        -11   -1    0    0    0    0  0.00000000000E+00  0.00000000000E+00  0.45593999997E+02  0.45594000000E+02  0.51100000000E-03 0.  1.
         11   -1    0    0    0    0 -0.00000000000E+00 -0.00000000000E+00 -0.45593999997E+02  0.45594000000E+02  0.51100000000E-03 0. -1.
    9900012    2    1    2    0    0  0.18484549632E+02  0.38030952218E+02  0.97770374303E+01  0.47787281542E+02  0.20000047863E+02 0.  0.
         12    1    1    2    0    0 -0.18484549632E+02 -0.38030952218E+02 -0.97770374303E+01  0.43400718458E+02  0.00000000000E+00 0. -1.
         11    1    3    3    0    0  0.41613183076E+00  0.20224134582E+02  0.40976472337E+01  0.20639270781E+02  0.51100000000E-03 0. -1.
        -11    1    3    3    0    0  0.13534224113E+02  0.16955779010E+02  0.60413307803E+01  0.22520464960E+02  0.51100000000E-03 0.  1.
         12    1    3    3    0    0  0.45341936882E+01  0.85103862713E+00 -0.36194058371E+00  0.46275458002E+01  0.00000000000E+00 0. -1.
</event>
<event>
 7    1  0.4723144E-009  0.4778727E+02  0.7816164E-02  0.1312668E+00
        -11   -1    0    0    0    0  0.00000000000E+00  0.00000000000E+00  0.45593999997E+02  0.45594000000E+02  0.51100000000E-03 0.  1.
         11   -1    0    0    0    0 -0.00000000000E+00 -0.00000000000E+00 -0.45593999997E+02  0.45594000000E+02  0.51100000000E-03 0. -1.
    9900012    2    1    2    0    0 -0.25676346649E+02  0.11013788980E+02  0.33212119472E+02  0.47787271841E+02  0.20000003630E+02 0.  0.
         12    1    1    2    0    0  0.25676346649E+02 -0.11013788980E+02 -0.33212119472E+02  0.43400728159E+02  0.00000000000E+00 0. -1.
         11    1    3    3    0    0 -0.29707901303E+01 -0.39941042602E+00  0.70776225039E+01  0.76862125430E+01  0.51100000000E-03 0. -1.
        -11    1    3    3    0    0  0.12812969611E+01  0.21179559109E+01 -0.10368764489E+01  0.26837608266E+01  0.51100000000E-03 0.  1.
        -12    1    3    3    0    0 -0.23986853480E+02  0.92952434948E+01  0.27171373417E+02  0.37417298471E+02  0.00000000000E+00 0.  1.
</event>
<event>
 7    1  0.4723144E-009  0.4778726E+02  0.7816164E-02  0.1312668E+00
        -11   -1    0    0    0    0  0.00000000000E+00  0.00000000000E+00  0.45593999997E+02  0.45594000000E+02  0.51100000000E-03 0.  1.
         11   -1    0    0    0    0 -0.00000000000E+00 -0.00000000000E+00 -0.45593999997E+02  0.45594000000E+02  0.51100000000E-03 0. -1.
    9900012    2    1    2    0    0 -0.21865677482E+02  0.81715711140E+00  0.37481309141E+02  0.47787261153E+02  0.19999954903E+02 0.  0.
         12    1    1    2    0    0  0.21865677482E+02 -0.81715711140E+00 -0.37481309141E+02  0.43400738847E+02  0.00000000000E+00 0. -1.
         11    1    3    3    0    0 -0.27217335515E+01 -0.57996916333E+01  0.11172837556E+02  0.12879307275E+02  0.51100000000E-03 0. -1.
        -11    1    3    3    0    0 -0.12945587421E+02  0.64159269880E+01  0.10310176234E+02  0.17749706675E+02  0.51100000000E-03 0.  1.
        -12    1    3    3    0    0 -0.61983565092E+01  0.20092175663E+00  0.15998295352E+02  0.17158247204E+02  0.00000000000E+00 0.  1.
</event>
<event>
 7    1  0.4723144E-009  0.4778728E+02  0.7816164E-02  0.1312668E+00
        -11   -1    0    0    0    0  0.00000000000E+00  0.00000000000E+00  0.45593999997E+02  0.45594000000E+02  0.51100000000E-03 0.  1.
         11   -1    0    0    0    0 -0.00000000000E+00 -0.00000000000E+00 -0.45593999997E+02  0.45594000000E+02  0.51100000000E-03 0. -1.
    9900012    2    1    2    0    0 -0.28939244941E+02  0.17508717296E+02  0.27195362332E+02  0.47787276372E+02  0.20000024291E+02 0.  0.
         12    1    1    2    0    0  0.28939244941E+02 -0.17508717296E+02 -0.27195362332E+02  0.43400723628E+02  0.00000000000E+00 0. -1.
         11    1    3    3    0    0 -0.65268954729E+01 -0.57140164417E+00  0.51075687014E+01  0.83074739033E+01  0.51100000000E-03 0. -1.
        -11    1    3    3    0    0 -0.11497092921E+01  0.28853327431E+01 -0.21969853420E+01  0.38044344322E+01  0.51100000000E-03 0.  1.
        -12    1    3    3    0    0 -0.21262640176E+02  0.15194786197E+02  0.24284778972E+02  0.35675368037E+02  0.00000000000E+00 0.  1.
</event>
<event>
 7    1  0.4723144E-009  0.4778728E+02  0.7816164E-02  0.1312668E+00
        -11   -1    0    0    0    0  0.00000000000E+00  0.00000000000E+00  0.45593999997E+02  0.45594000000E+02  0.51100000000E-03 0.  1.
         11   -1    0    0    0    0 -0.00000000000E+00 -0.00000000000E+00 -0.45593999997E+02  0.45594000000E+02  0.51100000000E-03 0. -1.
    9900012    2    1    2    0    0 -0.20312537179E+02 -0.31147905610E+02  0.22379263200E+02  0.47787278671E+02  0.20000034772E+02 0.  0.
         12    1    1    2    0    0  0.20312537179E+02  0.31147905610E+02 -0.22379263200E+02  0.43400721329E+02  0.00000000000E+00 0. -1.
         11    1    3    3    0    0 -0.17327778978E+02 -0.18577620003E+02  0.17938176488E+02  0.31099165025E+02  0.51100000000E-03 0. -1.
        -11    1    3    3    0    0 -0.13375473531E+01  0.98829375027E+00  0.23375905499E+01  0.28688128727E+01  0.51100000000E-03 0.  1.
         12    1    3    3    0    0 -0.16472108480E+01 -0.13558579357E+02  0.21034961622E+01  0.13819300773E+02  0.00000000000E+00 0. -1.
</event>
<event>
 7    1  0.4723144E-009  0.4778727E+02  0.7816164E-02  0.1312668E+00
        -11   -1    0    0    0    0  0.00000000000E+00  0.00000000000E+00  0.45593999997E+02  0.45594000000E+02  0.51100000000E-03 0. -1.
         11   -1    0    0    0    0 -0.00000000000E+00 -0.00000000000E+00 -0.45593999997E+02  0.45594000000E+02  0.51100000000E-03 0.  1.
    9900012    2    1    2    0    0  0.17269732849E+00  0.79869162904E+01 -0.42659145547E+02  0.47787270110E+02  0.19999995740E+02 0.  0.
         12    1    1    2    0    0 -0.17269732849E+00 -0.79869162904E+01  0.42659145547E+02  0.43400729890E+02  0.00000000000E+00 0. -1.
         11    1    3    3    0    0  0.47012890697E+01  0.83674829059E+01 -0.75389798752E+01  0.12204634649E+02  0.51100000000E-03 0. -1.
        -11    1    3    3    0    0 -0.27248805858E+01 -0.12107916896E+01 -0.28895621895E+02  0.29049061184E+02  0.51100000000E-03 0.  1.
         12    1    3    3    0    0 -0.18037111554E+01  0.83022507410E+00 -0.62245437769E+01  0.65335742773E+01  0.00000000000E+00 0. -1.
</event>
<event>
 7    1  0.4723144E-009  0.4778727E+02  0.7816164E-02  0.1312668E+00
        -11   -1    0    0    0    0  0.00000000000E+00  0.00000000000E+00  0.45593999997E+02  0.45594000000E+02  0.51100000000E-03 0.  1.
         11   -1    0    0    0    0 -0.00000000000E+00 -0.00000000000E+00 -0.45593999997E+02  0.45594000000E+02  0.51100000000E-03 0. -1.
    9900012    2    1    2    0    0  0.86104866489E+01 -0.41563188308E+02  0.90545110275E+01  0.47787271059E+02  0.20000000066E+02 0.  0.
         12    1    1    2    0    0 -0.86104866489E+01  0.41563188308E+02 -0.90545110275E+01  0.43400728941E+02  0.00000000000E+00 0. -1.
         11    1    3    3    0    0 -0.39916578328E-02 -0.31127458936E+00 -0.27194717037E+01  0.27372311579E+01  0.51100000000E-03 0. -1.
        -11    1    3    3    0    0  0.19864249453E+01 -0.29110081228E+02  0.11043051200E+02  0.31197623199E+02  0.51100000000E-03 0.  1.
         12    1    3    3    0    0  0.66280533615E+01 -0.12141832490E+02  0.73093153159E+00  0.13852416702E+02  0.00000000000E+00 0. -1.
</event>
<event>
 7    1  0.4723144E-009  0.4778727E+02  0.7816164E-02  0.1312668E+00
        -11   -1    0    0    0    0  0.00000000000E+00  0.00000000000E+00  0.45593999997E+02  0.45594000000E+02  0.51100000000E-03 0. -1.
         11   -1    0    0    0    0 -0.00000000000E+00 -0.00000000000E+00 -0.45593999997E+02  0.45594000000E+02  0.51100000000E-03 0.  1.
    9900012    2    1    2    0    0 -0.17122123669E+02  0.19205084589E+02 -0.34951694456E+02  0.47787270302E+02  0.19999996614E+02 0.  0.
         12    1    1    2    0    0  0.17122123669E+02 -0.19205084589E+02  0.34951694456E+02  0.43400729698E+02  0.00000000000E+00 0. -1.
         11    1    3    3    0    0 -0.22933249930E+00 -0.56555809475E+00  0.72447234841E+00  0.94726437625E+00  0.51100000000E-03 0. -1.
        -11    1    3    3    0    0 -0.10222607328E+01  0.57951923123E+01 -0.19055004265E+02  0.19942980187E+02  0.51100000000E-03 0.  1.
        -12    1    3    3    0    0 -0.15870530437E+02  0.13975450371E+02 -0.16621162539E+02  0.26897025739E+02  0.00000000000E+00 0.  1.
</event>
<event>
 7    1  0.4723144E-009  0.4778727E+02  0.7816164E-02  0.1312668E+00
        -11   -1    0    0    0    0  0.00000000000E+00  0.00000000000E+00  0.45593999997E+02  0.45594000000E+02  0.51100000000E-03 0. -1.
         11   -1    0    0    0    0 -0.00000000000E+00 -0.00000000000E+00 -0.45593999997E+02  0.45594000000E+02  0.51100000000E-03 0.  1.
    9900012    2    1    2    0    0 -0.93034283317E+01 -0.88805323287E+01 -0.41451245948E+02  0.47787269317E+02  0.19999992123E+02 0.  0.
         12    1    1    2    0    0  0.93034283317E+01  0.88805323287E+01  0.41451245948E+02  0.43400730683E+02  0.00000000000E+00 0. -1.
         11    1    3    3    0    0 -0.97129412625E+01 -0.71603836669E+01 -0.28442672379E+02  0.30896568329E+02  0.51100000000E-03 0. -1.
        -11    1    3    3    0    0  0.29667500953E+01  0.27128100356E+01 -0.10392935016E+02  0.11143340744E+02  0.51100000000E-03 0.  1.
         12    1    3    3    0    0 -0.25572371646E+01 -0.44329586973E+01 -0.26156385533E+01  0.57473602436E+01  0.00000000000E+00 0. -1.
</event>
<event>
 7    1  0.4723144E-009  0.4778727E+02  0.7816164E-02  0.1312668E+00
        -11   -1    0    0    0    0  0.00000000000E+00  0.00000000000E+00  0.45593999997E+02  0.45594000000E+02  0.51100000000E-03 0.  1.
         11   -1    0    0    0    0 -0.00000000000E+00 -0.00000000000E+00 -0.45593999997E+02  0.45594000000E+02  0.51100000000E-03 0. -1.
    9900012    2    1    2    0    0 -0.13652531881E+02  0.80863360639E+01  0.40396076695E+02  0.47787268785E+02  0.19999989697E+02 0.  0.
         12    1    1    2    0    0  0.13652531881E+02 -0.80863360639E+01 -0.40396076695E+02  0.43400731215E+02  0.00000000000E+00 0. -1.
         11    1    3    3    0    0 -0.65883091216E+01 -0.45420404296E+01  0.17681209999E+02  0.19407759676E+02  0.51100000000E-03 0. -1.
        -11    1    3    3    0    0 -0.33379763513E+01  0.47670240095E+01  0.17005302806E+02  0.17973506275E+02  0.51100000000E-03 0.  1.
         12    1    3    3    0    0 -0.37262464080E+01  0.78613524840E+01  0.57095638898E+01  0.10406002834E+02  0.00000000000E+00 0. -1.
</event>
<event>
 7    1  0.4723144E-009  0.4778727E+02  0.7816164E-02  0.1312668E+00
        -11   -1    0    0    0    0  0.00000000000E+00  0.00000000000E+00  0.45593999997E+02  0.45594000000E+02  0.51100000000E-03 0.  1.
         11   -1    0    0    0    0 -0.00000000000E+00 -0.00000000000E+00 -0.45593999997E+02  0.45594000000E+02  0.51100000000E-03 0. -1.
    9900012    2    1    2    0    0 -0.18412710333E+02 -0.48202241816E+01  0.39004624745E+02  0.47787271729E+02  0.20000003121E+02 0.  0.
         12    1    1    2    0    0  0.18412710333E+02  0.48202241816E+01 -0.39004624745E+02  0.43400728271E+02  0.00000000000E+00 0. -1.
         11    1    3    3    0    0  0.19431460201E+01  0.26440462455E+01  0.30737509830E+01  0.44960807790E+01  0.51100000000E-03 0. -1.
        -11    1    3    3    0    0 -0.54956706327E+01  0.18164615589E+01  0.14484474173E+02  0.15598138370E+02  0.51100000000E-03 0.  1.
         12    1    3    3    0    0 -0.14860185720E+02 -0.92807319860E+01  0.21446399589E+02  0.27693052580E+02  0.00000000000E+00 0. -1.
</event>
<event>
 7    1  0.4723144E-009  0.4778728E+02  0.7816164E-02  0.1312668E+00
        -11   -1    0    0    0    0  0.00000000000E+00  0.00000000000E+00  0.45593999997E+02  0.45594000000E+02  0.51100000000E-03 0. -1.
         11   -1    0    0    0    0 -0.00000000000E+00 -0.00000000000E+00 -0.45593999997E+02  0.45594000000E+02  0.51100000000E-03 0.  1.
    9900012    2    1    2    0    0 -0.37888013056E+01  0.37471075273E+02  0.21568178115E+02  0.47787276450E+02  0.20000024647E+02 0.  0.
         12    1    1    2    0    0  0.37888013056E+01 -0.37471075273E+02 -0.21568178115E+02  0.43400723550E+02  0.00000000000E+00 0. -1.
         11    1    3    3    0    0  0.54778661916E+01  0.23599005207E+02  0.12067639451E+02  0.27065623713E+02  0.51100000000E-03 0. -1.
        -11    1    3    3    0    0 -0.63833860454E+01  0.13405628395E+02  0.97925855615E+01  0.17786321214E+02  0.51100000000E-03 0.  1.
         12    1    3    3    0    0 -0.28832814519E+01  0.46644167077E+00 -0.29204689812E+00  0.29353315236E+01  0.00000000000E+00 0. -1.
</event>
<event>
 7    1  0.4723144E-009  0.4778727E+02  0.7816164E-02  0.1312668E+00
        -11   -1    0    0    0    0  0.00000000000E+00  0.00000000000E+00  0.45593999997E+02  0.45594000000E+02  0.51100000000E-03 0.  1.
         11   -1    0    0    0    0 -0.00000000000E+00 -0.00000000000E+00 -0.45593999997E+02  0.45594000000E+02  0.51100000000E-03 0. -1.
    9900012    2    1    2    0    0  0.16127319759E+02 -0.88381051970E+00  0.40283395865E+02  0.47787267909E+02  0.19999985704E+02 0.  0.
         12    1    1    2    0    0 -0.16127319759E+02  0.88381051970E+00 -0.40283395865E+02  0.43400732091E+02  0.00000000000E+00 0. -1.
         11    1    3    3    0    0  0.63169958549E+01 -0.65598797402E+01  0.25979950145E+02  0.27529879561E+02  0.51100000000E-03 0. -1.
        -11    1    3    3    0    0  0.10205786679E+02  0.45074542763E+01  0.15110582016E+02  0.18783101845E+02  0.51100000000E-03 0.  1.
         12    1    3    3    0    0 -0.39546277465E+00  0.11686149442E+01 -0.80713629618E+00  0.14742865036E+01  0.00000000000E+00 0. -1.
</event>
<event>
 7    1  0.4723144E-009  0.4778727E+02  0.7816164E-02  0.1312668E+00
        -11   -1    0    0    0    0  0.00000000000E+00  0.00000000000E+00  0.45593999997E+02  0.45594000000E+02  0.51100000000E-03 0. -1.
         11   -1    0    0    0    0 -0.00000000000E+00 -0.00000000000E+00 -0.45593999997E+02  0.45594000000E+02  0.51100000000E-03 0.  1.
    9900012    2    1    2    0    0 -0.31690901901E+02  0.78888824576E+00  0.29642663651E+02  0.47787272860E+02  0.20000008280E+02 0.  0.
         12    1    1    2    0    0  0.31690901901E+02 -0.78888824576E+00 -0.29642663651E+02  0.43400727140E+02  0.00000000000E+00 0. -1.
         11    1    3    3    0    0 -0.19088086916E+02  0.23207895489E+01  0.24439835223E+02  0.31097374041E+02  0.51100000000E-03 0. -1.
        -11    1    3    3    0    0 -0.13634543128E+02 -0.67458028955E+00  0.27961849487E+01  0.13934650171E+02  0.51100000000E-03 0.  1.
        -12    1    3    3    0    0  0.10317281428E+01 -0.85732101364E+00  0.24066434787E+01  0.27552486484E+01  0.00000000000E+00 0.  1.
</event>
<event>
 7    1  0.4723144E-009  0.4778727E+02  0.7816164E-02  0.1312668E+00
        -11   -1    0    0    0    0  0.00000000000E+00  0.00000000000E+00  0.45593999997E+02  0.45594000000E+02  0.51100000000E-03 0.  1.
         11   -1    0    0    0    0 -0.00000000000E+00 -0.00000000000E+00 -0.45593999997E+02  0.45594000000E+02  0.51100000000E-03 0. -1.
    9900012    2    1    2    0    0  0.18526423520E+02  0.12890577852E+02  0.37070581524E+02  0.47787269818E+02  0.19999994407E+02 0.  0.
         12    1    1    2    0    0 -0.18526423520E+02 -0.12890577852E+02 -0.37070581524E+02  0.43400730182E+02  0.00000000000E+00 0. -1.
         11    1    3    3    0    0  0.15566749882E+02  0.15746701410E+02  0.22384806764E+02  0.31485899722E+02  0.51100000000E-03 0. -1.
        -11    1    3    3    0    0  0.31375171312E+01 -0.61445761969E+00  0.13257178397E+02  0.13637241335E+02  0.51100000000E-03 0.  1.
        -12    1    3    3    0    0 -0.17784349323E+00 -0.22416659378E+01  0.14285963631E+01  0.26641287606E+01  0.00000000000E+00 0.  1.
</event>
<event>
 7    1  0.4723144E-009  0.4778727E+02  0.7816164E-02  0.1312668E+00
        -11   -1    0    0    0    0  0.00000000000E+00  0.00000000000E+00  0.45593999997E+02  0.45594000000E+02  0.51100000000E-03 0. -1.
         11   -1    0    0    0    0 -0.00000000000E+00 -0.00000000000E+00 -0.45593999997E+02  0.45594000000E+02  0.51100000000E-03 0.  1.
    9900012    2    1    2    0    0 -0.45711952667E+01  0.34671710774E+02 -0.25702141400E+02  0.47787269284E+02  0.19999991972E+02 0.  0.
         12    1    1    2    0    0  0.45711952667E+01 -0.34671710774E+02  0.25702141400E+02  0.43400730716E+02  0.00000000000E+00 0. -1.
         11    1    3    3    0    0  0.28125693724E+01  0.38901075676E+01 -0.12646973304E+01  0.49641658877E+01  0.51100000000E-03 0. -1.
        -11    1    3    3    0    0 -0.11095216916E+02  0.14732438061E+02 -0.10354392506E+02  0.21150934118E+02  0.51100000000E-03 0.  1.
        -12    1    3    3    0    0  0.37114522769E+01  0.16049165145E+02 -0.14083051563E+02  0.21672169278E+02  0.00000000000E+00 0.  1.
</event>
<event>
 7    1  0.4723144E-009  0.4778727E+02  0.7816164E-02  0.1312668E+00
        -11   -1    0    0    0    0  0.00000000000E+00  0.00000000000E+00  0.45593999997E+02  0.45594000000E+02  0.51100000000E-03 0. -1.
         11   -1    0    0    0    0 -0.00000000000E+00 -0.00000000000E+00 -0.45593999997E+02  0.45594000000E+02  0.51100000000E-03 0.  1.
    9900012    2    1    2    0    0 -0.43167793965E+02  0.44185086458E+01  0.80108187675E+00  0.47787269746E+02  0.19999994079E+02 0.  0.
         12    1    1    2    0    0  0.43167793965E+02 -0.44185086458E+01 -0.80108187675E+00  0.43400730254E+02  0.00000000000E+00 0. -1.
         11    1    3    3    0    0 -0.19802457153E+02 -0.57588149448E+01 -0.24844546199E+00  0.20624329911E+02  0.51100000000E-03 0. -1.
        -11    1    3    3    0    0 -0.17992885286E+02  0.93479550599E+01 -0.28461632057E+01  0.20475078265E+02  0.51100000000E-03 0.  1.
         12    1    3    3    0    0 -0.53724515256E+01  0.82936853072E+00  0.38956905444E+01  0.66878615695E+01  0.00000000000E+00 0. -1.
</event>
<event>
 7    1  0.4723144E-009  0.4778728E+02  0.7816164E-02  0.1312668E+00
        -11   -1    0    0    0    0  0.00000000000E+00  0.00000000000E+00  0.45593999997E+02  0.45594000000E+02  0.51100000000E-03 0. -1.
         11   -1    0    0    0    0 -0.00000000000E+00 -0.00000000000E+00 -0.45593999997E+02  0.45594000000E+02  0.51100000000E-03 0.  1.
    9900012    2    1    2    0    0  0.36229984056E+02 -0.36132344214E+01  0.23621082875E+02  0.47787276920E+02  0.20000026788E+02 0.  0.
         12    1    1    2    0    0 -0.36229984056E+02  0.36132344214E+01 -0.23621082875E+02  0.43400723080E+02  0.00000000000E+00 0. -1.
         11    1    3    3    0    0  0.11564151972E+02 -0.64180916608E+01  0.49919116173E+01  0.14136502158E+02  0.51100000000E-03 0. -1.
        -11    1    3    3    0    0  0.11258627980E+02  0.40143791758E+01  0.15939016462E+02  0.19922956362E+02  0.51100000000E-03 0.  1.
        -12    1    3    3    0    0  0.13407204104E+02 -0.12095219365E+01  0.26901547962E+01  0.13727818400E+02  0.00000000000E+00 0.  1.
</event>
<event>
 7    1  0.4723144E-009  0.4778727E+02  0.7816164E-02  0.1312668E+00
        -11   -1    0    0    0    0  0.00000000000E+00  0.00000000000E+00  0.45593999997E+02  0.45594000000E+02  0.51100000000E-03 0. -1.
         11   -1    0    0    0    0 -0.00000000000E+00 -0.00000000000E+00 -0.45593999997E+02  0.45594000000E+02  0.51100000000E-03 0.  1.
    9900012    2    1    2    0    0  0.28924362108E+02 -0.67420366534E+01  0.31647269582E+02  0.47787268974E+02  0.19999990560E+02 0.  0.
         12    1    1    2    0    0 -0.28924362108E+02  0.67420366534E+01 -0.31647269582E+02  0.43400731026E+02  0.00000000000E+00 0. -1.
         11    1    3    3    0    0  0.60954291498E+01  0.48913790377E+01  0.13298863615E+02  0.15425291541E+02  0.51100000000E-03 0. -1.
        -11    1    3    3    0    0  0.11512969634E+02 -0.76937840856E+01  0.58033086404E+01  0.15014032596E+02  0.51100000000E-03 0.  1.
         12    1    3    3    0    0  0.11315963323E+02 -0.39396316055E+01  0.12545097327E+02  0.17347944837E+02  0.00000000000E+00 0. -1.
</event>
<event>
 7    1  0.4723144E-009  0.4778727E+02  0.7816164E-02  0.1312668E+00
        -11   -1    0    0    0    0  0.00000000000E+00  0.00000000000E+00  0.45593999997E+02  0.45594000000E+02  0.51100000000E-03 0. -1.
         11   -1    0    0    0    0 -0.00000000000E+00 -0.00000000000E+00 -0.45593999997E+02  0.45594000000E+02  0.51100000000E-03 0.  1.
    9900012    2    1    2    0    0 -0.18185208680E+02  0.21345762848E+02 -0.33125215118E+02  0.47787270940E+02  0.19999999523E+02 0.  0.
         12    1    1    2    0    0  0.18185208680E+02 -0.21345762848E+02  0.33125215118E+02  0.43400729060E+02  0.00000000000E+00 0. -1.
         11    1    3    3    0    0 -0.42490633370E+01  0.16535739815E+00 -0.46381767283E+01  0.62924213094E+01  0.51100000000E-03 0. -1.
        -11    1    3    3    0    0  0.35770747063E+01  0.19968743215E+01 -0.51068444207E+01  0.65469711095E+01  0.51100000000E-03 0.  1.
        -12    1    3    3    0    0 -0.17513220050E+02  0.19183531129E+02 -0.23380193969E+02  0.34947878521E+02  0.00000000000E+00 0.  1.
</event>
<event>
 7    1  0.4723144E-009  0.4778727E+02  0.7816164E-02  0.1312668E+00
        -11   -1    0    0    0    0  0.00000000000E+00  0.00000000000E+00  0.45593999997E+02  0.45594000000E+02  0.51100000000E-03 0.  1.
         11   -1    0    0    0    0 -0.00000000000E+00 -0.00000000000E+00 -0.45593999997E+02  0.45594000000E+02  0.51100000000E-03 0. -1.
    9900012    2    1    2    0    0 -0.58503540350E+01  0.18285647114E+02  0.38923409001E+02  0.47787270732E+02  0.19999998575E+02 0.  0.
         12    1    1    2    0    0  0.58503540350E+01 -0.18285647114E+02 -0.38923409001E+02  0.43400729268E+02  0.00000000000E+00 0. -1.
         11    1    3    3    0    0 -0.12395098570E+02  0.11580327325E+02  0.21668552740E+02  0.27518514270E+02  0.51100000000E-03 0. -1.
        -11    1    3    3    0    0  0.56270715433E+01  0.68218386586E+01  0.17202333661E+02  0.19342225841E+02  0.51100000000E-03 0.  1.
         12    1    3    3    0    0  0.91767299209E+00 -0.11651886962E+00  0.52522600052E-01  0.92653062060E+00  0.00000000000E+00 0. -1.
</event>
<event>
 7    1  0.4723144E-009  0.4778727E+02  0.7816164E-02  0.1312668E+00
        -11   -1    0    0    0    0  0.00000000000E+00  0.00000000000E+00  0.45593999997E+02  0.45594000000E+02  0.51100000000E-03 0.  1.
         11   -1    0    0    0    0 -0.00000000000E+00 -0.00000000000E+00 -0.45593999997E+02  0.45594000000E+02  0.51100000000E-03 0. -1.
    9900012    2    1    2    0    0  0.10473423515E+02 -0.23764835552E+02  0.34773021815E+02  0.47787273565E+02  0.20000011492E+02 0.  0.
         12    1    1    2    0    0 -0.10473423515E+02  0.23764835552E+02 -0.34773021815E+02  0.43400726435E+02  0.00000000000E+00 0. -1.
         11    1    3    3    0    0 -0.17616807650E+01  0.11270474749E+01  0.25611360205E+01  0.33065349091E+01  0.51100000000E-03 0. -1.
        -11    1    3    3    0    0  0.56605989909E+01 -0.22902097045E+02  0.27024827221E+02  0.35873245136E+02  0.51100000000E-03 0.  1.
        -12    1    3    3    0    0  0.65745052891E+01 -0.19897859817E+01  0.51870585736E+01  0.86074935199E+01  0.00000000000E+00 0.  1.
</event>
<event>
 7    1  0.4723144E-009  0.4778726E+02  0.7816164E-02  0.1312668E+00
        -11   -1    0    0    0    0  0.00000000000E+00  0.00000000000E+00  0.45593999997E+02  0.45594000000E+02  0.51100000000E-03 0.  1.
         11   -1    0    0    0    0 -0.00000000000E+00 -0.00000000000E+00 -0.45593999997E+02  0.45594000000E+02  0.51100000000E-03 0. -1.
    9900012    2    1    2    0    0 -0.32786299493E+02 -0.16285032911E+02  0.23312659076E+02  0.47787264931E+02  0.19999972125E+02 0.  0.
         12    1    1    2    0    0  0.32786299493E+02  0.16285032911E+02 -0.23312659076E+02  0.43400735069E+02  0.00000000000E+00 0. -1.
         11    1    3    3    0    0 -0.53036425320E+01 -0.60233063662E+01 -0.13609477257E+01  0.81400873866E+01  0.51100000000E-03 0. -1.
        -11    1    3    3    0    0 -0.15022807597E+02 -0.79258871097E+01  0.82017737116E+01  0.18861959783E+02  0.51100000000E-03 0.  1.
         12    1    3    3    0    0 -0.12459849364E+02 -0.23358394353E+01  0.16471833090E+02  0.20785217761E+02  0.00000000000E+00 0. -1.
</event>
<event>
 7    1  0.4723144E-009  0.4778727E+02  0.7816164E-02  0.1312668E+00
        -11   -1    0    0    0    0  0.00000000000E+00  0.00000000000E+00  0.45593999997E+02  0.45594000000E+02  0.51100000000E-03 0.  1.
         11   -1    0    0    0    0 -0.00000000000E+00 -0.00000000000E+00 -0.45593999997E+02  0.45594000000E+02  0.51100000000E-03 0. -1.
    9900012    2    1    2    0    0 -0.35249469545E+02 -0.21725774640E+02  0.13003420385E+02  0.47787270413E+02  0.19999997122E+02 0.  0.
         12    1    1    2    0    0  0.35249469545E+02  0.21725774640E+02 -0.13003420385E+02  0.43400729587E+02  0.00000000000E+00 0. -1.
         11    1    3    3    0    0 -0.66422731465E+01  0.31642953775E+01  0.34253356264E+01  0.81157551838E+01  0.51100000000E-03 0. -1.
        -11    1    3    3    0    0 -0.18554316525E+02 -0.14946823110E+02  0.27954138723E+01  0.23989258466E+02  0.51100000000E-03 0.  1.
        -12    1    3    3    0    0 -0.10052879874E+02 -0.99432469081E+01  0.67826708859E+01  0.15682256763E+02  0.00000000000E+00 0.  1.
</event>
<event>
 7    1  0.4723144E-009  0.4778727E+02  0.7816164E-02  0.1312668E+00
        -11   -1    0    0    0    0  0.00000000000E+00  0.00000000000E+00  0.45593999997E+02  0.45594000000E+02  0.51100000000E-03 0.  1.
         11   -1    0    0    0    0 -0.00000000000E+00 -0.00000000000E+00 -0.45593999997E+02  0.45594000000E+02  0.51100000000E-03 0. -1.
    9900012    2    1    2    0    0  0.40741436038E+02  0.13967251096E+01  0.14893204294E+02  0.47787274366E+02  0.20000015143E+02 0.  0.
         12    1    1    2    0    0 -0.40741436038E+02 -0.13967251096E+01 -0.14893204294E+02  0.43400725634E+02  0.00000000000E+00 0. -1.
         11    1    3    3    0    0  0.90391803008E+01 -0.33567828754E+01 -0.67468749675E+00  0.96659182317E+01  0.51100000000E-03 0. -1.
        -11    1    3    3    0    0  0.24723295113E+02  0.45739821212E+01  0.17784166721E+02  0.30796740411E+02  0.51100000000E-03 0.  1.
        -12    1    3    3    0    0  0.69789606239E+01  0.17952586376E+00 -0.22162749307E+01  0.73246157233E+01  0.00000000000E+00 0.  1.
</event>
<event>
 7    1  0.4723144E-009  0.4778727E+02  0.7816164E-02  0.1312668E+00
        -11   -1    0    0    0    0  0.00000000000E+00  0.00000000000E+00  0.45593999997E+02  0.45594000000E+02  0.51100000000E-03 0.  1.
         11   -1    0    0    0    0 -0.00000000000E+00 -0.00000000000E+00 -0.45593999997E+02  0.45594000000E+02  0.51100000000E-03 0. -1.
    9900012    2    1    2    0    0 -0.29516210837E+02  0.72704920809E+01  0.30976709119E+02  0.47787271145E+02  0.20000000459E+02 0.  0.
         12    1    1    2    0    0  0.29516210837E+02 -0.72704920809E+01 -0.30976709119E+02  0.43400728855E+02  0.00000000000E+00 0. -1.
         11    1    3    3    0    0 -0.49997045898E+01  0.29870723703E+01  0.14331392027E+02  0.15469597442E+02  0.51100000000E-03 0. -1.
        -11    1    3    3    0    0 -0.21262570652E+02 -0.12289789830E+01  0.12627848006E+02  0.24760247284E+02  0.51100000000E-03 0.  1.
        -12    1    3    3    0    0 -0.32539355958E+01  0.55123986936E+01  0.40174690861E+01  0.75574264188E+01  0.00000000000E+00 0.  1.
</event>
<event>
 7    1  0.4723144E-009  0.4778727E+02  0.7816164E-02  0.1312668E+00
        -11   -1    0    0    0    0  0.00000000000E+00  0.00000000000E+00  0.45593999997E+02  0.45594000000E+02  0.51100000000E-03 0.  1.
         11   -1    0    0    0    0 -0.00000000000E+00 -0.00000000000E+00 -0.45593999997E+02  0.45594000000E+02  0.51100000000E-03 0. -1.
    9900012    2    1    2    0    0 -0.38724945155E+02 -0.12390162387E+02  0.15181768488E+02  0.47787267337E+02  0.19999983096E+02 0.  0.
         12    1    1    2    0    0  0.38724945155E+02  0.12390162387E+02 -0.15181768488E+02  0.43400732663E+02  0.00000000000E+00 0. -1.
         11    1    3    3    0    0 -0.17240061029E+01 -0.15911440707E+00  0.28239568477E+01  0.33124382222E+01  0.51100000000E-03 0. -1.
        -11    1    3    3    0    0 -0.15958787159E+02  0.36310971490E+01  0.43813918575E+01  0.16942973439E+02  0.51100000000E-03 0.  1.
        -12    1    3    3    0    0 -0.21042151894E+02 -0.15862145128E+02  0.79764197829E+01  0.27531855676E+02  0.00000000000E+00 0.  1.
</event>
<event>
 7    1  0.4723144E-009  0.4778727E+02  0.7816164E-02  0.1312668E+00
        -11   -1    0    0    0    0  0.00000000000E+00  0.00000000000E+00  0.45593999997E+02  0.45594000000E+02  0.51100000000E-03 0.  1.
         11   -1    0    0    0    0 -0.00000000000E+00 -0.00000000000E+00 -0.45593999997E+02  0.45594000000E+02  0.51100000000E-03 0. -1.
    9900012    2    1    2    0    0 -0.24540994613E+02 -0.27046340119E+02  0.23449061810E+02  0.47787269243E+02  0.19999991788E+02 0.  0.
         12    1    1    2    0    0  0.24540994613E+02  0.27046340119E+02 -0.23449061810E+02  0.43400730757E+02  0.00000000000E+00 0. -1.
         11    1    3    3    0    0  0.12984653808E+01 -0.32452623941E+01  0.79635766204E-01  0.34962955350E+01  0.51100000000E-03 0. -1.
        -11    1    3    3    0    0 -0.19197887704E+02 -0.20705079868E+02  0.23831609643E+02  0.36948678502E+02  0.51100000000E-03 0.  1.
        -12    1    3    3    0    0 -0.66415722902E+01 -0.30959978570E+01 -0.46218359898E+00  0.73422952062E+01  0.00000000000E+00 0.  1.
</event>
<event>
 7    1  0.4723144E-009  0.4778733E+02  0.7816164E-02  0.1312667E+00
        -11   -1    0    0    0    0  0.00000000000E+00  0.00000000000E+00  0.45593999997E+02  0.45594000000E+02  0.51100000000E-03 0.  1.
         11   -1    0    0    0    0 -0.00000000000E+00 -0.00000000000E+00 -0.45593999997E+02  0.45594000000E+02  0.51100000000E-03 0. -1.
    9900012    2    1    2    0    0 -0.34927160363E+02 -0.40861963450E+01  0.25436482483E+02  0.47787329812E+02  0.20000267944E+02 0.  0.
         12    1    1    2    0    0  0.34927160363E+02  0.40861963450E+01 -0.25436482483E+02  0.43400670188E+02  0.00000000000E+00 0. -1.
         11    1    3    3    0    0  0.27434955422E+00 -0.39226869485E+00 -0.57087684183E+00  0.74501210494E+00  0.51100000000E-03 0. -1.
        -11    1    3    3    0    0 -0.98348349889E+01 -0.89347282839E+01  0.83241254259E+01  0.15679426429E+02  0.51100000000E-03 0.  1.
        -12    1    3    3    0    0 -0.25366674929E+02  0.52408006338E+01  0.17683233899E+02  0.31362891279E+02  0.00000000000E+00 0.  1.
</event>
<event>
 7    1  0.4723144E-009  0.4778727E+02  0.7816164E-02  0.1312668E+00
        -11   -1    0    0    0    0  0.00000000000E+00  0.00000000000E+00  0.45593999997E+02  0.45594000000E+02  0.51100000000E-03 0. -1.
         11   -1    0    0    0    0 -0.00000000000E+00 -0.00000000000E+00 -0.45593999997E+02  0.45594000000E+02  0.51100000000E-03 0.  1.
    9900012    2    1    2    0    0  0.62529412394E+01  0.15656134006E+02 -0.39992614840E+02  0.47787273648E+02  0.20000011872E+02 0.  0.
         12    1    1    2    0    0 -0.62529412394E+01 -0.15656134006E+02  0.39992614840E+02  0.43400726352E+02  0.00000000000E+00 0. -1.
         11    1    3    3    0    0  0.12143446472E+02  0.13779123045E+02 -0.26815835116E+02  0.32502562012E+02  0.51100000000E-03 0. -1.
        -11    1    3    3    0    0 -0.50954986420E+01  0.96867270979E+00 -0.56819972877E+01  0.76933430099E+01  0.51100000000E-03 0.  1.
        -12    1    3    3    0    0 -0.79500659088E+00  0.90833825069E+00 -0.74947824356E+01  0.75913686259E+01  0.00000000000E+00 0.  1.
</event>
<event>
 7    1  0.4723144E-009  0.4778728E+02  0.7816164E-02  0.1312668E+00
        -11   -1    0    0    0    0  0.00000000000E+00  0.00000000000E+00  0.45593999997E+02  0.45594000000E+02  0.51100000000E-03 0.  1.
         11   -1    0    0    0    0 -0.00000000000E+00 -0.00000000000E+00 -0.45593999997E+02  0.45594000000E+02  0.51100000000E-03 0. -1.
    9900012    2    1    2    0    0 -0.84965712082E+01  0.42303809822E+02  0.46710571336E+01  0.47787276245E+02  0.20000023710E+02 0.  0.
         12    1    1    2    0    0  0.84965712082E+01 -0.42303809822E+02 -0.46710571336E+01  0.43400723755E+02  0.00000000000E+00 0. -1.
         11    1    3    3    0    0  0.44330944265E+01  0.12761784818E+02  0.17680409733E+01  0.13625030168E+02  0.51100000000E-03 0. -1.
        -11    1    3    3    0    0  0.17447967461E+01  0.61711121760E+01 -0.89059728948E-02  0.64130352214E+01  0.51100000000E-03 0.  1.
         12    1    3    3    0    0 -0.14674462381E+02  0.23370912828E+02  0.29119221332E+01  0.27749210856E+02  0.00000000000E+00 0. -1.
</event>
<event>
 7    1  0.4723144E-009  0.4778728E+02  0.7816164E-02  0.1312668E+00
        -11   -1    0    0    0    0  0.00000000000E+00  0.00000000000E+00  0.45593999997E+02  0.45594000000E+02  0.51100000000E-03 0. -1.
         11   -1    0    0    0    0 -0.00000000000E+00 -0.00000000000E+00 -0.45593999997E+02  0.45594000000E+02  0.51100000000E-03 0.  1.
    9900012    2    1    2    0    0  0.26999546679E+02 -0.12277344359E+01 -0.33957912042E+02  0.47787278313E+02  0.20000033139E+02 0.  0.
         12    1    1    2    0    0 -0.26999546679E+02  0.12277344359E+01  0.33957912042E+02  0.43400721687E+02  0.00000000000E+00 0. -1.
         11    1    3    3    0    0  0.35800358352E+01 -0.77261470287E+01 -0.51950043617E+01  0.99748721831E+01  0.51100000000E-03 0. -1.
        -11    1    3    3    0    0  0.16652332833E+02  0.32595811568E+01 -0.18551360143E+02  0.25141161897E+02  0.51100000000E-03 0.  1.
         12    1    3    3    0    0  0.67671780111E+01  0.32388314360E+01 -0.10211547537E+02  0.12671244233E+02  0.00000000000E+00 0. -1.
</event>
<event>
 7    1  0.4723144E-009  0.4778727E+02  0.7816164E-02  0.1312668E+00
        -11   -1    0    0    0    0  0.00000000000E+00  0.00000000000E+00  0.45593999997E+02  0.45594000000E+02  0.51100000000E-03 0.  1.
         11   -1    0    0    0    0 -0.00000000000E+00 -0.00000000000E+00 -0.45593999997E+02  0.45594000000E+02  0.51100000000E-03 0. -1.
    9900012    2    1    2    0    0  0.82219420838E+00  0.36501556686E+02  0.23464517142E+02  0.47787271797E+02  0.20000003433E+02 0.  0.
         12    1    1    2    0    0 -0.82219420838E+00 -0.36501556686E+02 -0.23464517142E+02  0.43400728203E+02  0.00000000000E+00 0. -1.
         11    1    3    3    0    0 -0.48556444949E+01  0.10743520973E+02  0.58732247034E+01  0.13171761273E+02  0.51100000000E-03 0. -1.
        -11    1    3    3    0    0  0.50588425725E+01  0.60280667091E+01 -0.43764076155E+00  0.78816880247E+01  0.51100000000E-03 0.  1.
        -12    1    3    3    0    0  0.61899613078E+00  0.19729969004E+02  0.18028933200E+02  0.26733822500E+02  0.00000000000E+00 0.  1.
</event>
<event>
 7    1  0.4723144E-009  0.4778727E+02  0.7816164E-02  0.1312668E+00
        -11   -1    0    0    0    0  0.00000000000E+00  0.00000000000E+00  0.45593999997E+02  0.45594000000E+02  0.51100000000E-03 0. -1.
         11   -1    0    0    0    0 -0.00000000000E+00 -0.00000000000E+00 -0.45593999997E+02  0.45594000000E+02  0.51100000000E-03 0.  1.
    9900012    2    1    2    0    0  0.29332756314E+02 -0.31886847627E+02  0.25380130433E+01  0.47787272417E+02  0.20000006257E+02 0.  0.
         12    1    1    2    0    0 -0.29332756314E+02  0.31886847627E+02 -0.25380130433E+01  0.43400727583E+02  0.00000000000E+00 0. -1.
         11    1    3    3    0    0  0.47204300849E+01  0.60294814326E+00  0.19506065691E+01  0.51430412110E+01  0.51100000000E-03 0. -1.
        -11    1    3    3    0    0  0.25030566803E+02 -0.28578698687E+02 -0.18175629742E+01  0.38033864233E+02  0.51100000000E-03 0.  1.
        -12    1    3    3    0    0 -0.41824057348E+00 -0.39110970832E+01  0.24049694484E+01  0.46103669723E+01  0.00000000000E+00 0.  1.
</event>
<event>
 7    1  0.4723144E-009  0.4778727E+02  0.7816164E-02  0.1312668E+00
        -11   -1    0    0    0    0  0.00000000000E+00  0.00000000000E+00  0.45593999997E+02  0.45594000000E+02  0.51100000000E-03 0.  1.
         11   -1    0    0    0    0 -0.00000000000E+00 -0.00000000000E+00 -0.45593999997E+02  0.45594000000E+02  0.51100000000E-03 0. -1.
    9900012    2    1    2    0    0  0.20752803509E+02 -0.27964386358E+02  0.25902468655E+02  0.47787266823E+02  0.19999980751E+02 0.  0.
         12    1    1    2    0    0 -0.20752803509E+02  0.27964386358E+02 -0.25902468655E+02  0.43400733177E+02  0.00000000000E+00 0. -1.
         11    1    3    3    0    0  0.70023941463E+01 -0.10582935948E+02 -0.11913055157E+01  0.12745637142E+02  0.51100000000E-03 0. -1.
        -11    1    3    3    0    0  0.30368012779E+01 -0.34135266454E+01  0.46655316875E+01  0.65300468872E+01  0.51100000000E-03 0.  1.
         12    1    3    3    0    0  0.10713608085E+02 -0.13967923765E+02  0.22428242483E+02  0.28511582794E+02  0.00000000000E+00 0. -1.
</event>
<event>
 7    1  0.4723144E-009  0.4778728E+02  0.7816164E-02  0.1312668E+00
        -11   -1    0    0    0    0  0.00000000000E+00  0.00000000000E+00  0.45593999997E+02  0.45594000000E+02  0.51100000000E-03 0.  1.
         11   -1    0    0    0    0 -0.00000000000E+00 -0.00000000000E+00 -0.45593999997E+02  0.45594000000E+02  0.51100000000E-03 0. -1.
    9900012    2    1    2    0    0 -0.29092155212E+02  0.25972367284E+02  0.19044828494E+02  0.47787275932E+02  0.20000022286E+02 0.  0.
         12    1    1    2    0    0  0.29092155212E+02 -0.25972367284E+02 -0.19044828494E+02  0.43400724068E+02  0.00000000000E+00 0. -1.
         11    1    3    3    0    0  0.81350359077E+00  0.20337105009E+01 -0.14464922212E+01  0.26249012364E+01  0.51100000000E-03 0. -1.
        -11    1    3    3    0    0 -0.20055618730E+02  0.81956541571E+01  0.11534026182E+02  0.24544456603E+02  0.51100000000E-03 0.  1.
        -12    1    3    3    0    0 -0.98500400724E+01  0.15743002626E+02  0.89572945333E+01  0.20617918093E+02  0.00000000000E+00 0.  1.
</event>
<event>
 7    1  0.4723144E-009  0.4778728E+02  0.7816164E-02  0.1312668E+00
        -11   -1    0    0    0    0  0.00000000000E+00  0.00000000000E+00  0.45593999997E+02  0.45594000000E+02  0.51100000000E-03 0. -1.
         11   -1    0    0    0    0 -0.00000000000E+00 -0.00000000000E+00 -0.45593999997E+02  0.45594000000E+02  0.51100000000E-03 0.  1.
    9900012    2    1    2    0    0  0.82300955986E+00  0.30521069500E+02  0.30844921019E+02  0.47787283637E+02  0.20000057414E+02 0.  0.
         12    1    1    2    0    0 -0.82300955986E+00 -0.30521069500E+02 -0.30844921019E+02  0.43400716363E+02  0.00000000000E+00 0. -1.
         11    1    3    3    0    0  0.18218375085E+01  0.51672018953E+01 -0.78363662249E+00  0.55347225722E+01  0.51100000000E-03 0.  1.
        -11    1    3    3    0    0 -0.31817983672E+01  0.22461168614E+02  0.20596613224E+02  0.30640633363E+02  0.51100000000E-03 0. -1.
         12    1    3    3    0    0  0.21829704185E+01  0.28926989906E+01  0.11031944418E+02  0.11611927701E+02  0.00000000000E+00 0. -1.
</event>
<event>
 7    1  0.4723144E-009  0.4778729E+02  0.7816164E-02  0.1312668E+00
        -11   -1    0    0    0    0  0.00000000000E+00  0.00000000000E+00  0.45593999997E+02  0.45594000000E+02  0.51100000000E-03 0.  1.
         11   -1    0    0    0    0 -0.00000000000E+00 -0.00000000000E+00 -0.45593999997E+02  0.45594000000E+02  0.51100000000E-03 0. -1.
    9900012    2    1    2    0    0  0.97082130197E+01 -0.28598560915E+02  0.31168808816E+02  0.47787288837E+02  0.20000081124E+02 0.  0.
         12    1    1    2    0    0 -0.97082130197E+01  0.28598560915E+02 -0.31168808816E+02  0.43400711163E+02  0.00000000000E+00 0. -1.
         11    1    3    3    0    0 -0.12107149629E+00 -0.22901776668E+02  0.25973365181E+02  0.34628337123E+02  0.51100000000E-03 0. -1.
        -11    1    3    3    0    0  0.28044595748E+01 -0.37145888249E+00 -0.17901013980E+00  0.28346111020E+01  0.51100000000E-03 0.  1.
        -12    1    3    3    0    0  0.70248249411E+01 -0.53253253641E+01  0.53744537751E+01  0.10324340612E+02  0.00000000000E+00 0.  1.
</event>
<event>
 7    1  0.4723144E-009  0.4778727E+02  0.7816164E-02  0.1312668E+00
        -11   -1    0    0    0    0  0.00000000000E+00  0.00000000000E+00  0.45593999997E+02  0.45594000000E+02  0.51100000000E-03 0.  1.
         11   -1    0    0    0    0 -0.00000000000E+00 -0.00000000000E+00 -0.45593999997E+02  0.45594000000E+02  0.51100000000E-03 0. -1.
    9900012    2    1    2    0    0 -0.36958782470E+01  0.23624350292E+02  0.36219523230E+02  0.47787270677E+02  0.19999998326E+02 0.  0.
         12    1    1    2    0    0  0.36958782470E+01 -0.23624350292E+02 -0.36219523230E+02  0.43400729323E+02  0.00000000000E+00 0. -1.
         11    1    3    3    0    0 -0.10510665032E+01  0.10425548066E+02  0.29286742794E+01  0.10879978243E+02  0.51100000000E-03 0. -1.
        -11    1    3    3    0    0 -0.52982790493E+01  0.11318296261E+02  0.23914745353E+02  0.26983154684E+02  0.51100000000E-03 0.  1.
         12    1    3    3    0    0  0.26534673056E+01  0.18805059653E+01  0.93761035972E+01  0.99241377506E+01  0.00000000000E+00 0. -1.
</event>
<event>
 7    1  0.4723144E-009  0.4778727E+02  0.7816164E-02  0.1312668E+00
        -11   -1    0    0    0    0  0.00000000000E+00  0.00000000000E+00  0.45593999997E+02  0.45594000000E+02  0.51100000000E-03 0.  1.
         11   -1    0    0    0    0 -0.00000000000E+00 -0.00000000000E+00 -0.45593999997E+02  0.45594000000E+02  0.51100000000E-03 0. -1.
    9900012    2    1    2    0    0 -0.28473101226E+02 -0.73440073629E+01  0.31921328829E+02  0.47787272221E+02  0.20000005364E+02 0.  0.
         12    1    1    2    0    0  0.28473101226E+02  0.73440073629E+01 -0.31921328829E+02  0.43400727779E+02  0.00000000000E+00 0. -1.
         11    1    3    3    0    0 -0.34969084651E+01 -0.67934949311E+01  0.43120681459E+01  0.87734756026E+01  0.51100000000E-03 0. -1.
        -11    1    3    3    0    0 -0.22882138721E+02 -0.42712717603E+01  0.22812626019E+02  0.32592206753E+02  0.51100000000E-03 0.  1.
         12    1    3    3    0    0 -0.20940540403E+01  0.37207593285E+01  0.47966346634E+01  0.64215898653E+01  0.00000000000E+00 0. -1.
</event>
<event>
 7    1  0.4723144E-009  0.4778727E+02  0.7816164E-02  0.1312668E+00
        -11   -1    0    0    0    0  0.00000000000E+00  0.00000000000E+00  0.45593999997E+02  0.45594000000E+02  0.51100000000E-03 0.  1.
         11   -1    0    0    0    0 -0.00000000000E+00 -0.00000000000E+00 -0.45593999997E+02  0.45594000000E+02  0.51100000000E-03 0. -1.
    9900012    2    1    2    0    0  0.17112109340E+01 -0.19514409256E+02  0.38728323379E+02  0.47787269094E+02  0.19999991105E+02 0.  0.
         12    1    1    2    0    0 -0.17112109340E+01  0.19514409256E+02 -0.38728323379E+02  0.43400730906E+02  0.00000000000E+00 0. -1.
         11    1    3    3    0    0  0.36967937182E+01 -0.34985372137E+01  0.23182273942E+01  0.55928726915E+01  0.51100000000E-03 0. -1.
        -11    1    3    3    0    0 -0.41833739120E+01 -0.16687978455E+02  0.35944179303E+02  0.39849382282E+02  0.51100000000E-03 0.  1.
        -12    1    3    3    0    0  0.21977911278E+01  0.67210641255E+00  0.46591668164E+00  0.23450141205E+01  0.00000000000E+00 0.  1.
</event>
<event>
 7    1  0.4723144E-009  0.4778727E+02  0.7816164E-02  0.1312668E+00
        -11   -1    0    0    0    0  0.00000000000E+00  0.00000000000E+00  0.45593999997E+02  0.45594000000E+02  0.51100000000E-03 0.  1.
         11   -1    0    0    0    0 -0.00000000000E+00 -0.00000000000E+00 -0.45593999997E+02  0.45594000000E+02  0.51100000000E-03 0. -1.
    9900012    2    1    2    0    0  0.16264905041E+02  0.17340700585E+02  0.36309450104E+02  0.47787271900E+02  0.20000003899E+02 0.  0.
         12    1    1    2    0    0 -0.16264905041E+02 -0.17340700585E+02 -0.36309450104E+02  0.43400728100E+02  0.00000000000E+00 0. -1.
         11    1    3    3    0    0  0.53745399271E+01  0.61052626496E+01  0.64384355511E+00  0.81593165298E+01  0.51100000000E-03 0. -1.
        -11    1    3    3    0    0  0.38815859574E+01  0.93946395664E+00  0.14784203783E+02  0.15314110612E+02  0.51100000000E-03 0.  1.
         12    1    3    3    0    0  0.70087791566E+01  0.10295973979E+02  0.20881402766E+02  0.24313844758E+02  0.00000000000E+00 0. -1.
</event>
<event>
 7    1  0.4723144E-009  0.4778727E+02  0.7816164E-02  0.1312668E+00
        -11   -1    0    0    0    0  0.00000000000E+00  0.00000000000E+00  0.45593999997E+02  0.45594000000E+02  0.51100000000E-03 0.  1.
         11   -1    0    0    0    0 -0.00000000000E+00 -0.00000000000E+00 -0.45593999997E+02  0.45594000000E+02  0.51100000000E-03 0. -1.
    9900012    2    1    2    0    0  0.38897703700E+02 -0.11315056467E+02 -0.15574385957E+02  0.47787270123E+02  0.19999995797E+02 0.  0.
         12    1    1    2    0    0 -0.38897703700E+02  0.11315056467E+02  0.15574385957E+02  0.43400729877E+02  0.00000000000E+00 0. -1.
         11    1    3    3    0    0  0.17593814924E+02  0.25276310617E+00 -0.11876534131E+01  0.17635666521E+02  0.51100000000E-03 0. -1.
        -11    1    3    3    0    0  0.14909200460E+02 -0.13158334862E+02 -0.11344054095E+02  0.22893527431E+02  0.51100000000E-03 0.  1.
        -12    1    3    3    0    0  0.63946883162E+01  0.15905152889E+01 -0.30426784494E+01  0.72580761701E+01  0.00000000000E+00 0.  1.
</event>
<event>
 7    1  0.4723144E-009  0.4778728E+02  0.7816164E-02  0.1312668E+00
        -11   -1    0    0    0    0  0.00000000000E+00  0.00000000000E+00  0.45593999997E+02  0.45594000000E+02  0.51100000000E-03 0. -1.
         11   -1    0    0    0    0 -0.00000000000E+00 -0.00000000000E+00 -0.45593999997E+02  0.45594000000E+02  0.51100000000E-03 0.  1.
    9900012    2    1    2    0    0  0.90969501874E+01  0.37416734519E+01 -0.42271364946E+02  0.47787275152E+02  0.20000018730E+02 0.  0.
         12    1    1    2    0    0 -0.90969501874E+01 -0.37416734519E+01  0.42271364946E+02  0.43400724848E+02  0.00000000000E+00 0. -1.
         11    1    3    3    0    0  0.15351270802E+02  0.25607405241E+01 -0.31692886119E+02  0.35308043533E+02  0.51100000000E-03 0. -1.
        -11    1    3    3    0    0 -0.31819565036E+01 -0.22401101246E+00 -0.59200722258E+01  0.67247515600E+01  0.51100000000E-03 0.  1.
         12    1    3    3    0    0 -0.30723641108E+01  0.14049439403E+01 -0.46584066003E+01  0.57544800598E+01  0.00000000000E+00 0. -1.
</event>
<event>
 7    1  0.4723144E-009  0.4778728E+02  0.7816164E-02  0.1312668E+00
        -11   -1    0    0    0    0  0.00000000000E+00  0.00000000000E+00  0.45593999997E+02  0.45594000000E+02  0.51100000000E-03 0.  1.
         11   -1    0    0    0    0 -0.00000000000E+00 -0.00000000000E+00 -0.45593999997E+02  0.45594000000E+02  0.51100000000E-03 0. -1.
    9900012    2    1    2    0    0 -0.20370729494E+02 -0.18885369221E+02  0.33346649351E+02  0.47787276347E+02  0.20000024174E+02 0.  0.
         12    1    1    2    0    0  0.20370729494E+02  0.18885369221E+02 -0.33346649351E+02  0.43400723653E+02  0.00000000000E+00 0. -1.
         11    1    3    3    0    0 -0.43946160568E+01 -0.50050176206E+01 -0.16261354925E+01  0.68561774022E+01  0.51100000000E-03 0. -1.
        -11    1    3    3    0    0 -0.52270742004E+01 -0.58737425754E+01  0.12817987014E+02  0.15037418259E+02  0.51100000000E-03 0.  1.
         12    1    3    3    0    0 -0.10749039237E+02 -0.80066090247E+01  0.22154797829E+02  0.25893680685E+02  0.00000000000E+00 0. -1.
</event>
<event>
 7    1  0.4723144E-009  0.4778727E+02  0.7816164E-02  0.1312668E+00
        -11   -1    0    0    0    0  0.00000000000E+00  0.00000000000E+00  0.45593999997E+02  0.45594000000E+02  0.51100000000E-03 0. -1.
         11   -1    0    0    0    0 -0.00000000000E+00 -0.00000000000E+00 -0.45593999997E+02  0.45594000000E+02  0.51100000000E-03 0.  1.
    9900012    2    1    2    0    0  0.32991308363E+02  0.87533181353E+01 -0.26806270651E+02  0.47787272448E+02  0.20000006398E+02 0.  0.
         12    1    1    2    0    0 -0.32991308363E+02 -0.87533181353E+01  0.26806270651E+02  0.43400727552E+02  0.00000000000E+00 0. -1.
         11    1    3    3    0    0 -0.12885814196E+01  0.60347633652E+00  0.82190446658E+00  0.16432142213E+01  0.51100000000E-03 0. -1.
        -11    1    3    3    0    0  0.31654984766E+02  0.41023285490E+01 -0.25572739216E+02  0.40900270798E+02  0.51100000000E-03 0.  1.
        -12    1    3    3    0    0  0.26249050168E+01  0.40475132497E+01 -0.20554359010E+01  0.52437874287E+01  0.00000000000E+00 0.  1.
</event>
<event>
 7    1  0.4723144E-009  0.4778729E+02  0.7816164E-02  0.1312668E+00
        -11   -1    0    0    0    0  0.00000000000E+00  0.00000000000E+00  0.45593999997E+02  0.45594000000E+02  0.51100000000E-03 0. -1.
         11   -1    0    0    0    0 -0.00000000000E+00 -0.00000000000E+00 -0.45593999997E+02  0.45594000000E+02  0.51100000000E-03 0.  1.
    9900012    2    1    2    0    0 -0.33323985670E+02 -0.23100237180E+02 -0.15476206681E+02  0.47787286274E+02  0.20000069437E+02 0.  0.
         12    1    1    2    0    0  0.33323985670E+02  0.23100237180E+02  0.15476206681E+02  0.43400713726E+02  0.00000000000E+00 0. -1.
         11    1    3    3    0    0 -0.11891777859E+01 -0.88476571705E+01 -0.33874771797E+01  0.95483078667E+01  0.51100000000E-03 0. -1.
        -11    1    3    3    0    0 -0.13125924581E+02 -0.46057482822E+01 -0.37422604589E+00  0.13915561748E+02  0.51100000000E-03 0.  1.
         12    1    3    3    0    0 -0.19008883303E+02 -0.96468317272E+01 -0.11714503456E+02  0.24323416660E+02  0.00000000000E+00 0. -1.
</event>
<event>
 7    1  0.4723144E-009  0.4778727E+02  0.7816164E-02  0.1312668E+00
        -11   -1    0    0    0    0  0.00000000000E+00  0.00000000000E+00  0.45593999997E+02  0.45594000000E+02  0.51100000000E-03 0.  1.
         11   -1    0    0    0    0 -0.00000000000E+00 -0.00000000000E+00 -0.45593999997E+02  0.45594000000E+02  0.51100000000E-03 0. -1.
    9900012    2    1    2    0    0  0.11632851826E+02  0.41713715427E+02 -0.28751250458E+01  0.47787266823E+02  0.19999980752E+02 0.  0.
         12    1    1    2    0    0 -0.11632851826E+02 -0.41713715427E+02  0.28751250458E+01  0.43400733177E+02  0.00000000000E+00 0. -1.
         11    1    3    3    0    0 -0.15478227851E+01  0.45511420056E+01  0.41386516396E+01  0.63432709688E+01  0.51100000000E-03 0. -1.
        -11    1    3    3    0    0  0.99516564797E+01  0.33546756565E+02 -0.29456893708E+01  0.35115487022E+02  0.51100000000E-03 0.  1.
         12    1    3    3    0    0  0.32290181313E+01  0.36158168565E+01 -0.40680873145E+01  0.63285088315E+01  0.00000000000E+00 0. -1.
</event>
<event>
 7    1  0.4723144E-009  0.4778727E+02  0.7816164E-02  0.1312668E+00
        -11   -1    0    0    0    0  0.00000000000E+00  0.00000000000E+00  0.45593999997E+02  0.45594000000E+02  0.51100000000E-03 0. -1.
         11   -1    0    0    0    0 -0.00000000000E+00 -0.00000000000E+00 -0.45593999997E+02  0.45594000000E+02  0.51100000000E-03 0.  1.
    9900012    2    1    2    0    0 -0.12847659290E+02  0.32797218168E+02 -0.25355538164E+02  0.47787272076E+02  0.20000004702E+02 0.  0.
         12    1    1    2    0    0  0.12847659290E+02 -0.32797218168E+02  0.25355538164E+02  0.43400727924E+02  0.00000000000E+00 0. -1.
         11    1    3    3    0    0 -0.58592201404E+01  0.93201289157E+01 -0.19006622135E+01  0.11171740275E+02  0.51100000000E-03 0. -1.
        -11    1    3    3    0    0 -0.31708522496E+01  0.15188650613E+02 -0.22649780737E+02  0.27454725989E+02  0.51100000000E-03 0.  1.
        -12    1    3    3    0    0 -0.38175869001E+01  0.82884386396E+01 -0.80509521301E+00  0.91608058119E+01  0.00000000000E+00 0.  1.
</event>
<event>
 7    1  0.4723144E-009  0.4778727E+02  0.7816164E-02  0.1312668E+00
        -11   -1    0    0    0    0  0.00000000000E+00  0.00000000000E+00  0.45593999997E+02  0.45594000000E+02  0.51100000000E-03 0.  1.
         11   -1    0    0    0    0 -0.00000000000E+00 -0.00000000000E+00 -0.45593999997E+02  0.45594000000E+02  0.51100000000E-03 0. -1.
    9900012    2    1    2    0    0 -0.93282931912E+01 -0.20045831069E+02  0.37346631416E+02  0.47787271029E+02  0.19999999930E+02 0.  0.
         12    1    1    2    0    0  0.93282931912E+01  0.20045831069E+02 -0.37346631416E+02  0.43400728971E+02  0.00000000000E+00 0. -1.
         11    1    3    3    0    0  0.15271525588E+01 -0.69798015094E+00  0.42808136229E+01  0.45983406533E+01  0.51100000000E-03 0. -1.
        -11    1    3    3    0    0 -0.14984726731E+01 -0.12212265782E+02  0.60274382214E+01  0.13700907549E+02  0.51100000000E-03 0.  1.
        -12    1    3    3    0    0 -0.93569730770E+01 -0.71355851354E+01  0.27038379571E+02  0.29488022827E+02  0.00000000000E+00 0.  1.
</event>
<event>
 7    1  0.4723144E-009  0.4778727E+02  0.7816164E-02  0.1312668E+00
        -11   -1    0    0    0    0  0.00000000000E+00  0.00000000000E+00  0.45593999997E+02  0.45594000000E+02  0.51100000000E-03 0.  1.
         11   -1    0    0    0    0 -0.00000000000E+00 -0.00000000000E+00 -0.45593999997E+02  0.45594000000E+02  0.51100000000E-03 0. -1.
    9900012    2    1    2    0    0 -0.30558131268E+02  0.32118427286E+01  0.30651397794E+02  0.47787268358E+02  0.19999987751E+02 0.  0.
         12    1    1    2    0    0  0.30558131268E+02 -0.32118427286E+01 -0.30651397794E+02  0.43400731642E+02  0.00000000000E+00 0. -1.
         11    1    3    3    0    0 -0.16222973867E+02 -0.14815393402E+01  0.27044405098E+02  0.31571817928E+02  0.51100000000E-03 0. -1.
        -11    1    3    3    0    0 -0.12765369639E+02  0.27207205278E+01  0.40280173622E+01  0.13659498759E+02  0.51100000000E-03 0.  1.
         12    1    3    3    0    0 -0.15697877619E+01  0.19726615411E+01 -0.42102466638E+00  0.25559516707E+01  0.00000000000E+00 0. -1.
</event>
<event>
 7    1  0.4723144E-009  0.4778730E+02  0.7816164E-02  0.1312668E+00
        -11   -1    0    0    0    0  0.00000000000E+00  0.00000000000E+00  0.45593999997E+02  0.45594000000E+02  0.51100000000E-03 0.  1.
         11   -1    0    0    0    0 -0.00000000000E+00 -0.00000000000E+00 -0.45593999997E+02  0.45594000000E+02  0.51100000000E-03 0. -1.
    9900012    2    1    2    0    0 -0.17783681979E+02 -0.23381369365E+02  0.31947978116E+02  0.47787296275E+02  0.20000115035E+02 0.  0.
         12    1    1    2    0    0  0.17783681979E+02  0.23381369365E+02 -0.31947978116E+02  0.43400703725E+02  0.00000000000E+00 0. -1.
         11    1    3    3    0    0  0.69326265838E+00 -0.32891462086E+01  0.27679915468E+01  0.43544084971E+01  0.51100000000E-03 0. -1.
        -11    1    3    3    0    0 -0.12338056759E+02 -0.22271129811E+02  0.25064867248E+02  0.35727838419E+02  0.51100000000E-03 0.  1.
        -12    1    3    3    0    0 -0.61388878786E+01  0.21789066544E+01  0.41151193215E+01  0.77050493590E+01  0.00000000000E+00 0.  1.
</event>
<event>
 7    1  0.4723144E-009  0.4778727E+02  0.7816164E-02  0.1312668E+00
        -11   -1    0    0    0    0  0.00000000000E+00  0.00000000000E+00  0.45593999997E+02  0.45594000000E+02  0.51100000000E-03 0.  1.
         11   -1    0    0    0    0 -0.00000000000E+00 -0.00000000000E+00 -0.45593999997E+02  0.45594000000E+02  0.51100000000E-03 0. -1.
    9900012    2    1    2    0    0  0.85977439567E+01 -0.31642923239E+02  0.28432856478E+02  0.47787272820E+02  0.20000008095E+02 0.  0.
         12    1    1    2    0    0 -0.85977439567E+01  0.31642923239E+02 -0.28432856478E+02  0.43400727180E+02  0.00000000000E+00 0. -1.
         11    1    3    3    0    0 -0.40282454585E+01 -0.66584299316E+01  0.12392243579E+01  0.78801730881E+01  0.51100000000E-03 0. -1.
        -11    1    3    3    0    0  0.25588954688E+01 -0.10733820193E+02  0.63747638924E+01  0.12743643784E+02  0.51100000000E-03 0.  1.
         12    1    3    3    0    0  0.10067093946E+02 -0.14250673115E+02  0.20818868228E+02  0.27163455948E+02  0.00000000000E+00 0. -1.
</event>
<event>
 7    1  0.4723144E-009  0.4778727E+02  0.7816164E-02  0.1312668E+00
        -11   -1    0    0    0    0  0.00000000000E+00  0.00000000000E+00  0.45593999997E+02  0.45594000000E+02  0.51100000000E-03 0.  1.
         11   -1    0    0    0    0 -0.00000000000E+00 -0.00000000000E+00 -0.45593999997E+02  0.45594000000E+02  0.51100000000E-03 0. -1.
    9900012    2    1    2    0    0  0.16757986036E+02 -0.97580670835E+01  0.38827479236E+02  0.47787272898E+02  0.20000008451E+02 0.  0.
         12    1    1    2    0    0 -0.16757986036E+02  0.97580670835E+01 -0.38827479236E+02  0.43400727102E+02  0.00000000000E+00 0. -1.
         11    1    3    3    0    0 -0.74401700911E+00 -0.70136095695E+00  0.22107920051E+01  0.24357894106E+01  0.51100000000E-03 0. -1.
        -11    1    3    3    0    0 -0.79320187115E+00  0.35803131959E+01  0.10104676575E+02  0.10749525605E+02  0.51100000000E-03 0.  1.
        -12    1    3    3    0    0  0.18295204916E+02 -0.12637019322E+02  0.26512010656E+02  0.34601957883E+02  0.00000000000E+00 0.  1.
</event>
<event>
 7    1  0.4723144E-009  0.4778726E+02  0.7816164E-02  0.1312668E+00
        -11   -1    0    0    0    0  0.00000000000E+00  0.00000000000E+00  0.45593999997E+02  0.45594000000E+02  0.51100000000E-03 0.  1.
         11   -1    0    0    0    0 -0.00000000000E+00 -0.00000000000E+00 -0.45593999997E+02  0.45594000000E+02  0.51100000000E-03 0. -1.
    9900012    2    1    2    0    0  0.36102156198E+01  0.34311593925E+02  0.26330687862E+02  0.47787259709E+02  0.19999948319E+02 0.  0.
         12    1    1    2    0    0 -0.36102156198E+01 -0.34311593925E+02 -0.26330687862E+02  0.43400740291E+02  0.00000000000E+00 0. -1.
         11    1    3    3    0    0 -0.30862788613E+01  0.93323054477E+01  0.10373123541E+02  0.14290512043E+02  0.51100000000E-03 0.  1.
        -11    1    3    3    0    0  0.99754140977E+01  0.16733268157E+02  0.14968859682E+02  0.24567822656E+02  0.51100000000E-03 0. -1.
        -12    1    3    3    0    0 -0.32789196166E+01  0.82460203205E+01  0.98870463834E+00  0.89289250103E+01  0.00000000000E+00 0.  1.
</event>
<event>
 7    1  0.4723144E-009  0.4778728E+02  0.7816164E-02  0.1312668E+00
        -11   -1    0    0    0    0  0.00000000000E+00  0.00000000000E+00  0.45593999997E+02  0.45594000000E+02  0.51100000000E-03 0.  1.
         11   -1    0    0    0    0 -0.00000000000E+00 -0.00000000000E+00 -0.45593999997E+02  0.45594000000E+02  0.51100000000E-03 0. -1.
    9900012    2    1    2    0    0  0.37917473402E+02  0.12356137456E+02  0.17123488752E+02  0.47787276630E+02  0.20000025466E+02 0.  0.
         12    1    1    2    0    0 -0.37917473402E+02 -0.12356137456E+02 -0.17123488752E+02  0.43400723370E+02  0.00000000000E+00 0. -1.
         11    1    3    3    0    0  0.98450480538E+01 -0.25125088040E+01  0.85283963214E+00  0.10196323228E+02  0.51100000000E-03 0. -1.
        -11    1    3    3    0    0  0.17746648550E+02  0.15415659834E+02  0.10452994928E+02  0.25726468978E+02  0.51100000000E-03 0.  1.
        -12    1    3    3    0    0  0.10325776798E+02 -0.54701357355E+00  0.58176541924E+01  0.11864484423E+02  0.00000000000E+00 0.  1.
</event>
<event>
 7    1  0.4723144E-009  0.4778727E+02  0.7816164E-02  0.1312668E+00
        -11   -1    0    0    0    0  0.00000000000E+00  0.00000000000E+00  0.45593999997E+02  0.45594000000E+02  0.51100000000E-03 0.  1.
         11   -1    0    0    0    0 -0.00000000000E+00 -0.00000000000E+00 -0.45593999997E+02  0.45594000000E+02  0.51100000000E-03 0. -1.
    9900012    2    1    2    0    0  0.20725209312E+02 -0.32473491242E+02  0.19989030422E+02  0.47787271070E+02  0.20000000116E+02 0.  0.
         12    1    1    2    0    0 -0.20725209312E+02  0.32473491242E+02 -0.19989030422E+02  0.43400728930E+02  0.00000000000E+00 0. -1.
         11    1    3    3    0    0 -0.24878615824E+01 -0.11466047422E+02  0.52728615507E+01  0.12863233183E+02  0.51100000000E-03 0. -1.
        -11    1    3    3    0    0  0.10085998945E+02 -0.10595553678E+02  0.92155635965E+01  0.17289295681E+02  0.51100000000E-03 0.  1.
         12    1    3    3    0    0  0.13127071950E+02 -0.10411890142E+02  0.55006052744E+01  0.17634742206E+02  0.00000000000E+00 0. -1.
</event>
<event>
 7    1  0.4723144E-009  0.4778729E+02  0.7816164E-02  0.1312668E+00
        -11   -1    0    0    0    0  0.00000000000E+00  0.00000000000E+00  0.45593999997E+02  0.45594000000E+02  0.51100000000E-03 0.  1.
         11   -1    0    0    0    0 -0.00000000000E+00 -0.00000000000E+00 -0.45593999997E+02  0.45594000000E+02  0.51100000000E-03 0. -1.
    9900012    2    1    2    0    0  0.25953481011E+02 -0.41955800755E+00  0.34783074729E+02  0.47787291560E+02  0.20000093540E+02 0.  0.
         12    1    1    2    0    0 -0.25953481011E+02  0.41955800755E+00 -0.34783074729E+02  0.43400708440E+02  0.00000000000E+00 0. -1.
         11    1    3    3    0    0  0.21877985996E+02  0.60772532109E+01  0.17209900192E+02  0.28491401207E+02  0.51100000000E-03 0. -1.
        -11    1    3    3    0    0  0.61607692053E+00 -0.29428384445E+01  0.63641296823E+01  0.70386075155E+01  0.51100000000E-03 0.  1.
         12    1    3    3    0    0  0.34594180938E+01 -0.35539727739E+01  0.11209044855E+02  0.12257282838E+02  0.00000000000E+00 0. -1.
</event>
<event>
 7    1  0.4723144E-009  0.4778727E+02  0.7816164E-02  0.1312668E+00
        -11   -1    0    0    0    0  0.00000000000E+00  0.00000000000E+00  0.45593999997E+02  0.45594000000E+02  0.51100000000E-03 0.  1.
         11   -1    0    0    0    0 -0.00000000000E+00 -0.00000000000E+00 -0.45593999997E+02  0.45594000000E+02  0.51100000000E-03 0. -1.
    9900012    2    1    2    0    0 -0.31784348093E+02  0.27337229730E+02 -0.11227412823E+02  0.47787266000E+02  0.19999977001E+02 0.  0.
         12    1    1    2    0    0  0.31784348093E+02 -0.27337229730E+02  0.11227412823E+02  0.43400734000E+02  0.00000000000E+00 0. -1.
         11    1    3    3    0    0 -0.11365745720E+02  0.12277958706E+02 -0.81822602367E+01  0.18624656469E+02  0.51100000000E-03 0. -1.
        -11    1    3    3    0    0 -0.24854548044E+01 -0.27060242751E+01  0.35674446879E+00  0.36915199903E+01  0.51100000000E-03 0.  1.
        -12    1    3    3    0    0 -0.17933147569E+02  0.17765295300E+02 -0.34018970548E+01  0.25471089541E+02  0.00000000000E+00 0.  1.
</event>
<event>
 7    1  0.4723144E-009  0.4778727E+02  0.7816164E-02  0.1312668E+00
        -11   -1    0    0    0    0  0.00000000000E+00  0.00000000000E+00  0.45593999997E+02  0.45594000000E+02  0.51100000000E-03 0.  1.
         11   -1    0    0    0    0 -0.00000000000E+00 -0.00000000000E+00 -0.45593999997E+02  0.45594000000E+02  0.51100000000E-03 0. -1.
    9900012    2    1    2    0    0  0.99631182664E+01 -0.38949129804E+02 -0.16350072235E+02  0.47787270742E+02  0.19999998620E+02 0.  0.
         12    1    1    2    0    0 -0.99631182664E+01  0.38949129804E+02  0.16350072235E+02  0.43400729258E+02  0.00000000000E+00 0. -1.
         11    1    3    3    0    0  0.71948067676E+01 -0.21119064684E+02 -0.15512442529E+01  0.22364849575E+02  0.51100000000E-03 0. -1.
        -11    1    3    3    0    0  0.63682739795E+01 -0.12705577841E+02 -0.11831244312E+02  0.18492294719E+02  0.51100000000E-03 0.  1.
         12    1    3    3    0    0 -0.35999624807E+01 -0.51244872792E+01 -0.29675836697E+01  0.69301264472E+01  0.00000000000E+00 0. -1.
</event>
<event>
 7    1  0.4723144E-009  0.4778727E+02  0.7816164E-02  0.1312668E+00
        -11   -1    0    0    0    0  0.00000000000E+00  0.00000000000E+00  0.45593999997E+02  0.45594000000E+02  0.51100000000E-03 0.  1.
         11   -1    0    0    0    0 -0.00000000000E+00 -0.00000000000E+00 -0.45593999997E+02  0.45594000000E+02  0.51100000000E-03 0. -1.
    9900012    2    1    2    0    0 -0.40063857167E+01 -0.84418711099E+01  0.42382861627E+02  0.47787271042E+02  0.19999999990E+02 0.  0.
         12    1    1    2    0    0  0.40063857167E+01  0.84418711099E+01 -0.42382861627E+02  0.43400728958E+02  0.00000000000E+00 0. -1.
         11    1    3    3    0    0  0.22289818059E+01  0.15726705400E+01  0.17111835086E+02  0.17327912534E+02  0.51100000000E-03 0. -1.
        -11    1    3    3    0    0 -0.13005619369E+01 -0.74856881802E+01  0.42217402180E+01  0.86919548786E+01  0.51100000000E-03 0.  1.
        -12    1    3    3    0    0 -0.49348055857E+01 -0.25288534697E+01  0.21049286323E+02  0.21767403629E+02  0.00000000000E+00 0.  1.
</event>
<event>
 7    1  0.4723144E-009  0.4778727E+02  0.7816164E-02  0.1312668E+00
        -11   -1    0    0    0    0  0.00000000000E+00  0.00000000000E+00  0.45593999997E+02  0.45594000000E+02  0.51100000000E-03 0. -1.
         11   -1    0    0    0    0 -0.00000000000E+00 -0.00000000000E+00 -0.45593999997E+02  0.45594000000E+02  0.51100000000E-03 0.  1.
    9900012    2    1    2    0    0  0.10091327503E+02  0.41720596549E+02 -0.64171891078E+01  0.47787269785E+02  0.19999994257E+02 0.  0.
         12    1    1    2    0    0 -0.10091327503E+02 -0.41720596549E+02  0.64171891078E+01  0.43400730215E+02  0.00000000000E+00 0. -1.
         11    1    3    3    0    0 -0.20181364587E+01  0.21008625402E+01  0.31405829820E+00  0.29300394288E+01  0.51100000000E-03 0. -1.
        -11    1    3    3    0    0  0.16467663010E+01  0.92775341132E+01 -0.85318938289E+01  0.12711321373E+02  0.51100000000E-03 0.  1.
        -12    1    3    3    0    0  0.10462697661E+02  0.30342199895E+02  0.18006464229E+01  0.32145908983E+02  0.00000000000E+00 0.  1.
</event>
<event>
 7    1  0.4723144E-009  0.4778729E+02  0.7816164E-02  0.1312668E+00
        -11   -1    0    0    0    0  0.00000000000E+00  0.00000000000E+00  0.45593999997E+02  0.45594000000E+02  0.51100000000E-03 0. -1.
         11   -1    0    0    0    0 -0.00000000000E+00 -0.00000000000E+00 -0.45593999997E+02  0.45594000000E+02  0.51100000000E-03 0.  1.
    9900012    2    1    2    0    0  0.25780502426E+02 -0.24102637643E+02 -0.25259651461E+02  0.47787292188E+02  0.20000096401E+02 0.  0.
         12    1    1    2    0    0 -0.25780502426E+02  0.24102637643E+02  0.25259651461E+02  0.43400707812E+02  0.00000000000E+00 0. -1.
         11    1    3    3    0    0 -0.24246726718E+01 -0.22985187764E+00 -0.19251566016E+01  0.31045285718E+01  0.51100000000E-03 0. -1.
        -11    1    3    3    0    0  0.23462291544E+02 -0.15640131158E+02 -0.20169067875E+02  0.34668200506E+02  0.51100000000E-03 0.  1.
        -12    1    3    3    0    0  0.47428835540E+01 -0.82326546072E+01 -0.31654269842E+01  0.10014563110E+02  0.00000000000E+00 0.  1.
</event>
<event>
 7    1  0.4723144E-009  0.4778727E+02  0.7816164E-02  0.1312668E+00
        -11   -1    0    0    0    0  0.00000000000E+00  0.00000000000E+00  0.45593999997E+02  0.45594000000E+02  0.51100000000E-03 0.  1.
         11   -1    0    0    0    0 -0.00000000000E+00 -0.00000000000E+00 -0.45593999997E+02  0.45594000000E+02  0.51100000000E-03 0. -1.
    9900012    2    1    2    0    0 -0.19050379872E+02  0.38480503229E+02  0.63211515399E+01  0.47787273522E+02  0.20000011295E+02 0.  0.
         12    1    1    2    0    0  0.19050379872E+02 -0.38480503229E+02 -0.63211515399E+01  0.43400726478E+02  0.00000000000E+00 0. -1.
         11    1    3    3    0    0 -0.57252448689E+00  0.85660167357E+01 -0.30910680256E+01  0.91246440371E+01  0.51100000000E-03 0. -1.
        -11    1    3    3    0    0 -0.20229261256E+02  0.28739959886E+02  0.98691664715E+01  0.36504914084E+02  0.51100000000E-03 0.  1.
        -12    1    3    3    0    0  0.17514058704E+01  0.11745266078E+01 -0.45694690597E+00  0.21577154006E+01  0.00000000000E+00 0.  1.
</event>
<event>
 7    1  0.4723144E-009  0.4778728E+02  0.7816164E-02  0.1312668E+00
        -11   -1    0    0    0    0  0.00000000000E+00  0.00000000000E+00  0.45593999997E+02  0.45594000000E+02  0.51100000000E-03 0.  1.
         11   -1    0    0    0    0 -0.00000000000E+00 -0.00000000000E+00 -0.45593999997E+02  0.45594000000E+02  0.51100000000E-03 0. -1.
    9900012    2    1    2    0    0 -0.36686568291E+01 -0.16398542804E+02  0.40015634380E+02  0.47787282911E+02  0.20000054105E+02 0.  0.
         12    1    1    2    0    0  0.36686568291E+01  0.16398542804E+02 -0.40015634380E+02  0.43400717089E+02  0.00000000000E+00 0. -1.
         11    1    3    3    0    0 -0.10014113195E+02 -0.95291620068E+01  0.21811727072E+02  0.25823222683E+02  0.51100000000E-03 0. -1.
        -11    1    3    3    0    0  0.24150319353E+01  0.16336617665E+01  0.46315003129E+01  0.54728443633E+01  0.51100000000E-03 0.  1.
         12    1    3    3    0    0  0.39304244309E+01 -0.85030425640E+01  0.13572406995E+02  0.16491215864E+02  0.00000000000E+00 0. -1.
</event>
<event>
 7    1  0.4723144E-009  0.4778727E+02  0.7816164E-02  0.1312668E+00
        -11   -1    0    0    0    0  0.00000000000E+00  0.00000000000E+00  0.45593999997E+02  0.45594000000E+02  0.51100000000E-03 0.  1.
         11   -1    0    0    0    0 -0.00000000000E+00 -0.00000000000E+00 -0.45593999997E+02  0.45594000000E+02  0.51100000000E-03 0. -1.
    9900012    2    1    2    0    0 -0.40928436352E+02  0.39546368855E+01 -0.13886959411E+02  0.47787266172E+02  0.19999977784E+02 0.  0.
         12    1    1    2    0    0  0.40928436352E+02 -0.39546368855E+01  0.13886959411E+02  0.43400733828E+02  0.00000000000E+00 0. -1.
         11    1    3    3    0    0 -0.95153271053E+01 -0.24730835801E+01  0.22000222545E+01  0.10074606220E+02  0.51100000000E-03 0. -1.
        -11    1    3    3    0    0 -0.29143282923E+02  0.91069992058E+01 -0.13694111543E+02  0.33463369006E+02  0.51100000000E-03 0.  1.
        -12    1    3    3    0    0 -0.22698263242E+01 -0.26792787403E+01 -0.23928701227E+01  0.42492909449E+01  0.00000000000E+00 0.  1.
</event>
<event>
 7    1  0.4723144E-009  0.4778727E+02  0.7816164E-02  0.1312668E+00
        -11   -1    0    0    0    0  0.00000000000E+00  0.00000000000E+00  0.45593999997E+02  0.45594000000E+02  0.51100000000E-03 0.  1.
         11   -1    0    0    0    0 -0.00000000000E+00 -0.00000000000E+00 -0.45593999997E+02  0.45594000000E+02  0.51100000000E-03 0. -1.
    9900012    2    1    2    0    0 -0.15896381160E+01  0.40345307137E+02  0.15917060199E+02  0.47787267717E+02  0.19999984827E+02 0.  0.
         12    1    1    2    0    0  0.15896381160E+01 -0.40345307137E+02 -0.15917060199E+02  0.43400732283E+02  0.00000000000E+00 0. -1.
         11    1    3    3    0    0  0.42499489691E+00  0.76880062043E+01  0.84299662529E+01  0.11417109588E+02  0.51100000000E-03 0. -1.
        -11    1    3    3    0    0  0.16817476478E+00  0.30071109095E+02  0.22773181299E+01  0.30157686634E+02  0.51100000000E-03 0.  1.
        -12    1    3    3    0    0 -0.21828077777E+01  0.25861918379E+01  0.52097758163E+01  0.62124714948E+01  0.00000000000E+00 0.  1.
</event>
<event>
 7    1  0.4723144E-009  0.4778724E+02  0.7816164E-02  0.1312668E+00
        -11   -1    0    0    0    0  0.00000000000E+00  0.00000000000E+00  0.45593999997E+02  0.45594000000E+02  0.51100000000E-03 0.  1.
         11   -1    0    0    0    0 -0.00000000000E+00 -0.00000000000E+00 -0.45593999997E+02  0.45594000000E+02  0.51100000000E-03 0. -1.
    9900012    2    1    2    0    0 -0.75939165058E+01 -0.11385736016E+02  0.41186449570E+02  0.47787237557E+02  0.19999847315E+02 0.  0.
         12    1    1    2    0    0  0.75939165058E+01  0.11385736016E+02 -0.41186449570E+02  0.43400762443E+02  0.00000000000E+00 0. -1.
         11    1    3    3    0    0 -0.43522425466E+01 -0.59689135119E+01  0.26824574524E+01  0.78591043982E+01  0.51100000000E-03 0. -1.
        -11    1    3    3    0    0 -0.25418959602E+01 -0.59529424069E+01  0.38506329236E+02  0.39046589478E+02  0.51100000000E-03 0.  1.
        -12    1    3    3    0    0 -0.69977799898E+00  0.53611990327E+00 -0.23371186032E-02  0.88154368052E+00  0.00000000000E+00 0.  1.
</event>
<event>
 7    1  0.4723144E-009  0.4778727E+02  0.7816164E-02  0.1312668E+00
        -11   -1    0    0    0    0  0.00000000000E+00  0.00000000000E+00  0.45593999997E+02  0.45594000000E+02  0.51100000000E-03 0.  1.
         11   -1    0    0    0    0 -0.00000000000E+00 -0.00000000000E+00 -0.45593999997E+02  0.45594000000E+02  0.51100000000E-03 0. -1.
    9900012    2    1    2    0    0  0.67190885542E+01 -0.19510631609E+02  0.38181310560E+02  0.47787269904E+02  0.19999994802E+02 0.  0.
         12    1    1    2    0    0 -0.67190885542E+01  0.19510631609E+02 -0.38181310560E+02  0.43400730096E+02  0.00000000000E+00 0. -1.
         11    1    3    3    0    0  0.12377320796E+01 -0.11440150458E+02  0.29587216961E+02  0.31746061661E+02  0.51100000000E-03 0. -1.
        -11    1    3    3    0    0  0.19730390022E+01 -0.20474688665E+00  0.70084900348E+01  0.72837996280E+01  0.51100000000E-03 0.  1.
         12    1    3    3    0    0  0.35083174724E+01 -0.78657342639E+01  0.15856035638E+01  0.87574086155E+01  0.00000000000E+00 0. -1.
</event>
<event>
 7    1  0.4723144E-009  0.4778727E+02  0.7816164E-02  0.1312668E+00
        -11   -1    0    0    0    0  0.00000000000E+00  0.00000000000E+00  0.45593999997E+02  0.45594000000E+02  0.51100000000E-03 0.  1.
         11   -1    0    0    0    0 -0.00000000000E+00 -0.00000000000E+00 -0.45593999997E+02  0.45594000000E+02  0.51100000000E-03 0. -1.
    9900012    2    1    2    0    0  0.12930391883E+02  0.27577157890E+02  0.30918097323E+02  0.47787269435E+02  0.19999992660E+02 0.  0.
         12    1    1    2    0    0 -0.12930391883E+02 -0.27577157890E+02 -0.30918097323E+02  0.43400730565E+02  0.00000000000E+00 0. -1.
         11    1    3    3    0    0  0.97039641462E+01  0.50383706591E+01  0.52369732119E+01  0.12123447848E+02  0.51100000000E-03 0. -1.
        -11    1    3    3    0    0  0.61814159105E+01  0.19640342723E+02  0.21866802135E+02  0.30035146093E+02  0.51100000000E-03 0.  1.
         12    1    3    3    0    0 -0.29549881737E+01  0.28984445077E+01  0.38143219766E+01  0.56286754936E+01  0.00000000000E+00 0. -1.
</event>
<event>
 7    1  0.4723144E-009  0.4778727E+02  0.7816164E-02  0.1312668E+00
        -11   -1    0    0    0    0  0.00000000000E+00  0.00000000000E+00  0.45593999997E+02  0.45594000000E+02  0.51100000000E-03 0.  1.
         11   -1    0    0    0    0 -0.00000000000E+00 -0.00000000000E+00 -0.45593999997E+02  0.45594000000E+02  0.51100000000E-03 0. -1.
    9900012    2    1    2    0    0 -0.32077851397E+02  0.71016390572E+01  0.28358451086E+02  0.47787267569E+02  0.19999984153E+02 0.  0.
         12    1    1    2    0    0  0.32077851397E+02 -0.71016390572E+01 -0.28358451086E+02  0.43400732431E+02  0.00000000000E+00 0. -1.
         11    1    3    3    0    0 -0.17369076631E+02  0.36556729495E+01  0.10113938227E+02  0.20428913687E+02  0.51100000000E-03 0. -1.
        -11    1    3    3    0    0  0.13551091178E+01  0.30236388682E+00 -0.12742899590E+01  0.18845582512E+01  0.51100000000E-03 0.  1.
        -12    1    3    3    0    0 -0.16063883884E+02  0.31436022209E+01  0.19518802819E+02  0.25473795631E+02  0.00000000000E+00 0.  1.
</event>
<event>
 7    1  0.4723144E-009  0.4778727E+02  0.7816164E-02  0.1312668E+00
        -11   -1    0    0    0    0  0.00000000000E+00  0.00000000000E+00  0.45593999997E+02  0.45594000000E+02  0.51100000000E-03 0. -1.
         11   -1    0    0    0    0 -0.00000000000E+00 -0.00000000000E+00 -0.45593999997E+02  0.45594000000E+02  0.51100000000E-03 0.  1.
    9900012    2    1    2    0    0 -0.11470613668E+02  0.12609896766E+02 -0.39912891927E+02  0.47787269404E+02  0.19999992519E+02 0.  0.
         12    1    1    2    0    0  0.11470613668E+02 -0.12609896766E+02  0.39912891927E+02  0.43400730596E+02  0.00000000000E+00 0. -1.
         11    1    3    3    0    0  0.26010294292E+01  0.17473970047E+00  0.26358883178E+00  0.26201846095E+01  0.51100000000E-03 0. -1.
        -11    1    3    3    0    0 -0.21830931309E+01 -0.12373175585E+01 -0.53630251609E+01  0.59210547622E+01  0.51100000000E-03 0.  1.
         12    1    3    3    0    0 -0.11888549966E+02  0.13672474624E+02 -0.34813455597E+02  0.39246030032E+02  0.00000000000E+00 0. -1.
</event>
<event>
 7    1  0.4723144E-009  0.4778728E+02  0.7816164E-02  0.1312668E+00
        -11   -1    0    0    0    0  0.00000000000E+00  0.00000000000E+00  0.45593999997E+02  0.45594000000E+02  0.51100000000E-03 0.  1.
         11   -1    0    0    0    0 -0.00000000000E+00 -0.00000000000E+00 -0.45593999997E+02  0.45594000000E+02  0.51100000000E-03 0. -1.
    9900012    2    1    2    0    0 -0.32410421588E+01 -0.10629517070E+01  0.43266477381E+02  0.47787282430E+02  0.20000051911E+02 0.  0.
         12    1    1    2    0    0  0.32410421588E+01  0.10629517070E+01 -0.43266477381E+02  0.43400717570E+02  0.00000000000E+00 0. -1.
         11    1    3    3    0    0 -0.38979258548E+01 -0.67848247450E+01  0.11402012178E+02  0.13828722094E+02  0.51100000000E-03 0. -1.
        -11    1    3    3    0    0 -0.30078194763E+01  0.52997575650E+01  0.27840346011E+02  0.28499460951E+02  0.51100000000E-03 0.  1.
         12    1    3    3    0    0  0.36647031723E+01  0.42211547302E+00  0.40241191929E+01  0.54590993847E+01  0.00000000000E+00 0. -1.
</event>
<event>
 7    1  0.4723144E-009  0.4778727E+02  0.7816164E-02  0.1312668E+00
        -11   -1    0    0    0    0  0.00000000000E+00  0.00000000000E+00  0.45593999997E+02  0.45594000000E+02  0.51100000000E-03 0.  1.
         11   -1    0    0    0    0 -0.00000000000E+00 -0.00000000000E+00 -0.45593999997E+02  0.45594000000E+02  0.51100000000E-03 0. -1.
    9900012    2    1    2    0    0 -0.35097211710E+02  0.21979687543E+02 -0.12988539550E+02  0.47787273118E+02  0.20000009452E+02 0.  0.
         12    1    1    2    0    0  0.35097211710E+02 -0.21979687543E+02  0.12988539550E+02  0.43400726882E+02  0.00000000000E+00 0. -1.
         11    1    3    3    0    0 -0.12051866790E+00  0.65912978319E-01 -0.55305276229E+01  0.55322333030E+01  0.51100000000E-03 0. -1.
        -11    1    3    3    0    0 -0.24439484870E+02  0.15390197523E+02 -0.75859904317E+01  0.29861243303E+02  0.51100000000E-03 0.  1.
         12    1    3    3    0    0 -0.10537208172E+02  0.65235770418E+01  0.12797850415E+00  0.12393796512E+02  0.00000000000E+00 0. -1.
</event>
<event>
 7    1  0.4723144E-009  0.4778727E+02  0.7816164E-02  0.1312668E+00
        -11   -1    0    0    0    0  0.00000000000E+00  0.00000000000E+00  0.45593999997E+02  0.45594000000E+02  0.51100000000E-03 0. -1.
         11   -1    0    0    0    0 -0.00000000000E+00 -0.00000000000E+00 -0.45593999997E+02  0.45594000000E+02  0.51100000000E-03 0.  1.
    9900012    2    1    2    0    0  0.38780628745E+02 -0.25430186221E+01 -0.19318885641E+02  0.47787268993E+02  0.19999990647E+02 0.  0.
         12    1    1    2    0    0 -0.38780628745E+02  0.25430186221E+01  0.19318885641E+02  0.43400731007E+02  0.00000000000E+00 0. -1.
         11    1    3    3    0    0 -0.19147054007E+01  0.88545439461E+00 -0.20191473990E+01  0.29201169046E+01  0.51100000000E-03 0. -1.
        -11    1    3    3    0    0  0.24889118583E+02 -0.54024388830E+01 -0.10698777901E+02  0.27624598070E+02  0.51100000000E-03 0.  1.
        -12    1    3    3    0    0  0.15806215563E+02  0.19739658663E+01 -0.66009603406E+01  0.17242554018E+02  0.00000000000E+00 0.  1.
</event>
<event>
 7    1  0.4723144E-009  0.4778727E+02  0.7816164E-02  0.1312668E+00
        -11   -1    0    0    0    0  0.00000000000E+00  0.00000000000E+00  0.45593999997E+02  0.45594000000E+02  0.51100000000E-03 0.  1.
         11   -1    0    0    0    0 -0.00000000000E+00 -0.00000000000E+00 -0.45593999997E+02  0.45594000000E+02  0.51100000000E-03 0. -1.
    9900012    2    1    2    0    0  0.38214865682E+02 -0.17833212005E+02 -0.10257881405E+02  0.47787267974E+02  0.19999985999E+02 0.  0.
         12    1    1    2    0    0 -0.38214865682E+02  0.17833212005E+02  0.10257881405E+02  0.43400732026E+02  0.00000000000E+00 0. -1.
         11    1    3    3    0    0 -0.39255943175E+00 -0.71941489000E+00  0.10211459807E+01  0.13093510096E+01  0.51100000000E-03 0. -1.
        -11    1    3    3    0    0  0.17565495664E+02 -0.93475878449E+01  0.26527884334E+01  0.20073896562E+02  0.51100000000E-03 0.  1.
        -12    1    3    3    0    0  0.21041929450E+02 -0.77662092700E+01 -0.13931815819E+02  0.26404020403E+02  0.00000000000E+00 0.  1.
</event>
<event>
 7    1  0.4723144E-009  0.4778727E+02  0.7816164E-02  0.1312668E+00
        -11   -1    0    0    0    0  0.00000000000E+00  0.00000000000E+00  0.45593999997E+02  0.45594000000E+02  0.51100000000E-03 0.  1.
         11   -1    0    0    0    0 -0.00000000000E+00 -0.00000000000E+00 -0.45593999997E+02  0.45594000000E+02  0.51100000000E-03 0. -1.
    9900012    2    1    2    0    0  0.12535247163E+02  0.13467622009E+02  0.39307940306E+02  0.47787269187E+02  0.19999991530E+02 0.  0.
         12    1    1    2    0    0 -0.12535247163E+02 -0.13467622009E+02 -0.39307940306E+02  0.43400730813E+02  0.00000000000E+00 0. -1.
         11    1    3    3    0    0 -0.36879257814E+01 -0.11229782174E+01  0.84874254663E+01  0.93219240479E+01  0.51100000000E-03 0.  1.
        -11    1    3    3    0    0 -0.61561711996E+00  0.13256978604E+01  0.11414003159E+01  0.18545226334E+01  0.51100000000E-03 0. -1.
         12    1    3    3    0    0  0.16838790065E+02  0.13264902366E+02  0.29679114524E+02  0.36610822506E+02  0.00000000000E+00 0. -1.
</event>
<event>
 7    1  0.4723144E-009  0.4778727E+02  0.7816164E-02  0.1312668E+00
        -11   -1    0    0    0    0  0.00000000000E+00  0.00000000000E+00  0.45593999997E+02  0.45594000000E+02  0.51100000000E-03 0.  1.
         11   -1    0    0    0    0 -0.00000000000E+00 -0.00000000000E+00 -0.45593999997E+02  0.45594000000E+02  0.51100000000E-03 0. -1.
    9900012    2    1    2    0    0 -0.34699195066E+00  0.40054659569E+02  0.16707102369E+02  0.47787269290E+02  0.19999992001E+02 0.  0.
         12    1    1    2    0    0  0.34699195066E+00 -0.40054659569E+02 -0.16707102369E+02  0.43400730710E+02  0.00000000000E+00 0. -1.
         11    1    3    3    0    0  0.26720465807E+01  0.17885802515E+02  0.14244927568E+02  0.23020854159E+02  0.51100000000E-03 0. -1.
        -11    1    3    3    0    0 -0.23727321342E+01  0.27204770306E+01  0.38252715374E+01  0.52596155421E+01  0.51100000000E-03 0.  1.
         12    1    3    3    0    0 -0.64630639718E+00  0.19448380023E+02 -0.13630967361E+01  0.19506799589E+02  0.00000000000E+00 0. -1.
</event>
<event>
 7    1  0.4723144E-009  0.4778727E+02  0.7816164E-02  0.1312668E+00
        -11   -1    0    0    0    0  0.00000000000E+00  0.00000000000E+00  0.45593999997E+02  0.45594000000E+02  0.51100000000E-03 0.  1.
         11   -1    0    0    0    0 -0.00000000000E+00 -0.00000000000E+00 -0.45593999997E+02  0.45594000000E+02  0.51100000000E-03 0. -1.
    9900012    2    1    2    0    0 -0.77702195593E+01 -0.87564573535E+01  0.41792001731E+02  0.47787271134E+02  0.20000000409E+02 0.  0.
         12    1    1    2    0    0  0.77702195593E+01  0.87564573535E+01 -0.41792001731E+02  0.43400728866E+02  0.00000000000E+00 0. -1.
         11    1    3    3    0    0 -0.54813755488E+01 -0.57174646442E+01  0.12998106829E+02  0.15221224040E+02  0.51100000000E-03 0. -1.
        -11    1    3    3    0    0  0.21719335535E+01  0.28478992851E+01  0.87536336607E+00  0.36870159998E+01  0.51100000000E-03 0.  1.
        -12    1    3    3    0    0 -0.44607775640E+01 -0.58868919944E+01  0.27918531536E+02  0.28879031094E+02  0.00000000000E+00 0.  1.
</event>
<event>
 7    1  0.4723144E-009  0.4778727E+02  0.7816164E-02  0.1312668E+00
        -11   -1    0    0    0    0  0.00000000000E+00  0.00000000000E+00  0.45593999997E+02  0.45594000000E+02  0.51100000000E-03 0. -1.
         11   -1    0    0    0    0 -0.00000000000E+00 -0.00000000000E+00 -0.45593999997E+02  0.45594000000E+02  0.51100000000E-03 0.  1.
    9900012    2    1    2    0    0 -0.70911926049E+01  0.42696038062E+02  0.32228934118E+01  0.47787265897E+02  0.19999976530E+02 0.  0.
         12    1    1    2    0    0  0.70911926049E+01 -0.42696038062E+02 -0.32228934118E+01  0.43400734103E+02  0.00000000000E+00 0. -1.
         11    1    3    3    0    0 -0.10275036549E+01  0.30652205653E+01  0.52906034778E+01  0.62001472801E+01  0.51100000000E-03 0. -1.
        -11    1    3    3    0    0 -0.18873060646E+01  0.34956851078E+02 -0.67976027199E-01  0.35007827446E+02  0.51100000000E-03 0.  1.
        -12    1    3    3    0    0 -0.41763828854E+01  0.46739664185E+01 -0.19997340387E+01  0.65792911710E+01  0.00000000000E+00 0.  1.
</event>
<event>
 7    1  0.4723144E-009  0.4778727E+02  0.7816164E-02  0.1312668E+00
        -11   -1    0    0    0    0  0.00000000000E+00  0.00000000000E+00  0.45593999997E+02  0.45594000000E+02  0.51100000000E-03 0.  1.
         11   -1    0    0    0    0 -0.00000000000E+00 -0.00000000000E+00 -0.45593999997E+02  0.45594000000E+02  0.51100000000E-03 0. -1.
    9900012    2    1    2    0    0 -0.10433416614E+02 -0.92062571692E+01  0.41109755257E+02  0.47787270391E+02  0.19999997020E+02 0.  0.
         12    1    1    2    0    0  0.10433416614E+02  0.92062571692E+01 -0.41109755257E+02  0.43400729609E+02  0.00000000000E+00 0. -1.
         11    1    3    3    0    0 -0.80959331724E+01  0.22811002056E+01  0.13847514863E+02  0.16201889403E+02  0.51100000000E-03 0. -1.
        -11    1    3    3    0    0  0.89076463028E+00 -0.99658285476E+01  0.25899864270E+02  0.27765341160E+02  0.51100000000E-03 0.  1.
         12    1    3    3    0    0 -0.32282480714E+01 -0.15215288272E+01  0.13623761239E+01  0.38200398278E+01  0.00000000000E+00 0. -1.
</event>
<event>
 7    1  0.4723144E-009  0.4778727E+02  0.7816164E-02  0.1312668E+00
        -11   -1    0    0    0    0  0.00000000000E+00  0.00000000000E+00  0.45593999997E+02  0.45594000000E+02  0.51100000000E-03 0.  1.
         11   -1    0    0    0    0 -0.00000000000E+00 -0.00000000000E+00 -0.45593999997E+02  0.45594000000E+02  0.51100000000E-03 0. -1.
    9900012    2    1    2    0    0  0.15803754631E+02 -0.37165810154E+02  0.15892377732E+02  0.47787265273E+02  0.19999973685E+02 0.  0.
         12    1    1    2    0    0 -0.15803754631E+02  0.37165810154E+02 -0.15892377732E+02  0.43400734727E+02  0.00000000000E+00 0. -1.
         11    1    3    3    0    0  0.46423945889E+01 -0.13422652855E+02  0.14458111316E+02  0.20267126592E+02  0.51100000000E-03 0.  1.
        -11    1    3    3    0    0  0.81509863482E+00 -0.64870231769E+01 -0.25349065599E+01  0.70122469302E+01  0.51100000000E-03 0. -1.
        -12    1    3    3    0    0  0.10346261407E+02 -0.17256134122E+02  0.39691729759E+01  0.20507891751E+02  0.00000000000E+00 0.  1.
</event>
<event>
 7    1  0.4723144E-009  0.4778727E+02  0.7816164E-02  0.1312668E+00
        -11   -1    0    0    0    0  0.00000000000E+00  0.00000000000E+00  0.45593999997E+02  0.45594000000E+02  0.51100000000E-03 0.  1.
         11   -1    0    0    0    0 -0.00000000000E+00 -0.00000000000E+00 -0.45593999997E+02  0.45594000000E+02  0.51100000000E-03 0. -1.
    9900012    2    1    2    0    0  0.28468179054E+02 -0.13338767077E+02  0.29920948429E+02  0.47787273270E+02  0.20000010148E+02 0.  0.
         12    1    1    2    0    0 -0.28468179054E+02  0.13338767077E+02 -0.29920948429E+02  0.43400726730E+02  0.00000000000E+00 0. -1.
         11    1    3    3    0    0  0.23897834389E+02 -0.96273116595E+01  0.18189784884E+02  0.31538229067E+02  0.51100000000E-03 0. -1.
        -11    1    3    3    0    0  0.38274173142E+00 -0.39283313807E+01  0.11375496385E+02  0.12040772273E+02  0.51100000000E-03 0.  1.
         12    1    3    3    0    0  0.41876029330E+01  0.21687596303E+00  0.35566716015E+00  0.42082719300E+01  0.00000000000E+00 0. -1.
</event>
<event>
 7    1  0.4765369E-009  0.4778727E+02  0.7816164E-02  0.1312668E+00
        -11   -1    0    0    0    0  0.00000000000E+00  0.00000000000E+00  0.45593999997E+02  0.45594000000E+02  0.51100000000E-03 0.  1.
         11   -1    0    0    0    0 -0.00000000000E+00 -0.00000000000E+00 -0.45593999997E+02  0.45594000000E+02  0.51100000000E-03 0. -1.
    9900012    2    1    2    0    0 -0.29363358722E+02 -0.31703917968E+02  0.40345992908E+01  0.47787271419E+02  0.20000001708E+02 0.  0.
         12    1    1    2    0    0  0.29363358722E+02  0.31703917968E+02 -0.40345992908E+01  0.43400728581E+02  0.00000000000E+00 0. -1.
         11    1    3    3    0    0 -0.22988328014E+01  0.13077600125E+01  0.12190389073E+01  0.29122027089E+01  0.51100000000E-03 0. -1.
        -11    1    3    3    0    0 -0.15423121890E+02 -0.27377434084E+02  0.48104576413E+01  0.31788946017E+02  0.51100000000E-03 0.  1.
        -12    1    3    3    0    0 -0.11641404031E+02 -0.56342438958E+01 -0.19948972578E+01  0.13086122694E+02  0.00000000000E+00 0.  1.
</event>
<event>
 7    1  0.4723144E-009  0.4778727E+02  0.7816164E-02  0.1312668E+00
        -11   -1    0    0    0    0  0.00000000000E+00  0.00000000000E+00  0.45593999997E+02  0.45594000000E+02  0.51100000000E-03 0. -1.
         11   -1    0    0    0    0 -0.00000000000E+00 -0.00000000000E+00 -0.45593999997E+02  0.45594000000E+02  0.51100000000E-03 0.  1.
    9900012    2    1    2    0    0  0.79763631602E+01 -0.74712687592E+01 -0.42002152592E+02  0.47787273641E+02  0.20000011839E+02 0.  0.
         12    1    1    2    0    0 -0.79763631602E+01  0.74712687592E+01  0.42002152592E+02  0.43400726359E+02  0.00000000000E+00 0. -1.
         11    1    3    3    0    0 -0.16881461983E+01 -0.49737888158E+01 -0.13247076553E+01  0.54169422560E+01  0.51100000000E-03 0. -1.
        -11    1    3    3    0    0  0.77197267619E+01 -0.46019816757E+01 -0.30351091453E+02  0.31653770222E+02  0.51100000000E-03 0.  1.
        -12    1    3    3    0    0  0.19447825965E+01  0.21045017324E+01 -0.10326353484E+02  0.10716561163E+02  0.00000000000E+00 0.  1.
</event>
<event>
 7    1  0.4723144E-009  0.4778726E+02  0.7816164E-02  0.1312668E+00
        -11   -1    0    0    0    0  0.00000000000E+00  0.00000000000E+00  0.45593999997E+02  0.45594000000E+02  0.51100000000E-03 0.  1.
         11   -1    0    0    0    0 -0.00000000000E+00 -0.00000000000E+00 -0.45593999997E+02  0.45594000000E+02  0.51100000000E-03 0. -1.
    9900012    2    1    2    0    0  0.11529011254E+02 -0.14203284656E+02  0.39356987067E+02  0.47787264678E+02  0.19999970971E+02 0.  0.
         12    1    1    2    0    0 -0.11529011254E+02  0.14203284656E+02 -0.39356987067E+02  0.43400735322E+02  0.00000000000E+00 0. -1.
         11    1    3    3    0    0  0.32568257582E+01 -0.68367101489E+01  0.84505696657E+01  0.11347230835E+02  0.51100000000E-03 0. -1.
        -11    1    3    3    0    0  0.60296687792E+01 -0.71074878701E+01  0.32412701490E+02  0.33726199127E+02  0.51100000000E-03 0.  1.
        -12    1    3    3    0    0  0.22425167165E+01 -0.25908663696E+00 -0.15062840886E+01  0.27138347158E+01  0.00000000000E+00 0.  1.
</event>
<event>
 7    1  0.4723144E-009  0.4778727E+02  0.7816164E-02  0.1312668E+00
        -11   -1    0    0    0    0  0.00000000000E+00  0.00000000000E+00  0.45593999997E+02  0.45594000000E+02  0.51100000000E-03 0.  1.
         11   -1    0    0    0    0 -0.00000000000E+00 -0.00000000000E+00 -0.45593999997E+02  0.45594000000E+02  0.51100000000E-03 0. -1.
    9900012    2    1    2    0    0  0.76232255365E+01  0.38209244105E+02 -0.19119709392E+02  0.47787272012E+02  0.20000004411E+02 0.  0.
         12    1    1    2    0    0 -0.76232255365E+01 -0.38209244105E+02  0.19119709392E+02  0.43400727988E+02  0.00000000000E+00 0. -1.
         11    1    3    3    0    0 -0.12337014337E+01 -0.36197353669E-01 -0.10354496346E+01  0.16110511112E+01  0.51100000000E-03 0. -1.
        -11    1    3    3    0    0  0.79054279232E+01  0.66499223501E+01 -0.77694170627E+01  0.12925985443E+02  0.51100000000E-03 0.  1.
        -12    1    3    3    0    0  0.95149904705E+00  0.31595519109E+02 -0.10314842694E+02  0.33250235458E+02  0.00000000000E+00 0.  1.
</event>
<event>
 7    1  0.4723144E-009  0.4778727E+02  0.7816164E-02  0.1312668E+00
        -11   -1    0    0    0    0  0.00000000000E+00  0.00000000000E+00  0.45593999997E+02  0.45594000000E+02  0.51100000000E-03 0. -1.
         11   -1    0    0    0    0 -0.00000000000E+00 -0.00000000000E+00 -0.45593999997E+02  0.45594000000E+02  0.51100000000E-03 0.  1.
    9900012    2    1    2    0    0  0.22164903610E+02 -0.37307468512E+02 -0.70240390979E+00  0.47787268093E+02  0.19999986544E+02 0.  0.
         12    1    1    2    0    0 -0.22164903610E+02  0.37307468512E+02  0.70240390979E+00  0.43400731907E+02  0.00000000000E+00 0. -1.
         11    1    3    3    0    0 -0.91873494131E+00 -0.78248377744E+00 -0.73356917373E+00  0.14122601560E+01  0.51100000000E-03 0. -1.
        -11    1    3    3    0    0  0.30324450809E+01 -0.13473216253E+02 -0.62909111655E+01  0.15175600250E+02  0.51100000000E-03 0.  1.
        -12    1    3    3    0    0  0.20051193471E+02 -0.23051768481E+02  0.63220764295E+01  0.31199407688E+02  0.00000000000E+00 0.  1.
</event>
<event>
 7    1  0.4723144E-009  0.4778727E+02  0.7816164E-02  0.1312668E+00
        -11   -1    0    0    0    0  0.00000000000E+00  0.00000000000E+00  0.45593999997E+02  0.45594000000E+02  0.51100000000E-03 0.  1.
         11   -1    0    0    0    0 -0.00000000000E+00 -0.00000000000E+00 -0.45593999997E+02  0.45594000000E+02  0.51100000000E-03 0. -1.
    9900012    2    1    2    0    0  0.23160366346E+02  0.60056871772E+01  0.36209839009E+02  0.47787270872E+02  0.19999999215E+02 0.  0.
         12    1    1    2    0    0 -0.23160366346E+02 -0.60056871772E+01 -0.36209839009E+02  0.43400729128E+02  0.00000000000E+00 0. -1.
         11    1    3    3    0    0  0.78468498234E+01 -0.51980277652E+01  0.38971405208E+01  0.10187259165E+02  0.51100000000E-03 0. -1.
        -11    1    3    3    0    0  0.12661981842E+02  0.99401321065E+01  0.25175641165E+02  0.29882183969E+02  0.51100000000E-03 0.  1.
         12    1    3    3    0    0  0.26515346807E+01  0.12635828360E+01  0.71370573235E+01  0.77178277375E+01  0.00000000000E+00 0. -1.
</event>
<event>
 7    1  0.4723144E-009  0.4778727E+02  0.7816164E-02  0.1312668E+00
        -11   -1    0    0    0    0  0.00000000000E+00  0.00000000000E+00  0.45593999997E+02  0.45594000000E+02  0.51100000000E-03 0.  1.
         11   -1    0    0    0    0 -0.00000000000E+00 -0.00000000000E+00 -0.45593999997E+02  0.45594000000E+02  0.51100000000E-03 0. -1.
    9900012    2    1    2    0    0  0.19702151160E+02  0.23597131660E+01  0.38598965851E+02  0.47787272226E+02  0.20000005387E+02 0.  0.
         12    1    1    2    0    0 -0.19702151160E+02 -0.23597131660E+01 -0.38598965851E+02  0.43400727774E+02  0.00000000000E+00 0. -1.
         11    1    3    3    0    0 -0.23658518998E+01 -0.21990673386E+01  0.32490402813E+01  0.45814206729E+01  0.51100000000E-03 0. -1.
        -11    1    3    3    0    0  0.32291352949E+00 -0.18270943547E+01  0.49605650727E+01  0.52962017550E+01  0.51100000000E-03 0.  1.
         12    1    3    3    0    0  0.21745089530E+02  0.63858748593E+01  0.30389360497E+02  0.37909649798E+02  0.00000000000E+00 0. -1.
</event>
<event>
 7    1  0.4723144E-009  0.4778727E+02  0.7816164E-02  0.1312668E+00
        -11   -1    0    0    0    0  0.00000000000E+00  0.00000000000E+00  0.45593999997E+02  0.45594000000E+02  0.51100000000E-03 0. -1.
         11   -1    0    0    0    0 -0.00000000000E+00 -0.00000000000E+00 -0.45593999997E+02  0.45594000000E+02  0.51100000000E-03 0.  1.
    9900012    2    1    2    0    0  0.41497203986E+02 -0.12340306026E+02 -0.30531945519E+01  0.47787273181E+02  0.20000009742E+02 0.  0.
         12    1    1    2    0    0 -0.41497203986E+02  0.12340306026E+02  0.30531945519E+01  0.43400726819E+02  0.00000000000E+00 0. -1.
         11    1    3    3    0    0  0.93236770203E+01  0.30057972961E+01  0.13834838220E+01  0.98934219717E+01  0.51100000000E-03 0. -1.
        -11    1    3    3    0    0  0.14973305862E+02 -0.96425013247E+01 -0.78349813020E+01  0.19456737972E+02  0.51100000000E-03 0.  1.
        -12    1    3    3    0    0  0.17200221103E+02 -0.57036019972E+01  0.33983029281E+01  0.18437113237E+02  0.00000000000E+00 0.  1.
</event>
<event>
 7    1  0.4723144E-009  0.4778728E+02  0.7816164E-02  0.1312668E+00
        -11   -1    0    0    0    0  0.00000000000E+00  0.00000000000E+00  0.45593999997E+02  0.45594000000E+02  0.51100000000E-03 0. -1.
         11   -1    0    0    0    0 -0.00000000000E+00 -0.00000000000E+00 -0.45593999997E+02  0.45594000000E+02  0.51100000000E-03 0.  1.
    9900012    2    1    2    0    0  0.21786058070E+02 -0.36259065005E+02  0.97093017727E+01  0.47787278092E+02  0.20000032132E+02 0.  0.
         12    1    1    2    0    0 -0.21786058070E+02  0.36259065005E+02 -0.97093017727E+01  0.43400721908E+02  0.00000000000E+00 0. -1.
         11    1    3    3    0    0  0.30904233547E+01 -0.12847215177E+02  0.11795528323E+02  0.17712598426E+02  0.51100000000E-03 0. -1.
        -11    1    3    3    0    0  0.16387430930E+02 -0.20438105338E+02 -0.12990966297E+01  0.26228833268E+02  0.51100000000E-03 0.  1.
         12    1    3    3    0    0  0.23082037849E+01 -0.29737444901E+01 -0.78712992053E+00  0.38458463980E+01  0.00000000000E+00 0. -1.
</event>
<event>
 7    1  0.4723144E-009  0.4778727E+02  0.7816164E-02  0.1312668E+00
        -11   -1    0    0    0    0  0.00000000000E+00  0.00000000000E+00  0.45593999997E+02  0.45594000000E+02  0.51100000000E-03 0.  1.
         11   -1    0    0    0    0 -0.00000000000E+00 -0.00000000000E+00 -0.45593999997E+02  0.45594000000E+02  0.51100000000E-03 0. -1.
    9900012    2    1    2    0    0  0.26258555036E+02 -0.16825582360E+02  0.30182965139E+02  0.47787270526E+02  0.19999997636E+02 0.  0.
         12    1    1    2    0    0 -0.26258555036E+02  0.16825582360E+02 -0.30182965139E+02  0.43400729474E+02  0.00000000000E+00 0. -1.
         11    1    3    3    0    0  0.28131358303E+01 -0.79558897439E+01  0.11009858702E+02  0.13871802468E+02  0.51100000000E-03 0. -1.
        -11    1    3    3    0    0  0.14934310082E+02 -0.11644767783E+02  0.14240072495E+02  0.23694174374E+02  0.51100000000E-03 0.  1.
         12    1    3    3    0    0  0.85111091232E+01  0.27750751674E+01  0.49330339424E+01  0.10221293684E+02  0.00000000000E+00 0. -1.
</event>
<event>
 7    1  0.4723144E-009  0.4778727E+02  0.7816164E-02  0.1312668E+00
        -11   -1    0    0    0    0  0.00000000000E+00  0.00000000000E+00  0.45593999997E+02  0.45594000000E+02  0.51100000000E-03 0. -1.
         11   -1    0    0    0    0 -0.00000000000E+00 -0.00000000000E+00 -0.45593999997E+02  0.45594000000E+02  0.51100000000E-03 0.  1.
    9900012    2    1    2    0    0  0.33879294705E+02  0.10324837236E+02 -0.25084144054E+02  0.47787272396E+02  0.20000006161E+02 0.  0.
         12    1    1    2    0    0 -0.33879294705E+02 -0.10324837236E+02  0.25084144054E+02  0.43400727604E+02  0.00000000000E+00 0. -1.
         11    1    3    3    0    0  0.19728479495E+02  0.12222560728E+02 -0.95795698614E+01  0.25107211174E+02  0.51100000000E-03 0. -1.
        -11    1    3    3    0    0  0.39653059007E+01  0.31790381755E+01 -0.59096169537E+01  0.77944536311E+01  0.51100000000E-03 0.  1.
         12    1    3    3    0    0  0.10185509310E+02 -0.50767616682E+01 -0.95949572386E+01  0.14885607591E+02  0.00000000000E+00 0. -1.
</event>
<event>
 7    1  0.4723144E-009  0.4778728E+02  0.7816164E-02  0.1312668E+00
        -11   -1    0    0    0    0  0.00000000000E+00  0.00000000000E+00  0.45593999997E+02  0.45594000000E+02  0.51100000000E-03 0.  1.
         11   -1    0    0    0    0 -0.00000000000E+00 -0.00000000000E+00 -0.45593999997E+02  0.45594000000E+02  0.51100000000E-03 0. -1.
    9900012    2    1    2    0    0 -0.31837426983E+02 -0.24681465585E+02  0.16150108236E+02  0.47787280002E+02  0.20000040841E+02 0.  0.
         12    1    1    2    0    0  0.31837426983E+02  0.24681465585E+02 -0.16150108236E+02  0.43400719998E+02  0.00000000000E+00 0. -1.
         11    1    3    3    0    0  0.61232093285E+00  0.85999044443E+00  0.14085647523E+01  0.17602770838E+01  0.51100000000E-03 0. -1.
        -11    1    3    3    0    0 -0.20752816704E+02 -0.78629763546E+01  0.52712228715E+01  0.22809901121E+02  0.51100000000E-03 0.  1.
        -12    1    3    3    0    0 -0.11696931212E+02 -0.17678479675E+02  0.94703206118E+01  0.23217101798E+02  0.00000000000E+00 0.  1.
</event>
<event>
 7    1  0.4723144E-009  0.4778727E+02  0.7816164E-02  0.1312668E+00
        -11   -1    0    0    0    0  0.00000000000E+00  0.00000000000E+00  0.45593999997E+02  0.45594000000E+02  0.51100000000E-03 0. -1.
         11   -1    0    0    0    0 -0.00000000000E+00 -0.00000000000E+00 -0.45593999997E+02  0.45594000000E+02  0.51100000000E-03 0.  1.
    9900012    2    1    2    0    0  0.33860761908E+02  0.21878070293E+01 -0.27060775041E+02  0.47787271407E+02  0.20000001654E+02 0.  0.
         12    1    1    2    0    0 -0.33860761908E+02 -0.21878070293E+01  0.27060775041E+02  0.43400728593E+02  0.00000000000E+00 0. -1.
         11    1    3    3    0    0  0.54874376881E+01  0.22042722057E+01 -0.13916784635E+01  0.60751590551E+01  0.51100000000E-03 0. -1.
        -11    1    3    3    0    0  0.53564792978E+01  0.58267936978E+01 -0.11809708866E+02  0.14216631775E+02  0.51100000000E-03 0.  1.
        -12    1    3    3    0    0  0.23016844922E+02 -0.58432588743E+01 -0.13859387712E+02  0.27495480577E+02  0.00000000000E+00 0.  1.
</event>
<event>
 7    1  0.4723144E-009  0.4778727E+02  0.7816164E-02  0.1312668E+00
        -11   -1    0    0    0    0  0.00000000000E+00  0.00000000000E+00  0.45593999997E+02  0.45594000000E+02  0.51100000000E-03 0. -1.
         11   -1    0    0    0    0 -0.00000000000E+00 -0.00000000000E+00 -0.45593999997E+02  0.45594000000E+02  0.51100000000E-03 0.  1.
    9900012    2    1    2    0    0 -0.29205601037E+02 -0.27420929100E+02 -0.16695771185E+02  0.47787271203E+02  0.20000000722E+02 0.  0.
         12    1    1    2    0    0  0.29205601037E+02  0.27420929100E+02  0.16695771185E+02  0.43400728797E+02  0.00000000000E+00 0. -1.
         11    1    3    3    0    0  0.35217554199E+00  0.44325371449E+00 -0.45769553310E+01  0.46118349743E+01  0.51100000000E-03 0. -1.
        -11    1    3    3    0    0 -0.27134379970E+02 -0.27497786289E+02 -0.99252943235E+01  0.39886266996E+02  0.51100000000E-03 0.  1.
        -12    1    3    3    0    0 -0.24233966089E+01 -0.36639652575E+00 -0.21935215303E+01  0.32891692328E+01  0.00000000000E+00 0.  1.
</event>
<event>
 7    1  0.4723144E-009  0.4778727E+02  0.7816164E-02  0.1312668E+00
        -11   -1    0    0    0    0  0.00000000000E+00  0.00000000000E+00  0.45593999997E+02  0.45594000000E+02  0.51100000000E-03 0. -1.
         11   -1    0    0    0    0 -0.00000000000E+00 -0.00000000000E+00 -0.45593999997E+02  0.45594000000E+02  0.51100000000E-03 0.  1.
    9900012    2    1    2    0    0  0.22903244663E+02 -0.31534954042E+02 -0.19094801051E+02  0.47787269940E+02  0.19999994965E+02 0.  0.
         12    1    1    2    0    0 -0.22903244663E+02  0.31534954042E+02  0.19094801051E+02  0.43400730060E+02  0.00000000000E+00 0. -1.
         11    1    3    3    0    0  0.17896593808E+02 -0.12023397292E+02 -0.56444208106E+01  0.22286983620E+02  0.51100000000E-03 0. -1.
        -11    1    3    3    0    0  0.41531861358E+01 -0.16069711007E+02 -0.67468138988E+01  0.17916586309E+02  0.51100000000E-03 0.  1.
        -12    1    3    3    0    0  0.85346471937E+00 -0.34418457434E+01 -0.67035663417E+01  0.75837000103E+01  0.00000000000E+00 0.  1.
</event>
<event>
 7    1  0.4723144E-009  0.4778728E+02  0.7816164E-02  0.1312668E+00
        -11   -1    0    0    0    0  0.00000000000E+00  0.00000000000E+00  0.45593999997E+02  0.45594000000E+02  0.51100000000E-03 0. -1.
         11   -1    0    0    0    0 -0.00000000000E+00 -0.00000000000E+00 -0.45593999997E+02  0.45594000000E+02  0.51100000000E-03 0.  1.
    9900012    2    1    2    0    0  0.10963693747E+00  0.16222242415E+02 -0.40254805862E+02  0.47787279220E+02  0.20000037277E+02 0.  0.
         12    1    1    2    0    0 -0.10963693747E+00 -0.16222242415E+02  0.40254805862E+02  0.43400720780E+02  0.00000000000E+00 0. -1.
         11    1    3    3    0    0  0.51216495670E+01  0.35097022203E+01 -0.28917842592E+01  0.68492131245E+01  0.51100000000E-03 0. -1.
        -11    1    3    3    0    0 -0.23749999585E+01  0.20139808755E+01 -0.20882002579E+02  0.21112905431E+02  0.51100000000E-03 0.  1.
         12    1    3    3    0    0 -0.26370126710E+01  0.10698559319E+02 -0.16481019024E+02  0.19825160665E+02  0.00000000000E+00 0. -1.
</event>
<event>
 7    1  0.4723144E-009  0.4778727E+02  0.7816164E-02  0.1312668E+00
        -11   -1    0    0    0    0  0.00000000000E+00  0.00000000000E+00  0.45593999997E+02  0.45594000000E+02  0.51100000000E-03 0.  1.
         11   -1    0    0    0    0 -0.00000000000E+00 -0.00000000000E+00 -0.45593999997E+02  0.45594000000E+02  0.51100000000E-03 0. -1.
    9900012    2    1    2    0    0  0.21065395902E+02  0.16070436113E+02  0.34374604066E+02  0.47787271595E+02  0.20000002512E+02 0.  0.
         12    1    1    2    0    0 -0.21065395902E+02 -0.16070436113E+02 -0.34374604066E+02  0.43400728405E+02  0.00000000000E+00 0. -1.
         11    1    3    3    0    0  0.78787867677E+01 -0.16688337071E+01  0.13977957812E+02  0.16132067187E+02  0.51100000000E-03 0. -1.
        -11    1    3    3    0    0  0.10060681814E+02  0.66373985112E+01  0.13974289038E+02  0.18454081715E+02  0.51100000000E-03 0.  1.
         12    1    3    3    0    0  0.31259273198E+01  0.11101871309E+02  0.64223572167E+01  0.13201122694E+02  0.00000000000E+00 0. -1.
</event>
<event>
 7    1  0.4723144E-009  0.4778727E+02  0.7816164E-02  0.1312668E+00
        -11   -1    0    0    0    0  0.00000000000E+00  0.00000000000E+00  0.45593999997E+02  0.45594000000E+02  0.51100000000E-03 0.  1.
         11   -1    0    0    0    0 -0.00000000000E+00 -0.00000000000E+00 -0.45593999997E+02  0.45594000000E+02  0.51100000000E-03 0. -1.
    9900012    2    1    2    0    0 -0.43160247296E+02 -0.13011020449E+01  0.43730586368E+01  0.47787268958E+02  0.19999990486E+02 0.  0.
         12    1    1    2    0    0  0.43160247296E+02  0.13011020449E+01 -0.43730586368E+01  0.43400731042E+02  0.00000000000E+00 0. -1.
         11    1    3    3    0    0 -0.42748470110E+01 -0.27392680635E+01 -0.30772611903E+00  0.50865117828E+01  0.51100000000E-03 0. -1.
        -11    1    3    3    0    0 -0.11694482837E+02 -0.62808465636E+01  0.56312090732E+01  0.14419447918E+02  0.51100000000E-03 0.  1.
        -12    1    3    3    0    0 -0.27190917448E+02  0.77190125821E+01 -0.95042431736E+00  0.28281309257E+02  0.00000000000E+00 0.  1.
</event>
<event>
 7    1  0.4723144E-009  0.4778728E+02  0.7816164E-02  0.1312668E+00
        -11   -1    0    0    0    0  0.00000000000E+00  0.00000000000E+00  0.45593999997E+02  0.45594000000E+02  0.51100000000E-03 0. -1.
         11   -1    0    0    0    0 -0.00000000000E+00 -0.00000000000E+00 -0.45593999997E+02  0.45594000000E+02  0.51100000000E-03 0.  1.
    9900012    2    1    2    0    0  0.24074465904E+02  0.20842003930E+02 -0.29489890184E+02  0.47787278124E+02  0.20000032276E+02 0.  0.
         12    1    1    2    0    0 -0.24074465904E+02 -0.20842003930E+02  0.29489890184E+02  0.43400721876E+02  0.00000000000E+00 0. -1.
         11    1    3    3    0    0  0.14471947584E+02  0.17458933852E+02 -0.27729171035E+02  0.35821202725E+02  0.51100000000E-03 0. -1.
        -11    1    3    3    0    0  0.63918675922E+01  0.50767378598E+01 -0.16878960555E+01  0.83353603383E+01  0.51100000000E-03 0.  1.
         12    1    3    3    0    0  0.32106507271E+01 -0.16936677815E+01 -0.72823093157E-01  0.36307150602E+01  0.00000000000E+00 0. -1.
</event>
<event>
 7    1  0.4723144E-009  0.4778727E+02  0.7816164E-02  0.1312668E+00
        -11   -1    0    0    0    0  0.00000000000E+00  0.00000000000E+00  0.45593999997E+02  0.45594000000E+02  0.51100000000E-03 0.  1.
         11   -1    0    0    0    0 -0.00000000000E+00 -0.00000000000E+00 -0.45593999997E+02  0.45594000000E+02  0.51100000000E-03 0. -1.
    9900012    2    1    2    0    0  0.39017367837E+02 -0.78869801038E+01  0.17293472077E+02  0.47787267005E+02  0.19999981582E+02 0.  0.
         12    1    1    2    0    0 -0.39017367837E+02  0.78869801038E+01 -0.17293472077E+02  0.43400732995E+02  0.00000000000E+00 0. -1.
         11    1    3    3    0    0  0.26932022673E+01 -0.21161061489E+01  0.73887553981E+01  0.81440131557E+01  0.51100000000E-03 0. -1.
        -11    1    3    3    0    0  0.35232341400E+02 -0.40156131464E+01  0.71085001568E+01  0.36165920480E+02  0.51100000000E-03 0.  1.
        -12    1    3    3    0    0  0.10918241699E+01 -0.17552608084E+01  0.27962165216E+01  0.34773333690E+01  0.00000000000E+00 0.  1.
</event>
<event>
 7    1  0.4723144E-009  0.4778727E+02  0.7816164E-02  0.1312668E+00
        -11   -1    0    0    0    0  0.00000000000E+00  0.00000000000E+00  0.45593999997E+02  0.45594000000E+02  0.51100000000E-03 0.  1.
         11   -1    0    0    0    0 -0.00000000000E+00 -0.00000000000E+00 -0.45593999997E+02  0.45594000000E+02  0.51100000000E-03 0. -1.
    9900012    2    1    2    0    0  0.61150989328E+01  0.24637767670E+02  0.35202404969E+02  0.47787270210E+02  0.19999996193E+02 0.  0.
         12    1    1    2    0    0 -0.61150989328E+01 -0.24637767670E+02 -0.35202404969E+02  0.43400729790E+02  0.00000000000E+00 0. -1.
         11    1    3    3    0    0 -0.55074524137E+01  0.66598231262E+01  0.17003046069E+02  0.19073249646E+02  0.51100000000E-03 0. -1.
        -11    1    3    3    0    0  0.10234850910E+02  0.11026024589E+02  0.13460658657E+02  0.20186993910E+02  0.51100000000E-03 0.  1.
         12    1    3    3    0    0  0.13877004367E+01  0.69519199549E+01  0.47387002436E+01  0.85270266541E+01  0.00000000000E+00 0. -1.
</event>
<event>
 7    1  0.4723144E-009  0.4778727E+02  0.7816164E-02  0.1312668E+00
        -11   -1    0    0    0    0  0.00000000000E+00  0.00000000000E+00  0.45593999997E+02  0.45594000000E+02  0.51100000000E-03 0. -1.
         11   -1    0    0    0    0 -0.00000000000E+00 -0.00000000000E+00 -0.45593999997E+02  0.45594000000E+02  0.51100000000E-03 0.  1.
    9900012    2    1    2    0    0  0.18924615212E+02 -0.37952352239E+02  0.92250388588E+01  0.47787269092E+02  0.19999991098E+02 0.  0.
         12    1    1    2    0    0 -0.18924615212E+02  0.37952352239E+02 -0.92250388588E+01  0.43400730908E+02  0.00000000000E+00 0. -1.
         11    1    3    3    0    0  0.77810565845E+01 -0.48627879345E+01  0.27856223221E+01  0.95891209216E+01  0.51100000000E-03 0. -1.
        -11    1    3    3    0    0  0.15110338593E+01 -0.22605178978E+02  0.20784159328E+00  0.22656578258E+02  0.51100000000E-03 0.  1.
        -12    1    3    3    0    0  0.96325247678E+01 -0.10484385327E+02  0.62315749434E+01  0.15541569913E+02  0.00000000000E+00 0.  1.
</event>
<event>
 7    1  0.4723144E-009  0.4778727E+02  0.7816164E-02  0.1312668E+00
        -11   -1    0    0    0    0  0.00000000000E+00  0.00000000000E+00  0.45593999997E+02  0.45594000000E+02  0.51100000000E-03 0. -1.
         11   -1    0    0    0    0 -0.00000000000E+00 -0.00000000000E+00 -0.45593999997E+02  0.45594000000E+02  0.51100000000E-03 0.  1.
    9900012    2    1    2    0    0  0.27898274176E+02 -0.31917093506E+02 -0.93063814180E+01  0.47787270801E+02  0.19999998892E+02 0.  0.
         12    1    1    2    0    0 -0.27898274176E+02  0.31917093506E+02  0.93063814180E+01  0.43400729199E+02  0.00000000000E+00 0. -1.
         11    1    3    3    0    0  0.18525153988E+02 -0.19193238320E+02 -0.20887783660E+01  0.26756769663E+02  0.51100000000E-03 0.  1.
        -11    1    3    3    0    0 -0.16191721409E+01  0.10912484195E+01  0.12761253980E-01  0.19526148227E+01  0.51100000000E-03 0. -1.
         12    1    3    3    0    0  0.10992292329E+02 -0.13815103605E+02 -0.72303643060E+01  0.19077886316E+02  0.00000000000E+00 0. -1.
</event>
<event>
 7    1  0.4723144E-009  0.4778727E+02  0.7816164E-02  0.1312668E+00
        -11   -1    0    0    0    0  0.00000000000E+00  0.00000000000E+00  0.45593999997E+02  0.45594000000E+02  0.51100000000E-03 0.  1.
         11   -1    0    0    0    0 -0.00000000000E+00 -0.00000000000E+00 -0.45593999997E+02  0.45594000000E+02  0.51100000000E-03 0. -1.
    9900012    2    1    2    0    0  0.51056929828E+01  0.37930522736E+02  0.20465363447E+02  0.47787265480E+02  0.19999974628E+02 0.  0.
         12    1    1    2    0    0 -0.51056929828E+01 -0.37930522736E+02 -0.20465363447E+02  0.43400734520E+02  0.00000000000E+00 0. -1.
         11    1    3    3    0    0  0.77028704176E+01  0.59441648541E+01  0.72711993173E+01  0.12146507657E+02  0.51100000000E-03 0. -1.
        -11    1    3    3    0    0  0.11917495414E+01  0.24351661098E+02  0.80008969980E+01  0.25660047121E+02  0.51100000000E-03 0.  1.
         12    1    3    3    0    0 -0.37889269762E+01  0.76346967843E+01  0.51932671319E+01  0.99807107022E+01  0.00000000000E+00 0. -1.
</event>
<event>
 7    1  0.4723144E-009  0.4778727E+02  0.7816164E-02  0.1312668E+00
        -11   -1    0    0    0    0  0.00000000000E+00  0.00000000000E+00  0.45593999997E+02  0.45594000000E+02  0.51100000000E-03 0.  1.
         11   -1    0    0    0    0 -0.00000000000E+00 -0.00000000000E+00 -0.45593999997E+02  0.45594000000E+02  0.51100000000E-03 0. -1.
    9900012    2    1    2    0    0 -0.18858818197E+01  0.38460994520E+02  0.20020451020E+02  0.47787272947E+02  0.20000008675E+02 0.  0.
         12    1    1    2    0    0  0.18858818197E+01 -0.38460994520E+02 -0.20020451020E+02  0.43400727053E+02  0.00000000000E+00 0. -1.
         11    1    3    3    0    0  0.71231097845E+01  0.12574767930E+02  0.83880056312E+01  0.16709940761E+02  0.51100000000E-03 0. -1.
        -11    1    3    3    0    0 -0.21264769754E+01  0.13927276230E+00  0.12825335505E+01  0.24872060225E+01  0.51100000000E-03 0.  1.
         12    1    3    3    0    0 -0.68825146287E+01  0.25746953828E+02  0.10349911838E+02  0.28590126164E+02  0.00000000000E+00 0. -1.
</event>
<event>
 7    1  0.4723144E-009  0.4778727E+02  0.7816164E-02  0.1312668E+00
        -11   -1    0    0    0    0  0.00000000000E+00  0.00000000000E+00  0.45593999997E+02  0.45594000000E+02  0.51100000000E-03 0. -1.
         11   -1    0    0    0    0 -0.00000000000E+00 -0.00000000000E+00 -0.45593999997E+02  0.45594000000E+02  0.51100000000E-03 0.  1.
    9900012    2    1    2    0    0  0.40773095152E+02 -0.50748044661E+01 -0.13979430444E+02  0.47787269543E+02  0.19999993153E+02 0.  0.
         12    1    1    2    0    0 -0.40773095152E+02  0.50748044661E+01  0.13979430444E+02  0.43400730457E+02  0.00000000000E+00 0. -1.
         11    1    3    3    0    0  0.54782783950E+01  0.32910310561E+00 -0.96018813938E+01  0.11059655039E+02  0.51100000000E-03 0. -1.
        -11    1    3    3    0    0  0.20375975616E+02 -0.54587988436E+01  0.28696779603E+00  0.21096474063E+02  0.51100000000E-03 0.  1.
         12    1    3    3    0    0  0.14918841141E+02  0.54891271950E-01 -0.46645168462E+01  0.15631140440E+02  0.00000000000E+00 0. -1.
</event>
<event>
 7    1  0.4723144E-009  0.4778727E+02  0.7816164E-02  0.1312668E+00
        -11   -1    0    0    0    0  0.00000000000E+00  0.00000000000E+00  0.45593999997E+02  0.45594000000E+02  0.51100000000E-03 0.  1.
         11   -1    0    0    0    0 -0.00000000000E+00 -0.00000000000E+00 -0.45593999997E+02  0.45594000000E+02  0.51100000000E-03 0. -1.
    9900012    2    1    2    0    0 -0.20298995370E+02 -0.20133158152E+02  0.32653178699E+02  0.47787270175E+02  0.19999996036E+02 0.  0.
         12    1    1    2    0    0  0.20298995370E+02  0.20133158152E+02 -0.32653178699E+02  0.43400729825E+02  0.00000000000E+00 0. -1.
         11    1    3    3    0    0  0.13347836550E+01  0.54295972066E+00  0.66155616748E+01  0.67706801134E+01  0.51100000000E-03 0. -1.
        -11    1    3    3    0    0 -0.18997442933E+02 -0.11650382252E+02  0.18613164299E+02  0.29035911043E+02  0.51100000000E-03 0.  1.
         12    1    3    3    0    0 -0.26363360922E+01 -0.90257356203E+01  0.74244527247E+01  0.11980679018E+02  0.00000000000E+00 0. -1.
</event>
<event>
 7    1  0.4723144E-009  0.4778728E+02  0.7816164E-02  0.1312668E+00
        -11   -1    0    0    0    0  0.00000000000E+00  0.00000000000E+00  0.45593999997E+02  0.45594000000E+02  0.51100000000E-03 0.  1.
         11   -1    0    0    0    0 -0.00000000000E+00 -0.00000000000E+00 -0.45593999997E+02  0.45594000000E+02  0.51100000000E-03 0. -1.
    9900012    2    1    2    0    0 -0.35667940642E+02  0.12100408050E+02  0.21563874914E+02  0.47787279201E+02  0.20000037187E+02 0.  0.
         12    1    1    2    0    0  0.35667940642E+02 -0.12100408050E+02 -0.21563874914E+02  0.43400720799E+02  0.00000000000E+00 0. -1.
         11    1    3    3    0    0 -0.18367738724E+01  0.40942331565E+01  0.54472641868E+01  0.70575612487E+01  0.51100000000E-03 0. -1.
        -11    1    3    3    0    0 -0.21833495063E+02 -0.49370057227E+00  0.13829137838E+02  0.25849377178E+02  0.51100000000E-03 0.  1.
        -12    1    3    3    0    0 -0.11997671706E+02  0.84998754660E+01  0.22874728894E+01  0.14880340773E+02  0.00000000000E+00 0.  1.
</event>
<event>
 7    1  0.4723144E-009  0.4778727E+02  0.7816164E-02  0.1312668E+00
        -11   -1    0    0    0    0  0.00000000000E+00  0.00000000000E+00  0.45593999997E+02  0.45594000000E+02  0.51100000000E-03 0.  1.
         11   -1    0    0    0    0 -0.00000000000E+00 -0.00000000000E+00 -0.45593999997E+02  0.45594000000E+02  0.51100000000E-03 0. -1.
    9900012    2    1    2    0    0  0.41863416251E+02 -0.49617911638E+01 -0.10317879359E+02  0.47787266985E+02  0.19999981491E+02 0.  0.
         12    1    1    2    0    0 -0.41863416251E+02  0.49617911638E+01  0.10317879359E+02  0.43400733015E+02  0.00000000000E+00 0. -1.
         11    1    3    3    0    0  0.16956884632E+02 -0.65962941896E+01 -0.87507189785E+01  0.20189653696E+02  0.51100000000E-03 0. -1.
        -11    1    3    3    0    0  0.19329377055E+02 -0.10996328884E+01  0.33843581802E+01  0.19654207956E+02  0.51100000000E-03 0.  1.
        -12    1    3    3    0    0  0.55771545641E+01  0.27341359143E+01 -0.49515185606E+01  0.79434053330E+01  0.00000000000E+00 0.  1.
</event>
<event>
 7    1  0.4723144E-009  0.4778727E+02  0.7816164E-02  0.1312668E+00
        -11   -1    0    0    0    0  0.00000000000E+00  0.00000000000E+00  0.45593999997E+02  0.45594000000E+02  0.51100000000E-03 0. -1.
         11   -1    0    0    0    0 -0.00000000000E+00 -0.00000000000E+00 -0.45593999997E+02  0.45594000000E+02  0.51100000000E-03 0.  1.
    9900012    2    1    2    0    0  0.29541770903E+02  0.21432429861E+02 -0.23485276549E+02  0.47787268527E+02  0.19999988521E+02 0.  0.
         12    1    1    2    0    0 -0.29541770903E+02 -0.21432429861E+02  0.23485276549E+02  0.43400731473E+02  0.00000000000E+00 0. -1.
         11    1    3    3    0    0  0.13014807585E+02  0.72549875052E+00 -0.12578121814E+02  0.18114102615E+02  0.51100000000E-03 0. -1.
        -11    1    3    3    0    0  0.98823562794E+01  0.17598024626E+02 -0.70054464083E+01  0.21364168975E+02  0.51100000000E-03 0.  1.
        -12    1    3    3    0    0  0.66446070386E+01  0.31089064846E+01 -0.39017083267E+01  0.83089969367E+01  0.00000000000E+00 0.  1.
</event>
<event>
 7    1  0.4723144E-009  0.4778727E+02  0.7816164E-02  0.1312668E+00
        -11   -1    0    0    0    0  0.00000000000E+00  0.00000000000E+00  0.45593999997E+02  0.45594000000E+02  0.51100000000E-03 0.  1.
         11   -1    0    0    0    0 -0.00000000000E+00 -0.00000000000E+00 -0.45593999997E+02  0.45594000000E+02  0.51100000000E-03 0. -1.
    9900012    2    1    2    0    0  0.48184112641E+00  0.39335789924E+02  0.18332669006E+02  0.47787270828E+02  0.19999999013E+02 0.  0.
         12    1    1    2    0    0 -0.48184112641E+00 -0.39335789924E+02 -0.18332669006E+02  0.43400729172E+02  0.00000000000E+00 0. -1.
         11    1    3    3    0    0  0.23385113644E+01  0.10131225146E+02 -0.26693926266E+01  0.10734803940E+02  0.51100000000E-03 0. -1.
        -11    1    3    3    0    0 -0.14815614807E+01  0.68769856193E+01  0.10614954940E+01  0.71144028966E+01  0.51100000000E-03 0.  1.
         12    1    3    3    0    0 -0.37510875728E+00  0.22327579158E+02  0.19940566139E+02  0.29938063992E+02  0.00000000000E+00 0. -1.
</event>
<event>
 7    1  0.4723144E-009  0.4778727E+02  0.7816164E-02  0.1312668E+00
        -11   -1    0    0    0    0  0.00000000000E+00  0.00000000000E+00  0.45593999997E+02  0.45594000000E+02  0.51100000000E-03 0. -1.
         11   -1    0    0    0    0 -0.00000000000E+00 -0.00000000000E+00 -0.45593999997E+02  0.45594000000E+02  0.51100000000E-03 0.  1.
    9900012    2    1    2    0    0 -0.33554788568E+02 -0.88023189534E+01 -0.26081003677E+02  0.47787269504E+02  0.19999992975E+02 0.  0.
         12    1    1    2    0    0  0.33554788568E+02  0.88023189534E+01  0.26081003677E+02  0.43400730496E+02  0.00000000000E+00 0. -1.
         11    1    3    3    0    0 -0.10972718656E+02 -0.68328881712E+00 -0.17929284202E+01  0.11139211413E+02  0.51100000000E-03 0. -1.
        -11    1    3    3    0    0 -0.20707542176E+02 -0.10266145515E+02 -0.24631352483E+02  0.33777204919E+02  0.51100000000E-03 0.  1.
        -12    1    3    3    0    0 -0.18745277356E+01  0.21471153787E+01  0.34327722656E+00  0.28708531720E+01  0.00000000000E+00 0.  1.
</event>
<event>
 7    1  0.4723144E-009  0.4778727E+02  0.7816164E-02  0.1312668E+00
        -11   -1    0    0    0    0  0.00000000000E+00  0.00000000000E+00  0.45593999997E+02  0.45594000000E+02  0.51100000000E-03 0. -1.
         11   -1    0    0    0    0 -0.00000000000E+00 -0.00000000000E+00 -0.45593999997E+02  0.45594000000E+02  0.51100000000E-03 0.  1.
    9900012    2    1    2    0    0 -0.54619203322E+01  0.42681368067E+02  0.56649264181E+01  0.47787272528E+02  0.20000006765E+02 0.  0.
         12    1    1    2    0    0  0.54619203322E+01 -0.42681368067E+02 -0.56649264181E+01  0.43400727472E+02  0.00000000000E+00 0. -1.
         11    1    3    3    0    0  0.26140841291E+01 -0.50739026881E+00  0.26580722116E+00  0.26761043438E+01  0.51100000000E-03 0. -1.
        -11    1    3    3    0    0 -0.19663596147E+01  0.63843233260E+01 -0.22074107642E+01  0.70355395677E+01  0.51100000000E-03 0.  1.
         12    1    3    3    0    0 -0.61096448465E+01  0.36804435009E+02  0.76065299611E+01  0.38075628617E+02  0.00000000000E+00 0. -1.
</event>
<event>
 7    1  0.4723144E-009  0.4778727E+02  0.7816164E-02  0.1312668E+00
        -11   -1    0    0    0    0  0.00000000000E+00  0.00000000000E+00  0.45593999997E+02  0.45594000000E+02  0.51100000000E-03 0. -1.
         11   -1    0    0    0    0 -0.00000000000E+00 -0.00000000000E+00 -0.45593999997E+02  0.45594000000E+02  0.51100000000E-03 0.  1.
    9900012    2    1    2    0    0  0.16579505869E+01 -0.41153940541E+02  0.13683120381E+02  0.47787269527E+02  0.19999993083E+02 0.  0.
         12    1    1    2    0    0 -0.16579505869E+01  0.41153940541E+02 -0.13683120381E+02  0.43400730473E+02  0.00000000000E+00 0. -1.
         11    1    3    3    0    0 -0.18429221986E+01 -0.20712461564E+02  0.15999728714E+02  0.26237258726E+02  0.51100000000E-03 0. -1.
        -11    1    3    3    0    0  0.21287092940E+01 -0.14422383293E+02  0.86615568728E+00  0.14604340760E+02  0.51100000000E-03 0.  1.
         12    1    3    3    0    0  0.13721634915E+01 -0.60190956842E+01 -0.31827640210E+01  0.69456700409E+01  0.00000000000E+00 0. -1.
</event>
<event>
 7    1  0.4723144E-009  0.4778727E+02  0.7816164E-02  0.1312668E+00
        -11   -1    0    0    0    0  0.00000000000E+00  0.00000000000E+00  0.45593999997E+02  0.45594000000E+02  0.51100000000E-03 0. -1.
         11   -1    0    0    0    0 -0.00000000000E+00 -0.00000000000E+00 -0.45593999997E+02  0.45594000000E+02  0.51100000000E-03 0.  1.
    9900012    2    1    2    0    0  0.16464382784E+02 -0.26190186716E+02 -0.30440463682E+02  0.47787267174E+02  0.19999982353E+02 0.  0.
         12    1    1    2    0    0 -0.16464382784E+02  0.26190186716E+02  0.30440463682E+02  0.43400732826E+02  0.00000000000E+00 0. -1.
         11    1    3    3    0    0  0.33421806147E+01  0.31459854949E+01 -0.41855108511E+01  0.62117547715E+01  0.51100000000E-03 0. -1.
        -11    1    3    3    0    0  0.96166879384E+01 -0.20312962040E+02 -0.16963919787E+02  0.28157977352E+02  0.51100000000E-03 0.  1.
         12    1    3    3    0    0  0.35055142308E+01 -0.90232101709E+01 -0.92910330437E+01  0.13417535050E+02  0.00000000000E+00 0. -1.
</event>
<event>
 7    1  0.4723144E-009  0.4778728E+02  0.7816164E-02  0.1312668E+00
        -11   -1    0    0    0    0  0.00000000000E+00  0.00000000000E+00  0.45593999997E+02  0.45594000000E+02  0.51100000000E-03 0.  1.
         11   -1    0    0    0    0 -0.00000000000E+00 -0.00000000000E+00 -0.45593999997E+02  0.45594000000E+02  0.51100000000E-03 0. -1.
    9900012    2    1    2    0    0  0.17481780758E+01 -0.42623291253E+02  0.79888572114E+01  0.47787275082E+02  0.20000018411E+02 0.  0.
         12    1    1    2    0    0 -0.17481780758E+01  0.42623291253E+02 -0.79888572114E+01  0.43400724918E+02  0.00000000000E+00 0. -1.
         11    1    3    3    0    0 -0.55641658660E+01 -0.10467072095E+02 -0.14827624078E+01  0.11946469129E+02  0.51100000000E-03 0. -1.
        -11    1    3    3    0    0  0.77971946575E+01 -0.22088010298E+02  0.10575744111E+02  0.25700638265E+02  0.51100000000E-03 0.  1.
        -12    1    3    3    0    0 -0.48485071571E+00 -0.10068208860E+02 -0.11041244920E+01  0.10140167689E+02  0.00000000000E+00 0.  1.
</event>
<event>
 7    1  0.4723144E-009  0.4778727E+02  0.7816164E-02  0.1312668E+00
        -11   -1    0    0    0    0  0.00000000000E+00  0.00000000000E+00  0.45593999997E+02  0.45594000000E+02  0.51100000000E-03 0. -1.
         11   -1    0    0    0    0 -0.00000000000E+00 -0.00000000000E+00 -0.45593999997E+02  0.45594000000E+02  0.51100000000E-03 0.  1.
    9900012    2    1    2    0    0  0.47696719442E+01  0.38747805488E+02 -0.18959988570E+02  0.47787269970E+02  0.19999995102E+02 0.  0.
         12    1    1    2    0    0 -0.47696719442E+01 -0.38747805488E+02  0.18959988570E+02  0.43400730030E+02  0.00000000000E+00 0. -1.
         11    1    3    3    0    0 -0.43577759895E+01  0.30558221352E+02 -0.14179441870E+02  0.33968392305E+02  0.51100000000E-03 0. -1.
        -11    1    3    3    0    0  0.30146267288E+01  0.12970065736E+01  0.30460443299E+00  0.32959041988E+01  0.51100000000E-03 0.  1.
         12    1    3    3    0    0  0.61128212049E+01  0.68925775623E+01 -0.50851511331E+01  0.10522973467E+02  0.00000000000E+00 0. -1.
</event>
<event>
 7    1  0.4723144E-009  0.4778727E+02  0.7816164E-02  0.1312668E+00
        -11   -1    0    0    0    0  0.00000000000E+00  0.00000000000E+00  0.45593999997E+02  0.45594000000E+02  0.51100000000E-03 0.  1.
         11   -1    0    0    0    0 -0.00000000000E+00 -0.00000000000E+00 -0.45593999997E+02  0.45594000000E+02  0.51100000000E-03 0. -1.
    9900012    2    1    2    0    0 -0.30844723671E+02 -0.17003448147E+01 -0.30485002397E+02  0.47787268186E+02  0.19999986969E+02 0.  0.
         12    1    1    2    0    0  0.30844723671E+02  0.17003448147E+01  0.30485002397E+02  0.43400731814E+02  0.00000000000E+00 0. -1.
         11    1    3    3    0    0 -0.91129399996E+01 -0.26029954169E+01 -0.16171062882E+02  0.18743653208E+02  0.51100000000E-03 0. -1.
        -11    1    3    3    0    0 -0.23421304775E+02  0.14157987564E+01 -0.13718848448E+02  0.27180301810E+02  0.51100000000E-03 0.  1.
         12    1    3    3    0    0  0.16895211036E+01 -0.51314815422E+00 -0.59509106678E+00  0.18633131689E+01  0.00000000000E+00 0. -1.
</event>
<event>
 7    1  0.4723144E-009  0.4778727E+02  0.7816164E-02  0.1312668E+00
        -11   -1    0    0    0    0  0.00000000000E+00  0.00000000000E+00  0.45593999997E+02  0.45594000000E+02  0.51100000000E-03 0. -1.
         11   -1    0    0    0    0 -0.00000000000E+00 -0.00000000000E+00 -0.45593999997E+02  0.45594000000E+02  0.51100000000E-03 0.  1.
    9900012    2    1    2    0    0 -0.11171705414E+02  0.39654527874E+02 -0.13650461951E+02  0.47787266201E+02  0.19999977918E+02 0.  0.
         12    1    1    2    0    0  0.11171705414E+02 -0.39654527874E+02  0.13650461951E+02  0.43400733799E+02  0.00000000000E+00 0. -1.
         11    1    3    3    0    0 -0.12612948273E+02  0.14173897279E+02 -0.29055342807E+01  0.19194477277E+02  0.51100000000E-03 0. -1.
        -11    1    3    3    0    0 -0.19660895063E+01  0.19615722145E+02 -0.80429167988E+01  0.21291561101E+02  0.51100000000E-03 0.  1.
         12    1    3    3    0    0  0.34073323656E+01  0.58649084500E+01 -0.27020108717E+01  0.73012278233E+01  0.00000000000E+00 0. -1.
</event>
<event>
 7    1  0.4723144E-009  0.4778726E+02  0.7816164E-02  0.1312668E+00
        -11   -1    0    0    0    0  0.00000000000E+00  0.00000000000E+00  0.45593999997E+02  0.45594000000E+02  0.51100000000E-03 0. -1.
         11   -1    0    0    0    0 -0.00000000000E+00 -0.00000000000E+00 -0.45593999997E+02  0.45594000000E+02  0.51100000000E-03 0.  1.
    9900012    2    1    2    0    0 -0.82266700733E+01 -0.42564622168E+02 -0.20490796313E+01  0.47787263968E+02  0.19999967733E+02 0.  0.
         12    1    1    2    0    0  0.82266700733E+01  0.42564622168E+02  0.20490796313E+01  0.43400736032E+02  0.00000000000E+00 0. -1.
         11    1    3    3    0    0 -0.14479702097E+01 -0.96113714916E+01  0.42447286583E+01  0.10606262363E+02  0.51100000000E-03 0. -1.
        -11    1    3    3    0    0 -0.73836624157E+01 -0.81349917391E+01 -0.56340106768E+01  0.12346604304E+02  0.51100000000E-03 0.  1.
        -12    1    3    3    0    0  0.60496255208E+00 -0.24818258938E+02 -0.65979761277E+00  0.24834397301E+02  0.00000000000E+00 0.  1.
</event>
<event>
 7    1  0.4723144E-009  0.4778727E+02  0.7816164E-02  0.1312668E+00
        -11   -1    0    0    0    0  0.00000000000E+00  0.00000000000E+00  0.45593999997E+02  0.45594000000E+02  0.51100000000E-03 0. -1.
         11   -1    0    0    0    0 -0.00000000000E+00 -0.00000000000E+00 -0.45593999997E+02  0.45594000000E+02  0.51100000000E-03 0.  1.
    9900012    2    1    2    0    0 -0.39433544681E+02 -0.57605828137E+00 -0.18118688756E+02  0.47787272224E+02  0.20000005376E+02 0.  0.
         12    1    1    2    0    0  0.39433544681E+02  0.57605828137E+00  0.18118688756E+02  0.43400727776E+02  0.00000000000E+00 0. -1.
         11    1    3    3    0    0 -0.14407003444E+02  0.40708745405E+01 -0.11105794254E+02  0.18640612491E+02  0.51100000000E-03 0. -1.
        -11    1    3    3    0    0 -0.21311262442E+02 -0.64540855518E+01 -0.15824955046E+01  0.22323293203E+02  0.51100000000E-03 0.  1.
        -12    1    3    3    0    0 -0.37152787956E+01  0.18071527298E+01 -0.54303989981E+01  0.68233665295E+01  0.00000000000E+00 0.  1.
</event>
<event>
 7    1  0.4723144E-009  0.4778727E+02  0.7816164E-02  0.1312668E+00
        -11   -1    0    0    0    0  0.00000000000E+00  0.00000000000E+00  0.45593999997E+02  0.45594000000E+02  0.51100000000E-03 0. -1.
         11   -1    0    0    0    0 -0.00000000000E+00 -0.00000000000E+00 -0.45593999997E+02  0.45594000000E+02  0.51100000000E-03 0.  1.
    9900012    2    1    2    0    0  0.35772724310E+02 -0.20762155841E+02  0.13147938954E+02  0.47787271683E+02  0.20000002913E+02 0.  0.
         12    1    1    2    0    0 -0.35772724310E+02  0.20762155841E+02 -0.13147938954E+02  0.43400728317E+02  0.00000000000E+00 0. -1.
         11    1    3    3    0    0  0.22774488087E+01  0.25924610953E+01  0.90828324297E+00  0.35682777804E+01  0.51100000000E-03 0. -1.
        -11    1    3    3    0    0  0.28269366210E+02 -0.23411599156E+02  0.12997004890E+02  0.38938184053E+02  0.51100000000E-03 0.  1.
        -12    1    3    3    0    0  0.52259092912E+01  0.56982220261E-01 -0.75734917946E+00  0.52808098501E+01  0.00000000000E+00 0.  1.
</event>
<event>
 7    1  0.4723144E-009  0.4778727E+02  0.7816164E-02  0.1312668E+00
        -11   -1    0    0    0    0  0.00000000000E+00  0.00000000000E+00  0.45593999997E+02  0.45594000000E+02  0.51100000000E-03 0. -1.
         11   -1    0    0    0    0 -0.00000000000E+00 -0.00000000000E+00 -0.45593999997E+02  0.45594000000E+02  0.51100000000E-03 0.  1.
    9900012    2    1    2    0    0 -0.10080907537E+02 -0.24522203318E+02 -0.34360731018E+02  0.47787274333E+02  0.20000014996E+02 0.  0.
         12    1    1    2    0    0  0.10080907537E+02  0.24522203318E+02  0.34360731018E+02  0.43400725667E+02  0.00000000000E+00 0. -1.
         11    1    3    3    0    0  0.38191883734E+01 -0.10019972977E+02 -0.67835409371E+01  0.12688675510E+02  0.51100000000E-03 0. -1.
        -11    1    3    3    0    0 -0.90989296643E+01 -0.11915484634E+02 -0.14188454279E+02  0.20641742421E+02  0.51100000000E-03 0.  1.
         12    1    3    3    0    0 -0.48011662457E+01 -0.25867457070E+01 -0.13388735802E+02  0.14456856403E+02  0.00000000000E+00 0. -1.
</event>
<event>
 7    1  0.4723144E-009  0.4778728E+02  0.7816164E-02  0.1312668E+00
        -11   -1    0    0    0    0  0.00000000000E+00  0.00000000000E+00  0.45593999997E+02  0.45594000000E+02  0.51100000000E-03 0.  1.
         11   -1    0    0    0    0 -0.00000000000E+00 -0.00000000000E+00 -0.45593999997E+02  0.45594000000E+02  0.51100000000E-03 0. -1.
    9900012    2    1    2    0    0  0.57896039023E+01  0.42319322797E+02  0.76927331257E+01  0.47787277215E+02  0.20000028132E+02 0.  0.
         12    1    1    2    0    0 -0.57896039023E+01 -0.42319322797E+02 -0.76927331257E+01  0.43400722785E+02  0.00000000000E+00 0. -1.
         11    1    3    3    0    0  0.19613123730E+01 -0.38991136521E+00  0.23498170648E+01  0.30855173952E+01  0.51100000000E-03 0. -1.
        -11    1    3    3    0    0  0.76128225563E+01  0.34651916384E+02  0.41426108168E+01  0.35719344913E+02  0.51100000000E-03 0.  1.
        -12    1    3    3    0    0 -0.37845310270E+01  0.80573177786E+01  0.12003052441E+01  0.89824149068E+01  0.00000000000E+00 0.  1.
</event>
<event>
 7    1  0.4723144E-009  0.4778727E+02  0.7816164E-02  0.1312668E+00
        -11   -1    0    0    0    0  0.00000000000E+00  0.00000000000E+00  0.45593999997E+02  0.45594000000E+02  0.51100000000E-03 0.  1.
         11   -1    0    0    0    0 -0.00000000000E+00 -0.00000000000E+00 -0.45593999997E+02  0.45594000000E+02  0.51100000000E-03 0. -1.
    9900012    2    1    2    0    0 -0.10157708154E+02  0.42137746045E+02  0.22033386485E+01  0.47787269846E+02  0.19999994536E+02 0.  0.
         12    1    1    2    0    0  0.10157708154E+02 -0.42137746045E+02 -0.22033386485E+01  0.43400730154E+02  0.00000000000E+00 0. -1.
         11    1    3    3    0    0 -0.32529413445E+01  0.25613887285E+01 -0.34157245350E+01  0.53674494846E+01  0.51100000000E-03 0. -1.
        -11    1    3    3    0    0 -0.21721197280E+00  0.18369517470E+02  0.80380035620E+01  0.20052327911E+02  0.51100000000E-03 0.  1.
        -12    1    3    3    0    0 -0.66875548370E+01  0.21206839846E+02 -0.24189403784E+01  0.22367492450E+02  0.00000000000E+00 0.  1.
</event>
<event>
 7    1  0.4723144E-009  0.4778728E+02  0.7816164E-02  0.1312668E+00
        -11   -1    0    0    0    0  0.00000000000E+00  0.00000000000E+00  0.45593999997E+02  0.45594000000E+02  0.51100000000E-03 0.  1.
         11   -1    0    0    0    0 -0.00000000000E+00 -0.00000000000E+00 -0.45593999997E+02  0.45594000000E+02  0.51100000000E-03 0. -1.
    9900012    2    1    2    0    0 -0.48491795701E+00 -0.27289980550E+02  0.33743808761E+02  0.47787276348E+02  0.20000024181E+02 0.  0.
         12    1    1    2    0    0  0.48491795701E+00  0.27289980550E+02 -0.33743808761E+02  0.43400723652E+02  0.00000000000E+00 0. -1.
         11    1    3    3    0    0 -0.68998762719E+01 -0.32655019109E+01  0.46849310108E+01  0.89565827264E+01  0.51100000000E-03 0. -1.
        -11    1    3    3    0    0  0.14189501385E+01 -0.14517794610E+02  0.20157421564E+02  0.24881748817E+02  0.51100000000E-03 0.  1.
         12    1    3    3    0    0  0.49960081764E+01 -0.95066840292E+01  0.89014561861E+01  0.13948944805E+02  0.00000000000E+00 0. -1.
</event>
<event>
 7    1  0.4723144E-009  0.4778727E+02  0.7816164E-02  0.1312668E+00
        -11   -1    0    0    0    0  0.00000000000E+00  0.00000000000E+00  0.45593999997E+02  0.45594000000E+02  0.51100000000E-03 0. -1.
         11   -1    0    0    0    0 -0.00000000000E+00 -0.00000000000E+00 -0.45593999997E+02  0.45594000000E+02  0.51100000000E-03 0.  1.
    9900012    2    1    2    0    0 -0.13869618213E+02  0.18983242666E+02 -0.36481413432E+02  0.47787270312E+02  0.19999996659E+02 0.  0.
         12    1    1    2    0    0  0.13869618213E+02 -0.18983242666E+02  0.36481413432E+02  0.43400729688E+02  0.00000000000E+00 0. -1.
         11    1    3    3    0    0 -0.81184623096E+01  0.12322313298E+02 -0.12816153303E+02  0.19544887337E+02  0.51100000000E-03 0. -1.
        -11    1    3    3    0    0 -0.76843670687E+01 -0.71533710709E+00 -0.13255876912E+02  0.15338822556E+02  0.51100000000E-03 0.  1.
        -12    1    3    3    0    0  0.19332111650E+01  0.73762664759E+01 -0.10409383217E+02  0.12903560419E+02  0.00000000000E+00 0.  1.
</event>
<event>
 7    1  0.4723144E-009  0.4778727E+02  0.7816164E-02  0.1312668E+00
        -11   -1    0    0    0    0  0.00000000000E+00  0.00000000000E+00  0.45593999997E+02  0.45594000000E+02  0.51100000000E-03 0.  1.
         11   -1    0    0    0    0 -0.00000000000E+00 -0.00000000000E+00 -0.45593999997E+02  0.45594000000E+02  0.51100000000E-03 0. -1.
    9900012    2    1    2    0    0  0.22701798087E+02 -0.23771455982E+02  0.28340242420E+02  0.47787273090E+02  0.20000009326E+02 0.  0.
         12    1    1    2    0    0 -0.22701798087E+02  0.23771455982E+02 -0.28340242420E+02  0.43400726910E+02  0.00000000000E+00 0. -1.
         11    1    3    3    0    0  0.15132908429E+02 -0.72656639859E+01  0.57986457683E+01  0.17760041770E+02  0.51100000000E-03 0. -1.
        -11    1    3    3    0    0  0.20312242056E+01 -0.10151449300E+02  0.74959575749E+01  0.12781516924E+02  0.51100000000E-03 0.  1.
         12    1    3    3    0    0  0.55376654525E+01 -0.63543426966E+01  0.15045639077E+02  0.17245714395E+02  0.00000000000E+00 0. -1.
</event>
<event>
 7    1  0.4723144E-009  0.4778727E+02  0.7816164E-02  0.1312668E+00
        -11   -1    0    0    0    0  0.00000000000E+00  0.00000000000E+00  0.45593999997E+02  0.45594000000E+02  0.51100000000E-03 0. -1.
         11   -1    0    0    0    0 -0.00000000000E+00 -0.00000000000E+00 -0.45593999997E+02  0.45594000000E+02  0.51100000000E-03 0.  1.
    9900012    2    1    2    0    0  0.24273264854E+02  0.10485854294E+02 -0.34416256563E+02  0.47787271403E+02  0.20000001633E+02 0.  0.
         12    1    1    2    0    0 -0.24273264854E+02 -0.10485854294E+02  0.34416256563E+02  0.43400728597E+02  0.00000000000E+00 0. -1.
         11    1    3    3    0    0  0.36241678063E+01 -0.28489853184E+01 -0.66609318645E+00  0.46577881045E+01  0.51100000000E-03 0. -1.
        -11    1    3    3    0    0  0.13551391188E+02  0.66012130600E+01 -0.27950470370E+02  0.31756023226E+02  0.51100000000E-03 0.  1.
        -12    1    3    3    0    0  0.70977058602E+01  0.67336265529E+01 -0.57996930067E+01  0.11373460072E+02  0.00000000000E+00 0.  1.
</event>
<event>
 7    1  0.4723144E-009  0.4778727E+02  0.7816164E-02  0.1312668E+00
        -11   -1    0    0    0    0  0.00000000000E+00  0.00000000000E+00  0.45593999997E+02  0.45594000000E+02  0.51100000000E-03 0.  1.
         11   -1    0    0    0    0 -0.00000000000E+00 -0.00000000000E+00 -0.45593999997E+02  0.45594000000E+02  0.51100000000E-03 0. -1.
    9900012    2    1    2    0    0  0.25081917710E+02  0.31987746349E+02  0.15208718352E+02  0.47787266983E+02  0.19999981481E+02 0.  0.
         12    1    1    2    0    0 -0.25081917710E+02 -0.31987746349E+02 -0.15208718352E+02  0.43400733017E+02  0.00000000000E+00 0. -1.
         11    1    3    3    0    0  0.19040268343E+01  0.15205952284E+02  0.96712650130E+01  0.18121249137E+02  0.51100000000E-03 0. -1.
        -11    1    3    3    0    0  0.17266363829E+02  0.11347749924E+02  0.62989473874E+01  0.21600358485E+02  0.51100000000E-03 0.  1.
         12    1    3    3    0    0  0.59115270461E+01  0.54340441414E+01 -0.76149404816E+00  0.80656593614E+01  0.00000000000E+00 0. -1.
</event>
<event>
 7    1  0.4723144E-009  0.4778727E+02  0.7816164E-02  0.1312668E+00
        -11   -1    0    0    0    0  0.00000000000E+00  0.00000000000E+00  0.45593999997E+02  0.45594000000E+02  0.51100000000E-03 0. -1.
         11   -1    0    0    0    0 -0.00000000000E+00 -0.00000000000E+00 -0.45593999997E+02  0.45594000000E+02  0.51100000000E-03 0.  1.
    9900012    2    1    2    0    0  0.77371451769E+01  0.60381854958E+01 -0.42276472013E+02  0.47787272063E+02  0.20000004645E+02 0.  0.
         12    1    1    2    0    0 -0.77371451769E+01 -0.60381854958E+01  0.42276472013E+02  0.43400727937E+02  0.00000000000E+00 0. -1.
         11    1    3    3    0    0  0.72845448282E+01  0.16254830572E+01 -0.13464811428E+02  0.15395062052E+02  0.51100000000E-03 0.  1.
        -11    1    3    3    0    0 -0.67036413156E+01  0.32931339246E+01 -0.16420444812E+02  0.18039250151E+02  0.51100000000E-03 0. -1.
         12    1    3    3    0    0  0.71562416644E+01  0.11195685140E+01 -0.12391215774E+02  0.14352959861E+02  0.00000000000E+00 0. -1.
</event>
<event>
 7    1  0.4723144E-009  0.4778727E+02  0.7816164E-02  0.1312668E+00
        -11   -1    0    0    0    0  0.00000000000E+00  0.00000000000E+00  0.45593999997E+02  0.45594000000E+02  0.51100000000E-03 0.  1.
         11   -1    0    0    0    0 -0.00000000000E+00 -0.00000000000E+00 -0.45593999997E+02  0.45594000000E+02  0.51100000000E-03 0. -1.
    9900012    2    1    2    0    0 -0.26993643856E+01 -0.23309922936E+02  0.36510054724E+02  0.47787272226E+02  0.20000005387E+02 0.  0.
         12    1    1    2    0    0  0.26993643856E+01  0.23309922936E+02 -0.36510054724E+02  0.43400727774E+02  0.00000000000E+00 0. -1.
         11    1    3    3    0    0  0.14997059011E+01 -0.45038073207E+01  0.38347766329E+00  0.47623999781E+01  0.51100000000E-03 0. -1.
        -11    1    3    3    0    0 -0.30500105667E+01 -0.15675851176E+01  0.16608132050E+02  0.16958476878E+02  0.51100000000E-03 0.  1.
        -12    1    3    3    0    0 -0.11490597200E+01 -0.17238530498E+02  0.19518445010E+02  0.26066395370E+02  0.00000000000E+00 0.  1.
</event>
<event>
 7    1  0.4723144E-009  0.4778727E+02  0.7816164E-02  0.1312668E+00
        -11   -1    0    0    0    0  0.00000000000E+00  0.00000000000E+00  0.45593999997E+02  0.45594000000E+02  0.51100000000E-03 0.  1.
         11   -1    0    0    0    0 -0.00000000000E+00 -0.00000000000E+00 -0.45593999997E+02  0.45594000000E+02  0.51100000000E-03 0. -1.
    9900012    2    1    2    0    0  0.16783223481E+01 -0.30140230092E+02  0.31182903068E+02  0.47787266370E+02  0.19999978687E+02 0.  0.
         12    1    1    2    0    0 -0.16783223481E+01  0.30140230092E+02 -0.31182903068E+02  0.43400733630E+02  0.00000000000E+00 0. -1.
         11    1    3    3    0    0 -0.59390395710E+00  0.14440011674E+01  0.90258402386E-01  0.15639719057E+01  0.51100000000E-03 0. -1.
        -11    1    3    3    0    0  0.54608187589E+00 -0.28579890575E+02  0.31722512727E+02  0.42701594404E+02  0.51100000000E-03 0.  1.
        -12    1    3    3    0    0  0.17261444293E+01 -0.30043406838E+01 -0.62986806132E+00  0.35217000596E+01  0.00000000000E+00 0.  1.
</event>
<event>
 7    1  0.4723144E-009  0.4778727E+02  0.7816164E-02  0.1312668E+00
        -11   -1    0    0    0    0  0.00000000000E+00  0.00000000000E+00  0.45593999997E+02  0.45594000000E+02  0.51100000000E-03 0.  1.
         11   -1    0    0    0    0 -0.00000000000E+00 -0.00000000000E+00 -0.45593999997E+02  0.45594000000E+02  0.51100000000E-03 0. -1.
    9900012    2    1    2    0    0  0.17743506718E+02 -0.38133554734E+02  0.10706224906E+02  0.47787270985E+02  0.19999999730E+02 0.  0.
         12    1    1    2    0    0 -0.17743506718E+02  0.38133554734E+02 -0.10706224906E+02  0.43400729015E+02  0.00000000000E+00 0. -1.
         11    1    3    3    0    0  0.42657581582E+01 -0.54881165798E+01 -0.51701072377E+01  0.86629166779E+01  0.51100000000E-03 0. -1.
        -11    1    3    3    0    0  0.38734645859E+01 -0.15851617926E+02  0.86810353118E+01  0.18483449167E+02  0.51100000000E-03 0.  1.
         12    1    3    3    0    0  0.96042839739E+01 -0.16793820228E+02  0.71952968320E+01  0.20640905140E+02  0.00000000000E+00 0. -1.
</event>
<event>
 7    1  0.4723144E-009  0.4778727E+02  0.7816164E-02  0.1312668E+00
        -11   -1    0    0    0    0  0.00000000000E+00  0.00000000000E+00  0.45593999997E+02  0.45594000000E+02  0.51100000000E-03 0.  1.
         11   -1    0    0    0    0 -0.00000000000E+00 -0.00000000000E+00 -0.45593999997E+02  0.45594000000E+02  0.51100000000E-03 0. -1.
    9900012    2    1    2    0    0 -0.15002991923E+02  0.21841617271E+02  0.34372630444E+02  0.47787265729E+02  0.19999975764E+02 0.  0.
         12    1    1    2    0    0  0.15002991923E+02 -0.21841617271E+02 -0.34372630444E+02  0.43400734271E+02  0.00000000000E+00 0. -1.
         11    1    3    3    0    0 -0.16313804952E+02  0.77727573754E+01  0.18190484742E+02  0.25640782450E+02  0.51100000000E-03 0. -1.
        -11    1    3    3    0    0 -0.86147502767E+00  0.77376233843E+01  0.11831645643E+02  0.14163360962E+02  0.51100000000E-03 0.  1.
         12    1    3    3    0    0  0.21722880567E+01  0.63312365111E+01  0.43505000582E+01  0.79831223163E+01  0.00000000000E+00 0. -1.
</event>
<event>
 7    1  0.4723144E-009  0.4778727E+02  0.7816164E-02  0.1312668E+00
        -11   -1    0    0    0    0  0.00000000000E+00  0.00000000000E+00  0.45593999997E+02  0.45594000000E+02  0.51100000000E-03 0. -1.
         11   -1    0    0    0    0 -0.00000000000E+00 -0.00000000000E+00 -0.45593999997E+02  0.45594000000E+02  0.51100000000E-03 0.  1.
    9900012    2    1    2    0    0  0.33260037893E+02  0.12902119724E+01 -0.27851903503E+02  0.47787270786E+02  0.19999998821E+02 0.  0.
         12    1    1    2    0    0 -0.33260037893E+02 -0.12902119724E+01  0.27851903503E+02  0.43400729214E+02  0.00000000000E+00 0. -1.
         11    1    3    3    0    0  0.99049414576E+01  0.27934718769E+01 -0.40570171994E+01  0.11062130863E+02  0.51100000000E-03 0. -1.
        -11    1    3    3    0    0  0.25299671417E+02 -0.30140131734E+01 -0.21169059267E+02  0.33125318410E+02  0.51100000000E-03 0.  1.
        -12    1    3    3    0    0 -0.19445749820E+01  0.15107532689E+01 -0.26258270372E+01  0.35998215136E+01  0.00000000000E+00 0.  1.
</event>
<event>
 7    1  0.4723144E-009  0.4778727E+02  0.7816164E-02  0.1312668E+00
        -11   -1    0    0    0    0  0.00000000000E+00  0.00000000000E+00  0.45593999997E+02  0.45594000000E+02  0.51100000000E-03 0.  1.
         11   -1    0    0    0    0 -0.00000000000E+00 -0.00000000000E+00 -0.45593999997E+02  0.45594000000E+02  0.51100000000E-03 0. -1.
    9900012    2    1    2    0    0  0.24132000430E+01  0.36920431337E+02  0.22686591774E+02  0.47787271540E+02  0.20000002259E+02 0.  0.
         12    1    1    2    0    0 -0.24132000430E+01 -0.36920431337E+02 -0.22686591774E+02  0.43400728460E+02  0.00000000000E+00 0. -1.
         11    1    3    3    0    0  0.61835414783E+01  0.24796307718E+02  0.17295508949E+02  0.30858186787E+02  0.51100000000E-03 0. -1.
        -11    1    3    3    0    0 -0.19038685464E+01  0.16253243005E+01  0.57377357773E+01  0.62600324788E+01  0.51100000000E-03 0.  1.
         12    1    3    3    0    0 -0.18664728888E+01  0.10498799318E+02 -0.34665295274E+00  0.10669052274E+02  0.00000000000E+00 0. -1.
</event>
<event>
 7    1  0.4723144E-009  0.4778727E+02  0.7816164E-02  0.1312668E+00
        -11   -1    0    0    0    0  0.00000000000E+00  0.00000000000E+00  0.45593999997E+02  0.45594000000E+02  0.51100000000E-03 0.  1.
         11   -1    0    0    0    0 -0.00000000000E+00 -0.00000000000E+00 -0.45593999997E+02  0.45594000000E+02  0.51100000000E-03 0. -1.
    9900012    2    1    2    0    0 -0.31874455650E+02  0.28058163898E+02  0.89655984850E+01  0.47787269124E+02  0.19999991245E+02 0.  0.
         12    1    1    2    0    0  0.31874455650E+02 -0.28058163898E+02 -0.89655984850E+01  0.43400730876E+02  0.00000000000E+00 0. -1.
         11    1    3    3    0    0 -0.15723573578E+02  0.16840640550E+02  0.76197813969E+01  0.24267241479E+02  0.51100000000E-03 0.  1.
        -11    1    3    3    0    0 -0.46973424094E+01 -0.14356874085E+01  0.38882456327E+01  0.62645573194E+01  0.51100000000E-03 0. -1.
        -12    1    3    3    0    0 -0.11453539663E+02  0.12653210757E+02 -0.25424285447E+01  0.17255470326E+02  0.00000000000E+00 0.  1.
</event>
<event>
 7    1  0.4723144E-009  0.4778726E+02  0.7816164E-02  0.1312668E+00
        -11   -1    0    0    0    0  0.00000000000E+00  0.00000000000E+00  0.45593999997E+02  0.45594000000E+02  0.51100000000E-03 0. -1.
         11   -1    0    0    0    0 -0.00000000000E+00 -0.00000000000E+00 -0.45593999997E+02  0.45594000000E+02  0.51100000000E-03 0.  1.
    9900012    2    1    2    0    0 -0.37812345794E+02 -0.18824237002E+02  0.99749070321E+01  0.47787260797E+02  0.19999953276E+02 0.  0.
         12    1    1    2    0    0  0.37812345794E+02  0.18824237002E+02 -0.99749070321E+01  0.43400739203E+02  0.00000000000E+00 0. -1.
         11    1    3    3    0    0 -0.97442843606E+01 -0.13566733613E+02  0.73196132436E+01  0.18236887808E+02  0.51100000000E-03 0. -1.
        -11    1    3    3    0    0 -0.21316014816E+02 -0.66146741669E+01  0.35711747901E+01  0.22602647889E+02  0.51100000000E-03 0.  1.
         12    1    3    3    0    0 -0.67520466174E+01  0.13571707788E+01 -0.91588100150E+00  0.69477250992E+01  0.00000000000E+00 0. -1.
</event>
<event>
 7    1  0.4723144E-009  0.4778728E+02  0.7816164E-02  0.1312668E+00
        -11   -1    0    0    0    0  0.00000000000E+00  0.00000000000E+00  0.45593999997E+02  0.45594000000E+02  0.51100000000E-03 0. -1.
         11   -1    0    0    0    0 -0.00000000000E+00 -0.00000000000E+00 -0.45593999997E+02  0.45594000000E+02  0.51100000000E-03 0.  1.
    9900012    2    1    2    0    0 -0.16615937394E+02  0.36282256989E+02 -0.17062570955E+02  0.47787275637E+02  0.20000020939E+02 0.  0.
         12    1    1    2    0    0  0.16615937394E+02 -0.36282256989E+02  0.17062570955E+02  0.43400724363E+02  0.00000000000E+00 0. -1.
         11    1    3    3    0    0 -0.12275509626E+02  0.12242642354E+02 -0.69006969784E+01  0.18659851217E+02  0.51100000000E-03 0. -1.
        -11    1    3    3    0    0 -0.74022819148E+00  0.22516202176E+02 -0.11089172996E+02  0.25109700440E+02  0.51100000000E-03 0.  1.
        -12    1    3    3    0    0 -0.36001995766E+01  0.15234124587E+01  0.92729901929E+00  0.40177239803E+01  0.00000000000E+00 0.  1.
</event>
<event>
 7    1  0.4723144E-009  0.4778727E+02  0.7816164E-02  0.1312668E+00
        -11   -1    0    0    0    0  0.00000000000E+00  0.00000000000E+00  0.45593999997E+02  0.45594000000E+02  0.51100000000E-03 0.  1.
         11   -1    0    0    0    0 -0.00000000000E+00 -0.00000000000E+00 -0.45593999997E+02  0.45594000000E+02  0.51100000000E-03 0. -1.
    9900012    2    1    2    0    0  0.32116193593E+02  0.67907794888E+01  0.28391170493E+02  0.47787272599E+02  0.20000007090E+02 0.  0.
         12    1    1    2    0    0 -0.32116193593E+02 -0.67907794888E+01 -0.28391170493E+02  0.43400727401E+02  0.00000000000E+00 0. -1.
         11    1    3    3    0    0  0.87256936332E+01 -0.35766701804E+01  0.13074186311E+02  0.16120317829E+02  0.51100000000E-03 0.  1.
        -11    1    3    3    0    0  0.91440768505E+01  0.37240669303E+01  0.22544924543E+00  0.98759122907E+01  0.51100000000E-03 0. -1.
        -12    1    3    3    0    0  0.14246423109E+02  0.66433827389E+01  0.15091534936E+02  0.21791042480E+02  0.00000000000E+00 0.  1.
</event>
<event>
 7    1  0.4723144E-009  0.4778727E+02  0.7816164E-02  0.1312668E+00
        -11   -1    0    0    0    0  0.00000000000E+00  0.00000000000E+00  0.45593999997E+02  0.45594000000E+02  0.51100000000E-03 0.  1.
         11   -1    0    0    0    0 -0.00000000000E+00 -0.00000000000E+00 -0.45593999997E+02  0.45594000000E+02  0.51100000000E-03 0. -1.
    9900012    2    1    2    0    0  0.71139179776E+01 -0.18212386560E+02  0.38746926242E+02  0.47787272513E+02  0.20000006697E+02 0.  0.
         12    1    1    2    0    0 -0.71139179776E+01  0.18212386560E+02 -0.38746926242E+02  0.43400727487E+02  0.00000000000E+00 0. -1.
         11    1    3    3    0    0  0.24402368309E+00  0.13718835679E+01  0.61973903718E+00  0.15250209235E+01  0.51100000000E-03 0. -1.
        -11    1    3    3    0    0  0.11403990303E+01 -0.71626896544E+01  0.18404893091E+01  0.74827825167E+01  0.51100000000E-03 0.  1.
        -12    1    3    3    0    0  0.57294952642E+01 -0.12421580474E+02  0.36286697895E+02  0.38779469073E+02  0.00000000000E+00 0.  1.
</event>
<event>
 7    1  0.4723144E-009  0.4778727E+02  0.7816164E-02  0.1312668E+00
        -11   -1    0    0    0    0  0.00000000000E+00  0.00000000000E+00  0.45593999997E+02  0.45594000000E+02  0.51100000000E-03 0.  1.
         11   -1    0    0    0    0 -0.00000000000E+00 -0.00000000000E+00 -0.45593999997E+02  0.45594000000E+02  0.51100000000E-03 0. -1.
    9900012    2    1    2    0    0 -0.20143818122E+02  0.12925444509E+02  0.36204734102E+02  0.47787270793E+02  0.19999998852E+02 0.  0.
         12    1    1    2    0    0  0.20143818122E+02 -0.12925444509E+02 -0.36204734102E+02  0.43400729207E+02  0.00000000000E+00 0. -1.
         11    1    3    3    0    0 -0.10178630584E+02  0.16740708306E+01  0.41259247604E+01  0.11109918502E+02  0.51100000000E-03 0. -1.
        -11    1    3    3    0    0 -0.33491609120E+01  0.93280186262E+01  0.12696273850E+02  0.16106650187E+02  0.51100000000E-03 0.  1.
         12    1    3    3    0    0 -0.66160266260E+01  0.19233550526E+01  0.19382535492E+02  0.20570702104E+02  0.00000000000E+00 0. -1.
</event>
<event>
 7    1  0.4723144E-009  0.4778727E+02  0.7816164E-02  0.1312668E+00
        -11   -1    0    0    0    0  0.00000000000E+00  0.00000000000E+00  0.45593999997E+02  0.45594000000E+02  0.51100000000E-03 0. -1.
         11   -1    0    0    0    0 -0.00000000000E+00 -0.00000000000E+00 -0.45593999997E+02  0.45594000000E+02  0.51100000000E-03 0.  1.
    9900012    2    1    2    0    0 -0.17890648791E+02 -0.31563350291E+02 -0.23818118930E+02  0.47787272067E+02  0.20000004663E+02 0.  0.
         12    1    1    2    0    0  0.17890648791E+02  0.31563350291E+02  0.23818118930E+02  0.43400727933E+02  0.00000000000E+00 0. -1.
         11    1    3    3    0    0 -0.98825911657E+01 -0.18009469139E+02 -0.86676813477E+01  0.22296530829E+02  0.51100000000E-03 0. -1.
        -11    1    3    3    0    0  0.34915406930E+01 -0.17697415859E+01 -0.40535064468E+01  0.56350471575E+01  0.51100000000E-03 0.  1.
        -12    1    3    3    0    0 -0.11499598318E+02 -0.11784139566E+02 -0.11096931135E+02  0.19855694080E+02  0.00000000000E+00 0.  1.
</event>
<event>
 7    1  0.4723144E-009  0.4778727E+02  0.7816164E-02  0.1312668E+00
        -11   -1    0    0    0    0  0.00000000000E+00  0.00000000000E+00  0.45593999997E+02  0.45594000000E+02  0.51100000000E-03 0.  1.
         11   -1    0    0    0    0 -0.00000000000E+00 -0.00000000000E+00 -0.45593999997E+02  0.45594000000E+02  0.51100000000E-03 0. -1.
    9900012    2    1    2    0    0 -0.27977410658E+02  0.31746887524E+02  0.96448427588E+01  0.47787269978E+02  0.19999995137E+02 0.  0.
         12    1    1    2    0    0  0.27977410658E+02 -0.31746887524E+02 -0.96448427588E+01  0.43400730022E+02  0.00000000000E+00 0. -1.
         11    1    3    3    0    0 -0.18663171557E+01 -0.13277925194E+01  0.54911032306E-01  0.22911106876E+01  0.51100000000E-03 0. -1.
        -11    1    3    3    0    0 -0.81959281365E+01  0.17058817081E+02 -0.15902495522E+01  0.18992245052E+02  0.51100000000E-03 0.  1.
        -12    1    3    3    0    0 -0.17915165366E+02  0.16015862963E+02  0.11180181279E+02  0.26503914238E+02  0.00000000000E+00 0.  1.
</event>
<event>
 7    1  0.4723144E-009  0.4778726E+02  0.7816164E-02  0.1312668E+00
        -11   -1    0    0    0    0  0.00000000000E+00  0.00000000000E+00  0.45593999997E+02  0.45594000000E+02  0.51100000000E-03 0. -1.
         11   -1    0    0    0    0 -0.00000000000E+00 -0.00000000000E+00 -0.45593999997E+02  0.45594000000E+02  0.51100000000E-03 0.  1.
    9900012    2    1    2    0    0  0.22256802592E+02 -0.37248892619E+02  0.88256967134E+00  0.47787260464E+02  0.19999951762E+02 0.  0.
         12    1    1    2    0    0 -0.22256802592E+02  0.37248892619E+02 -0.88256967134E+00  0.43400739536E+02  0.00000000000E+00 0. -1.
         11    1    3    3    0    0  0.86745104223E+01 -0.13866193541E+01 -0.12991755834E-01  0.87846464554E+01  0.51100000000E-03 0. -1.
        -11    1    3    3    0    0  0.12662966887E+02 -0.35294356252E+02 -0.15208430147E+00  0.37497539166E+02  0.51100000000E-03 0.  1.
        -12    1    3    3    0    0  0.91932528300E+00 -0.56791701331E+00  0.10476457286E+01  0.15050748429E+01  0.00000000000E+00 0.  1.
</event>
<event>
 7    1  0.4723144E-009  0.4778727E+02  0.7816164E-02  0.1312668E+00
        -11   -1    0    0    0    0  0.00000000000E+00  0.00000000000E+00  0.45593999997E+02  0.45594000000E+02  0.51100000000E-03 0.  1.
         11   -1    0    0    0    0 -0.00000000000E+00 -0.00000000000E+00 -0.45593999997E+02  0.45594000000E+02  0.51100000000E-03 0. -1.
    9900012    2    1    2    0    0 -0.18692781796E+02 -0.29920492822E+02  0.25277804755E+02  0.47787269647E+02  0.19999993628E+02 0.  0.
         12    1    1    2    0    0  0.18692781796E+02  0.29920492822E+02 -0.25277804755E+02  0.43400730353E+02  0.00000000000E+00 0. -1.
         11    1    3    3    0    0 -0.84272523254E+01 -0.18798270099E+02  0.59721630731E+01  0.21449015654E+02  0.51100000000E-03 0. -1.
        -11    1    3    3    0    0 -0.94313543443E+01 -0.10016579671E+02  0.10196886322E+02  0.17124800845E+02  0.51100000000E-03 0.  1.
         12    1    3    3    0    0 -0.83417512606E+00 -0.11056430513E+01  0.91087553601E+01  0.92134531479E+01  0.00000000000E+00 0. -1.
</event>
<event>
 7    1  0.4723144E-009  0.4778727E+02  0.7816164E-02  0.1312668E+00
        -11   -1    0    0    0    0  0.00000000000E+00  0.00000000000E+00  0.45593999997E+02  0.45594000000E+02  0.51100000000E-03 0. -1.
         11   -1    0    0    0    0 -0.00000000000E+00 -0.00000000000E+00 -0.45593999997E+02  0.45594000000E+02  0.51100000000E-03 0.  1.
    9900012    2    1    2    0    0  0.42525946742E+02 -0.73639570492E+01 -0.45759408032E+01  0.47787271389E+02  0.20000001570E+02 0.  0.
         12    1    1    2    0    0 -0.42525946742E+02  0.73639570492E+01  0.45759408032E+01  0.43400728611E+02  0.00000000000E+00 0. -1.
         11    1    3    3    0    0  0.21195533284E+02 -0.44378140199E+01 -0.10237849006E+02  0.23953253996E+02  0.51100000000E-03 0. -1.
        -11    1    3    3    0    0  0.12447174423E+02  0.16384911063E+01  0.58369515442E+01  0.13845100498E+02  0.51100000000E-03 0.  1.
         12    1    3    3    0    0  0.88832390356E+01 -0.45646341356E+01 -0.17504334140E+00  0.99889168946E+01  0.00000000000E+00 0. -1.
</event>
<event>
 7    1  0.4723144E-009  0.4778727E+02  0.7816164E-02  0.1312668E+00
        -11   -1    0    0    0    0  0.00000000000E+00  0.00000000000E+00  0.45593999997E+02  0.45594000000E+02  0.51100000000E-03 0. -1.
         11   -1    0    0    0    0 -0.00000000000E+00 -0.00000000000E+00 -0.45593999997E+02  0.45594000000E+02  0.51100000000E-03 0.  1.
    9900012    2    1    2    0    0 -0.41905187539E+02  0.10490242396E+02 -0.41872593382E+01  0.47787273405E+02  0.20000010763E+02 0.  0.
         12    1    1    2    0    0  0.41905187539E+02 -0.10490242396E+02  0.41872593382E+01  0.43400726595E+02  0.00000000000E+00 0. -1.
         11    1    3    3    0    0 -0.38029624377E+01 -0.38101399161E+01  0.28451884303E+01  0.60889068763E+01  0.51100000000E-03 0. -1.
        -11    1    3    3    0    0 -0.25952848859E+02  0.12445339503E+02 -0.42174176437E+01  0.29089920094E+02  0.51100000000E-03 0.  1.
         12    1    3    3    0    0 -0.12149376242E+02  0.18550428097E+01 -0.28150301247E+01  0.12608446435E+02  0.00000000000E+00 0. -1.
</event>
<event>
 7    1  0.4723144E-009  0.4778728E+02  0.7816164E-02  0.1312668E+00
        -11   -1    0    0    0    0  0.00000000000E+00  0.00000000000E+00  0.45593999997E+02  0.45594000000E+02  0.51100000000E-03 0.  1.
         11   -1    0    0    0    0 -0.00000000000E+00 -0.00000000000E+00 -0.45593999997E+02  0.45594000000E+02  0.51100000000E-03 0. -1.
    9900012    2    1    2    0    0 -0.26610276471E+02  0.29112985926E+02  0.18109392488E+02  0.47787275816E+02  0.20000021756E+02 0.  0.
         12    1    1    2    0    0  0.26610276471E+02 -0.29112985926E+02 -0.18109392488E+02  0.43400724184E+02  0.00000000000E+00 0. -1.
         11    1    3    3    0    0 -0.13813060365E+02  0.41113536043E+01  0.26802829465E+01  0.14659051198E+02  0.51100000000E-03 0. -1.
        -11    1    3    3    0    0 -0.59839316159E+01  0.19944643158E+02  0.11311396788E+02  0.23696918066E+02  0.51100000000E-03 0.  1.
        -12    1    3    3    0    0 -0.68132844904E+01  0.50569891642E+01  0.41177127531E+01  0.94313065517E+01  0.00000000000E+00 0.  1.
</event>
<event>
 7    1  0.4759687E-009  0.4778727E+02  0.7816164E-02  0.1312668E+00
        -11   -1    0    0    0    0  0.00000000000E+00  0.00000000000E+00  0.45593999997E+02  0.45594000000E+02  0.51100000000E-03 0.  1.
         11   -1    0    0    0    0 -0.00000000000E+00 -0.00000000000E+00 -0.45593999997E+02  0.45594000000E+02  0.51100000000E-03 0. -1.
    9900012    2    1    2    0    0 -0.32189545899E+02 -0.28575209848E+02  0.55600563554E+01  0.47787266024E+02  0.19999977109E+02 0.  0.
         12    1    1    2    0    0  0.32189545899E+02  0.28575209848E+02 -0.55600563554E+01  0.43400733976E+02  0.00000000000E+00 0. -1.
         11    1    3    3    0    0 -0.21030337756E+01  0.33979846453E+00  0.18576735595E+01  0.28265111662E+01  0.51100000000E-03 0. -1.
        -11    1    3    3    0    0 -0.35448208224E+01 -0.12549242041E+02  0.44251360887E+01  0.13770659394E+02  0.51100000000E-03 0.  1.
        -12    1    3    3    0    0 -0.26541691300E+02 -0.16365766271E+02 -0.72275329275E+00  0.31190095464E+02  0.00000000000E+00 0.  1.
</event>
<event>
 7    1  0.4723144E-009  0.4778726E+02  0.7816164E-02  0.1312668E+00
        -11   -1    0    0    0    0  0.00000000000E+00  0.00000000000E+00  0.45593999997E+02  0.45594000000E+02  0.51100000000E-03 0.  1.
         11   -1    0    0    0    0 -0.00000000000E+00 -0.00000000000E+00 -0.45593999997E+02  0.45594000000E+02  0.51100000000E-03 0. -1.
    9900012    2    1    2    0    0  0.93429492578E+01 -0.28527696454E+02  0.31344919192E+02  0.47787261240E+02  0.19999955297E+02 0.  0.
         12    1    1    2    0    0 -0.93429492578E+01  0.28527696454E+02 -0.31344919192E+02  0.43400738760E+02  0.00000000000E+00 0. -1.
         11    1    3    3    0    0  0.49571600031E+00 -0.71368585859E+00 -0.35209779429E+00  0.93757931696E+00  0.51100000000E-03 0. -1.
        -11    1    3    3    0    0  0.11982242968E+02 -0.10289484083E+02  0.20263769589E+02  0.25691788327E+02  0.51100000000E-03 0.  1.
        -12    1    3    3    0    0 -0.31350097105E+01 -0.17524526513E+02  0.11433247397E+02  0.21157893596E+02  0.00000000000E+00 0.  1.
</event>
<event>
 7    1  0.4723144E-009  0.4778727E+02  0.7816164E-02  0.1312668E+00
        -11   -1    0    0    0    0  0.00000000000E+00  0.00000000000E+00  0.45593999997E+02  0.45594000000E+02  0.51100000000E-03 0.  1.
         11   -1    0    0    0    0 -0.00000000000E+00 -0.00000000000E+00 -0.45593999997E+02  0.45594000000E+02  0.51100000000E-03 0. -1.
    9900012    2    1    2    0    0 -0.93931419376E+01  0.40345721986E+02  0.12946608775E+02  0.47787273315E+02  0.20000010352E+02 0.  0.
         12    1    1    2    0    0  0.93931419376E+01 -0.40345721986E+02 -0.12946608775E+02  0.43400726685E+02  0.00000000000E+00 0. -1.
         11    1    3    3    0    0 -0.51283476552E+01  0.74075259626E+01  0.30301462008E+01  0.95054288077E+01  0.51100000000E-03 0. -1.
        -11    1    3    3    0    0 -0.94844616531E+01  0.22475899630E+02  0.10536651586E+02  0.26573334453E+02  0.51100000000E-03 0.  1.
        -12    1    3    3    0    0  0.52196673707E+01  0.10462296393E+02 -0.62018901223E+00  0.11708510054E+02  0.00000000000E+00 0.  1.
</event>
<event>
 7    1  0.4723144E-009  0.4778727E+02  0.7816164E-02  0.1312668E+00
        -11   -1    0    0    0    0  0.00000000000E+00  0.00000000000E+00  0.45593999997E+02  0.45594000000E+02  0.51100000000E-03 0.  1.
         11   -1    0    0    0    0 -0.00000000000E+00 -0.00000000000E+00 -0.45593999997E+02  0.45594000000E+02  0.51100000000E-03 0. -1.
    9900012    2    1    2    0    0  0.38516547812E+02 -0.17153598802E+02  0.10288493064E+02  0.47787268477E+02  0.19999988293E+02 0.  0.
         12    1    1    2    0    0 -0.38516547812E+02  0.17153598802E+02 -0.10288493064E+02  0.43400731523E+02  0.00000000000E+00 0. -1.
         11    1    3    3    0    0  0.28730763261E+02 -0.97511340782E+01  0.23975535027E+01  0.30435006759E+02  0.51100000000E-03 0.  1.
        -11    1    3    3    0    0  0.72011991496E+01 -0.38543864534E+01  0.96329319917E+01  0.12629605819E+02  0.51100000000E-03 0. -1.
         12    1    3    3    0    0  0.25845854020E+01 -0.35480782703E+01 -0.17419924309E+01  0.47226558992E+01  0.00000000000E+00 0. -1.
</event>
<event>
 7    1  0.4723144E-009  0.4778726E+02  0.7816164E-02  0.1312668E+00
        -11   -1    0    0    0    0  0.00000000000E+00  0.00000000000E+00  0.45593999997E+02  0.45594000000E+02  0.51100000000E-03 0. -1.
         11   -1    0    0    0    0 -0.00000000000E+00 -0.00000000000E+00 -0.45593999997E+02  0.45594000000E+02  0.51100000000E-03 0.  1.
    9900012    2    1    2    0    0 -0.28192688114E+02 -0.19761371731E+02 -0.26425080322E+02  0.47787258695E+02  0.19999943694E+02 0.  0.
         12    1    1    2    0    0  0.28192688114E+02  0.19761371731E+02  0.26425080322E+02  0.43400741305E+02  0.00000000000E+00 0. -1.
         11    1    3    3    0    0  0.72351098051E+00  0.22322874633E+01 -0.51408562394E+01  0.56511041923E+01  0.51100000000E-03 0. -1.
        -11    1    3    3    0    0 -0.28249122160E+02 -0.21631264099E+02 -0.20593627147E+02  0.41109876778E+02  0.51100000000E-03 0.  1.
        -12    1    3    3    0    0 -0.66707693439E+00 -0.36239509502E+00 -0.69059693604E+00  0.10262777253E+01  0.00000000000E+00 0.  1.
</event>
<event>
 7    1  0.4723144E-009  0.4778727E+02  0.7816164E-02  0.1312668E+00
        -11   -1    0    0    0    0  0.00000000000E+00  0.00000000000E+00  0.45593999997E+02  0.45594000000E+02  0.51100000000E-03 0.  1.
         11   -1    0    0    0    0 -0.00000000000E+00 -0.00000000000E+00 -0.45593999997E+02  0.45594000000E+02  0.51100000000E-03 0. -1.
    9900012    2    1    2    0    0 -0.14453190549E+02  0.14782633582E+02  0.38160217158E+02  0.47787272516E+02  0.20000006707E+02 0.  0.
         12    1    1    2    0    0  0.14453190549E+02 -0.14782633582E+02 -0.38160217158E+02  0.43400727484E+02  0.00000000000E+00 0. -1.
         11    1    3    3    0    0 -0.35928072988E+01  0.89893342774E+01  0.68418507942E+01  0.11854421858E+02  0.51100000000E-03 0. -1.
        -11    1    3    3    0    0 -0.12645715667E+02  0.41357932882E+01  0.30640020913E+02  0.33404038569E+02  0.51100000000E-03 0.  1.
         12    1    3    3    0    0  0.17853324164E+01  0.16575060165E+01  0.67834544987E+00  0.25288120890E+01  0.00000000000E+00 0. -1.
</event>
<event>
 7    1  0.4723144E-009  0.4778725E+02  0.7816164E-02  0.1312668E+00
        -11   -1    0    0    0    0  0.00000000000E+00  0.00000000000E+00  0.45593999997E+02  0.45594000000E+02  0.51100000000E-03 0.  1.
         11   -1    0    0    0    0 -0.00000000000E+00 -0.00000000000E+00 -0.45593999997E+02  0.45594000000E+02  0.51100000000E-03 0. -1.
    9900012    2    1    2    0    0 -0.11340185620E+02 -0.16772661868E+02  0.38388835583E+02  0.47787254690E+02  0.19999925432E+02 0.  0.
         12    1    1    2    0    0  0.11340185620E+02  0.16772661868E+02 -0.38388835583E+02  0.43400745310E+02  0.00000000000E+00 0. -1.
         11    1    3    3    0    0 -0.11265826383E+02 -0.26069315742E+01  0.16316428855E+02  0.19998519624E+02  0.51100000000E-03 0. -1.
        -11    1    3    3    0    0  0.24335766616E+01 -0.11958510939E+02  0.20984745969E+02  0.24275251654E+02  0.51100000000E-03 0.  1.
        -12    1    3    3    0    0 -0.25079358987E+01 -0.22072193545E+01  0.10876607596E+01  0.35134834109E+01  0.00000000000E+00 0.  1.
</event>
<event>
 7    1  0.4723144E-009  0.4778727E+02  0.7816164E-02  0.1312668E+00
        -11   -1    0    0    0    0  0.00000000000E+00  0.00000000000E+00  0.45593999997E+02  0.45594000000E+02  0.51100000000E-03 0.  1.
         11   -1    0    0    0    0 -0.00000000000E+00 -0.00000000000E+00 -0.45593999997E+02  0.45594000000E+02  0.51100000000E-03 0. -1.
    9900012    2    1    2    0    0  0.55793025737E+01  0.11675062533E+02  0.41426892204E+02  0.47787273047E+02  0.20000009131E+02 0.  0.
         12    1    1    2    0    0 -0.55793025737E+01 -0.11675062533E+02 -0.41426892204E+02  0.43400726953E+02  0.00000000000E+00 0. -1.
         11    1    3    3    0    0  0.21842853306E+01  0.69347106945E+01  0.47762897896E+01  0.86990953115E+01  0.51100000000E-03 0. -1.
        -11    1    3    3    0    0  0.64052341079E+01  0.24026521967E+00  0.29097288242E+02  0.29794914577E+02  0.51100000000E-03 0.  1.
        -12    1    3    3    0    0 -0.30102168648E+01  0.45000866191E+01  0.75533141722E+01  0.92932631587E+01  0.00000000000E+00 0.  1.
</event>
<event>
 7    1  0.4723144E-009  0.4778722E+02  0.7816164E-02  0.1312668E+00
        -11   -1    0    0    0    0  0.00000000000E+00  0.00000000000E+00  0.45593999997E+02  0.45594000000E+02  0.51100000000E-03 0. -1.
         11   -1    0    0    0    0 -0.00000000000E+00 -0.00000000000E+00 -0.45593999997E+02  0.45594000000E+02  0.51100000000E-03 0.  1.
    9900012    2    1    2    0    0  0.20556910299E+02  0.32165120417E+02  0.20650566395E+02  0.47787223222E+02  0.19999781959E+02 0.  0.
         12    1    1    2    0    0 -0.20556910299E+02 -0.32165120417E+02 -0.20650566395E+02  0.43400776778E+02  0.00000000000E+00 0. -1.
         11    1    3    3    0    0  0.57843114067E+01  0.67651785314E+00 -0.12502688627E+01  0.59564341133E+01  0.51100000000E-03 0. -1.
        -11    1    3    3    0    0  0.94947107108E+01  0.25996677233E+02  0.14650016240E+02  0.31314529131E+02  0.51100000000E-03 0.  1.
        -12    1    3    3    0    0  0.52778881811E+01  0.54919253312E+01  0.72508190179E+01  0.10516259978E+02  0.00000000000E+00 0.  1.
</event>
<event>
 7    1  0.4723144E-009  0.4778726E+02  0.7816164E-02  0.1312668E+00
        -11   -1    0    0    0    0  0.00000000000E+00  0.00000000000E+00  0.45593999997E+02  0.45594000000E+02  0.51100000000E-03 0.  1.
         11   -1    0    0    0    0 -0.00000000000E+00 -0.00000000000E+00 -0.45593999997E+02  0.45594000000E+02  0.51100000000E-03 0. -1.
    9900012    2    1    2    0    0 -0.13785703683E+02  0.29623173058E+02  0.28566516004E+02  0.47787264469E+02  0.19999970019E+02 0.  0.
         12    1    1    2    0    0  0.13785703683E+02 -0.29623173058E+02 -0.28566516004E+02  0.43400735531E+02  0.00000000000E+00 0. -1.
         11    1    3    3    0    0  0.17241429968E+01  0.91529492799E+01  0.50688624819E+01  0.10603891584E+02  0.51100000000E-03 0. -1.
        -11    1    3    3    0    0 -0.14241844967E+02  0.13606491190E+02  0.22858756498E+02  0.30174318542E+02  0.51100000000E-03 0.  1.
        -12    1    3    3    0    0 -0.12680017128E+01  0.68637325880E+01  0.63889702439E+00  0.70090543436E+01  0.00000000000E+00 0.  1.
</event>
<event>
 7    1  0.4723144E-009  0.4778727E+02  0.7816164E-02  0.1312668E+00
        -11   -1    0    0    0    0  0.00000000000E+00  0.00000000000E+00  0.45593999997E+02  0.45594000000E+02  0.51100000000E-03 0.  1.
         11   -1    0    0    0    0 -0.00000000000E+00 -0.00000000000E+00 -0.45593999997E+02  0.45594000000E+02  0.51100000000E-03 0. -1.
    9900012    2    1    2    0    0 -0.26249729956E+02 -0.10487400152E+02 -0.32933100240E+02  0.47787274475E+02  0.20000015641E+02 0.  0.
         12    1    1    2    0    0  0.26249729956E+02  0.10487400152E+02  0.32933100240E+02  0.43400725525E+02  0.00000000000E+00 0. -1.
         11    1    3    3    0    0 -0.50460363876E+01 -0.15957347860E+01  0.21996127834E+01  0.57312432674E+01  0.51100000000E-03 0. -1.
        -11    1    3    3    0    0 -0.17621508875E+02 -0.67692599885E+01 -0.27391985400E+02  0.33266519509E+02  0.51100000000E-03 0.  1.
         12    1    3    3    0    0 -0.35821846929E+01 -0.21224053777E+01 -0.77407276233E+01  0.87895116985E+01  0.00000000000E+00 0. -1.
</event>
<event>
 7    1  0.4723144E-009  0.4778726E+02  0.7816164E-02  0.1312668E+00
        -11   -1    0    0    0    0  0.00000000000E+00  0.00000000000E+00  0.45593999997E+02  0.45594000000E+02  0.51100000000E-03 0.  1.
         11   -1    0    0    0    0 -0.00000000000E+00 -0.00000000000E+00 -0.45593999997E+02  0.45594000000E+02  0.51100000000E-03 0. -1.
    9900012    2    1    2    0    0 -0.28132619095E+02 -0.23724939793E+02  0.23006671740E+02  0.47787263026E+02  0.19999963439E+02 0.  0.
         12    1    1    2    0    0  0.28132619095E+02  0.23724939793E+02 -0.23006671740E+02  0.43400736974E+02  0.00000000000E+00 0. -1.
         11    1    3    3    0    0 -0.13717494168E+02 -0.17667091085E+02  0.21232644293E+02  0.30840248663E+02  0.51100000000E-03 0. -1.
        -11    1    3    3    0    0 -0.13509631759E+02 -0.51601948844E+01  0.34243828744E+01  0.14861499246E+02  0.51100000000E-03 0.  1.
         12    1    3    3    0    0 -0.90549316831E+00 -0.89765382389E+00 -0.16503554273E+01  0.20855151167E+01  0.00000000000E+00 0. -1.
</event>
<event>
 7    1  0.4723144E-009  0.4778727E+02  0.7816164E-02  0.1312668E+00
        -11   -1    0    0    0    0  0.00000000000E+00  0.00000000000E+00  0.45593999997E+02  0.45594000000E+02  0.51100000000E-03 0.  1.
         11   -1    0    0    0    0 -0.00000000000E+00 -0.00000000000E+00 -0.45593999997E+02  0.45594000000E+02  0.51100000000E-03 0. -1.
    9900012    2    1    2    0    0 -0.19402867098E+02 -0.34713437646E+02  0.17381871939E+02  0.47787268705E+02  0.19999989333E+02 0.  0.
         12    1    1    2    0    0  0.19402867098E+02  0.34713437646E+02 -0.17381871939E+02  0.43400731295E+02  0.00000000000E+00 0. -1.
         11    1    3    3    0    0 -0.14562599891E+02 -0.19987240864E+02  0.20811878421E+01  0.24817140368E+02  0.51100000000E-03 0.  1.
        -11    1    3    3    0    0 -0.55417410830E+01 -0.15265122704E+02  0.14657691792E+02  0.21876535245E+02  0.51100000000E-03 0. -1.
        -12    1    3    3    0    0  0.70147387521E+00  0.53892592198E+00  0.64299230453E+00  0.10935930919E+01  0.00000000000E+00 0.  1.
</event>
<event>
 7    1  0.4723144E-009  0.4778728E+02  0.7816164E-02  0.1312668E+00
        -11   -1    0    0    0    0  0.00000000000E+00  0.00000000000E+00  0.45593999997E+02  0.45594000000E+02  0.51100000000E-03 0.  1.
         11   -1    0    0    0    0 -0.00000000000E+00 -0.00000000000E+00 -0.45593999997E+02  0.45594000000E+02  0.51100000000E-03 0. -1.
    9900012    2    1    2    0    0 -0.35612095868E+02  0.17109760687E+02  0.17962673288E+02  0.47787275184E+02  0.20000018875E+02 0.  0.
         12    1    1    2    0    0  0.35612095868E+02 -0.17109760687E+02 -0.17962673288E+02  0.43400724816E+02  0.00000000000E+00 0. -1.
         11    1    3    3    0    0 -0.45347069235E+01 -0.13087354128E+01  0.12098356258E+01  0.48723770139E+01  0.51100000000E-03 0. -1.
        -11    1    3    3    0    0 -0.26616166084E+02  0.89619963862E+01  0.16249853632E+02  0.32446809082E+02  0.51100000000E-03 0.  1.
        -12    1    3    3    0    0 -0.44612228603E+01  0.94564997134E+01  0.50298403029E+00  0.10468089089E+02  0.00000000000E+00 0.  1.
</event>
<event>
 7    1  0.4723144E-009  0.4778727E+02  0.7816164E-02  0.1312668E+00
        -11   -1    0    0    0    0  0.00000000000E+00  0.00000000000E+00  0.45593999997E+02  0.45594000000E+02  0.51100000000E-03 0.  1.
         11   -1    0    0    0    0 -0.00000000000E+00 -0.00000000000E+00 -0.45593999997E+02  0.45594000000E+02  0.51100000000E-03 0. -1.
    9900012    2    1    2    0    0 -0.28332216373E+02 -0.24120276501E+02  0.22341014804E+02  0.47787272292E+02  0.20000005689E+02 0.  0.
         12    1    1    2    0    0  0.28332216373E+02  0.24120276501E+02 -0.22341014804E+02  0.43400727708E+02  0.00000000000E+00 0. -1.
         11    1    3    3    0    0  0.13783211012E+01 -0.20558777844E+01  0.63153315187E-01  0.24759626663E+01  0.51100000000E-03 0. -1.
        -11    1    3    3    0    0 -0.24844966921E+02 -0.23649999548E+02  0.20034745369E+02  0.39723870433E+02  0.51100000000E-03 0.  1.
        -12    1    3    3    0    0 -0.48655705530E+01  0.15856008317E+01  0.22431161205E+01  0.55874391929E+01  0.00000000000E+00 0.  1.
</event>
<event>
 7    1  0.4723144E-009  0.4778728E+02  0.7816164E-02  0.1312668E+00
        -11   -1    0    0    0    0  0.00000000000E+00  0.00000000000E+00  0.45593999997E+02  0.45594000000E+02  0.51100000000E-03 0.  1.
         11   -1    0    0    0    0 -0.00000000000E+00 -0.00000000000E+00 -0.45593999997E+02  0.45594000000E+02  0.51100000000E-03 0. -1.
    9900012    2    1    2    0    0  0.30746524024E+02  0.28513506648E+01  0.30498258758E+02  0.47787277340E+02  0.20000028703E+02 0.  0.
         12    1    1    2    0    0 -0.30746524024E+02 -0.28513506648E+01 -0.30498258758E+02  0.43400722660E+02  0.00000000000E+00 0. -1.
         11    1    3    3    0    0  0.14586321637E+02 -0.33619296296E+01  0.45966274865E+01  0.15658618529E+02  0.51100000000E-03 0. -1.
        -11    1    3    3    0    0  0.16808797010E+02  0.48710147170E+01  0.23467894206E+02  0.29274639195E+02  0.51100000000E-03 0.  1.
         12    1    3    3    0    0 -0.64859462220E+00  0.13422655774E+01  0.24337370655E+01  0.28540196159E+01  0.00000000000E+00 0. -1.
</event>
<event>
 7    1  0.4723144E-009  0.4778727E+02  0.7816164E-02  0.1312668E+00
        -11   -1    0    0    0    0  0.00000000000E+00  0.00000000000E+00  0.45593999997E+02  0.45594000000E+02  0.51100000000E-03 0.  1.
         11   -1    0    0    0    0 -0.00000000000E+00 -0.00000000000E+00 -0.45593999997E+02  0.45594000000E+02  0.51100000000E-03 0. -1.
    9900012    2    1    2    0    0  0.14282474675E+02  0.30731029945E+02  0.27115271857E+02  0.47787271294E+02  0.20000001137E+02 0.  0.
         12    1    1    2    0    0 -0.14282474675E+02 -0.30731029945E+02 -0.27115271857E+02  0.43400728706E+02  0.00000000000E+00 0. -1.
         11    1    3    3    0    0  0.94357080032E+01  0.49855650230E+01  0.17372460518E+01  0.10812329454E+02  0.51100000000E-03 0. -1.
        -11    1    3    3    0    0  0.25167490751E+01  0.22400506016E+02  0.19404914469E+02  0.29743358948E+02  0.51100000000E-03 0.  1.
        -12    1    3    3    0    0  0.23300175967E+01  0.33449589059E+01  0.59731113364E+01  0.72315828917E+01  0.00000000000E+00 0.  1.
</event>
<event>
 7    1  0.4723144E-009  0.4778727E+02  0.7816164E-02  0.1312668E+00
        -11   -1    0    0    0    0  0.00000000000E+00  0.00000000000E+00  0.45593999997E+02  0.45594000000E+02  0.51100000000E-03 0. -1.
         11   -1    0    0    0    0 -0.00000000000E+00 -0.00000000000E+00 -0.45593999997E+02  0.45594000000E+02  0.51100000000E-03 0.  1.
    9900012    2    1    2    0    0  0.27065960427E+02  0.10884643274E+02 -0.32133808841E+02  0.47787270241E+02  0.19999996336E+02 0.  0.
         12    1    1    2    0    0 -0.27065960427E+02 -0.10884643274E+02  0.32133808841E+02  0.43400729759E+02  0.00000000000E+00 0. -1.
         11    1    3    3    0    0  0.15879160136E+02  0.17861447364E+01 -0.10720270226E+02  0.19242199293E+02  0.51100000000E-03 0. -1.
        -11    1    3    3    0    0  0.13531751658E+02  0.65518304480E+01 -0.14890771579E+02  0.21160573330E+02  0.51100000000E-03 0.  1.
         12    1    3    3    0    0 -0.23449513678E+01  0.25466680894E+01 -0.65227670351E+01  0.73844976179E+01  0.00000000000E+00 0. -1.
</event>
<event>
 7    1  0.4723144E-009  0.4778727E+02  0.7816164E-02  0.1312668E+00
        -11   -1    0    0    0    0  0.00000000000E+00  0.00000000000E+00  0.45593999997E+02  0.45594000000E+02  0.51100000000E-03 0.  1.
         11   -1    0    0    0    0 -0.00000000000E+00 -0.00000000000E+00 -0.45593999997E+02  0.45594000000E+02  0.51100000000E-03 0. -1.
    9900012    2    1    2    0    0 -0.21642987033E+02  0.31393189708E+01  0.37487984758E+02  0.47787271751E+02  0.20000003221E+02 0.  0.
         12    1    1    2    0    0  0.21642987033E+02 -0.31393189708E+01 -0.37487984758E+02  0.43400728249E+02  0.00000000000E+00 0. -1.
         11    1    3    3    0    0 -0.12170266034E+01 -0.28224728288E+01 -0.14571249765E+01  0.34015761172E+01  0.51100000000E-03 0. -1.
        -11    1    3    3    0    0 -0.14709863060E+02  0.45025702135E+01  0.27548782403E+02  0.31552949497E+02  0.51100000000E-03 0.  1.
         12    1    3    3    0    0 -0.57160973688E+01  0.14592215861E+01  0.11396327332E+02  0.12832746137E+02  0.00000000000E+00 0. -1.
</event>
<event>
 7    1  0.4723144E-009  0.4778727E+02  0.7816164E-02  0.1312668E+00
        -11   -1    0    0    0    0  0.00000000000E+00  0.00000000000E+00  0.45593999997E+02  0.45594000000E+02  0.51100000000E-03 0.  1.
         11   -1    0    0    0    0 -0.00000000000E+00 -0.00000000000E+00 -0.45593999997E+02  0.45594000000E+02  0.51100000000E-03 0. -1.
    9900012    2    1    2    0    0  0.32512504976E+02 -0.15118458679E+00  0.28749570986E+02  0.47787266499E+02  0.19999979275E+02 0.  0.
         12    1    1    2    0    0 -0.32512504976E+02  0.15118458679E+00 -0.28749570986E+02  0.43400733501E+02  0.00000000000E+00 0. -1.
         11    1    3    3    0    0  0.15882237713E+02 -0.84354807810E+01  0.10730406675E+02  0.20941452635E+02  0.51100000000E-03 0. -1.
        -11    1    3    3    0    0  0.71618013939E+01  0.71023154489E+01  0.11462121412E+02  0.15268088010E+02  0.51100000000E-03 0.  1.
        -12    1    3    3    0    0  0.94684658687E+01  0.11819807452E+01  0.65570428983E+01  0.11577725854E+02  0.00000000000E+00 0.  1.
</event>
<event>
 7    1  0.4723144E-009  0.4778724E+02  0.7816164E-02  0.1312668E+00
        -11   -1    0    0    0    0  0.00000000000E+00  0.00000000000E+00  0.45593999997E+02  0.45594000000E+02  0.51100000000E-03 0. -1.
         11   -1    0    0    0    0 -0.00000000000E+00 -0.00000000000E+00 -0.45593999997E+02  0.45594000000E+02  0.51100000000E-03 0.  1.
    9900012    2    1    2    0    0 -0.32648259416E+02  0.28587274978E+02  0.69615217759E+00  0.47787242387E+02  0.19999869338E+02 0.  0.
         12    1    1    2    0    0  0.32648259416E+02 -0.28587274978E+02 -0.69615217759E+00  0.43400757613E+02  0.00000000000E+00 0. -1.
         11    1    3    3    0    0 -0.53648603019E+01 -0.13735080475E+01 -0.21609452944E+01  0.59445719141E+01  0.51100000000E-03 0. -1.
        -11    1    3    3    0    0 -0.21553712227E+02  0.21374091268E+02 -0.20276517402E+01  0.30422453223E+02  0.51100000000E-03 0.  1.
         12    1    3    3    0    0 -0.57296868873E+01  0.85866917577E+01  0.48847492122E+01  0.11420217250E+02  0.00000000000E+00 0. -1.
</event>
<event>
 7    1  0.4723144E-009  0.4778727E+02  0.7816164E-02  0.1312668E+00
        -11   -1    0    0    0    0  0.00000000000E+00  0.00000000000E+00  0.45593999997E+02  0.45594000000E+02  0.51100000000E-03 0.  1.
         11   -1    0    0    0    0 -0.00000000000E+00 -0.00000000000E+00 -0.45593999997E+02  0.45594000000E+02  0.51100000000E-03 0. -1.
    9900012    2    1    2    0    0  0.12397728907E+02  0.16069226465E+02  0.38362733674E+02  0.47787273553E+02  0.20000011436E+02 0.  0.
         12    1    1    2    0    0 -0.12397728907E+02 -0.16069226465E+02 -0.38362733674E+02  0.43400726447E+02  0.00000000000E+00 0. -1.
         11    1    3    3    0    0 -0.27791537921E+01  0.80181047279E+01  0.14199666737E+02  0.16542195590E+02  0.51100000000E-03 0. -1.
        -11    1    3    3    0    0  0.25927209576E+01  0.54396297372E+00  0.11737530227E+02  0.12032776644E+02  0.51100000000E-03 0.  1.
         12    1    3    3    0    0  0.12584161742E+02  0.75071587632E+01  0.12425536710E+02  0.19212301319E+02  0.00000000000E+00 0. -1.
</event>
<event>
 7    1  0.4723144E-009  0.4778726E+02  0.7816164E-02  0.1312668E+00
        -11   -1    0    0    0    0  0.00000000000E+00  0.00000000000E+00  0.45593999997E+02  0.45594000000E+02  0.51100000000E-03 0.  1.
         11   -1    0    0    0    0 -0.00000000000E+00 -0.00000000000E+00 -0.45593999997E+02  0.45594000000E+02  0.51100000000E-03 0. -1.
    9900012    2    1    2    0    0 -0.41847180942E+02  0.52847614474E+01  0.10222982434E+02  0.47787255465E+02  0.19999928968E+02 0.  0.
         12    1    1    2    0    0  0.41847180942E+02 -0.52847614474E+01 -0.10222982434E+02  0.43400744535E+02  0.00000000000E+00 0. -1.
         11    1    3    3    0    0 -0.10916701429E+02 -0.60249425374E+01  0.33421392844E+01  0.12909074247E+02  0.51100000000E-03 0. -1.
        -11    1    3    3    0    0 -0.21442394095E+02  0.82127661170E+01  0.37531910337E+00  0.22964465082E+02  0.51100000000E-03 0.  1.
        -12    1    3    3    0    0 -0.94880854182E+01  0.30969378678E+01  0.65055240460E+01  0.11913716136E+02  0.00000000000E+00 0.  1.
</event>
<event>
 7    1  0.4723144E-009  0.4778727E+02  0.7816164E-02  0.1312668E+00
        -11   -1    0    0    0    0  0.00000000000E+00  0.00000000000E+00  0.45593999997E+02  0.45594000000E+02  0.51100000000E-03 0.  1.
         11   -1    0    0    0    0 -0.00000000000E+00 -0.00000000000E+00 -0.45593999997E+02  0.45594000000E+02  0.51100000000E-03 0. -1.
    9900012    2    1    2    0    0  0.21247821707E+02 -0.29945872621E+02  0.23138665059E+02  0.47787273796E+02  0.20000012545E+02 0.  0.
         12    1    1    2    0    0 -0.21247821707E+02  0.29945872621E+02 -0.23138665059E+02  0.43400726204E+02  0.00000000000E+00 0. -1.
         11    1    3    3    0    0  0.67866324434E+01 -0.24637304290E+01  0.12336509925E+02  0.14293978625E+02  0.51100000000E-03 0. -1.
        -11    1    3    3    0    0  0.78338588981E+01 -0.19263000884E+02  0.47761013550E+01  0.21336440489E+02  0.51100000000E-03 0.  1.
        -12    1    3    3    0    0  0.66273303657E+01 -0.82191413077E+01  0.60260537785E+01  0.12156854682E+02  0.00000000000E+00 0.  1.
</event>
<event>
 7    1  0.4723144E-009  0.4778729E+02  0.7816164E-02  0.1312668E+00
        -11   -1    0    0    0    0  0.00000000000E+00  0.00000000000E+00  0.45593999997E+02  0.45594000000E+02  0.51100000000E-03 0. -1.
         11   -1    0    0    0    0 -0.00000000000E+00 -0.00000000000E+00 -0.45593999997E+02  0.45594000000E+02  0.51100000000E-03 0.  1.
    9900012    2    1    2    0    0 -0.22769256508E+02 -0.27413936190E+02 -0.24772130576E+02  0.47787292717E+02  0.20000098815E+02 0.  0.
         12    1    1    2    0    0  0.22769256508E+02  0.27413936190E+02  0.24772130576E+02  0.43400707283E+02  0.00000000000E+00 0. -1.
         11    1    3    3    0    0 -0.27039326598E+01 -0.97694680002E+01 -0.15497828692E+02  0.18518543444E+02  0.51100000000E-03 0.  1.
        -11    1    3    3    0    0 -0.18678370344E+02 -0.18064002376E+02 -0.97351634927E+01  0.27748209114E+02  0.51100000000E-03 0. -1.
         12    1    3    3    0    0 -0.13869535037E+01  0.41953418560E+00  0.46086160910E+00  0.15205401596E+01  0.00000000000E+00 0. -1.
</event>
<event>
 7    1  0.4723144E-009  0.4778727E+02  0.7816164E-02  0.1312668E+00
        -11   -1    0    0    0    0  0.00000000000E+00  0.00000000000E+00  0.45593999997E+02  0.45594000000E+02  0.51100000000E-03 0.  1.
         11   -1    0    0    0    0 -0.00000000000E+00 -0.00000000000E+00 -0.45593999997E+02  0.45594000000E+02  0.51100000000E-03 0. -1.
    9900012    2    1    2    0    0 -0.23892524194E+02  0.73469721151E+01  0.35479467027E+02  0.47787270834E+02  0.19999999041E+02 0.  0.
         12    1    1    2    0    0  0.23892524194E+02 -0.73469721151E+01 -0.35479467027E+02  0.43400729166E+02  0.00000000000E+00 0. -1.
         11    1    3    3    0    0 -0.16041763662E+02  0.50241989437E+01  0.14459059166E+02  0.22173072602E+02  0.51100000000E-03 0. -1.
        -11    1    3    3    0    0 -0.71494735374E+01 -0.32055888683E+01  0.17073143254E+02  0.18785180135E+02  0.51100000000E-03 0.  1.
        -12    1    3    3    0    0 -0.70128699448E+00  0.55283620396E+01  0.39472646071E+01  0.68290180969E+01  0.00000000000E+00 0.  1.
</event>
<event>
 7    1  0.4723144E-009  0.4778726E+02  0.7816164E-02  0.1312668E+00
        -11   -1    0    0    0    0  0.00000000000E+00  0.00000000000E+00  0.45593999997E+02  0.45594000000E+02  0.51100000000E-03 0.  1.
         11   -1    0    0    0    0 -0.00000000000E+00 -0.00000000000E+00 -0.45593999997E+02  0.45594000000E+02  0.51100000000E-03 0. -1.
    9900012    2    1    2    0    0 -0.20121135589E+01 -0.31233769671E+02  0.30067044119E+02  0.47787261402E+02  0.19999956036E+02 0.  0.
         12    1    1    2    0    0  0.20121135589E+01  0.31233769671E+02 -0.30067044119E+02  0.43400738598E+02  0.00000000000E+00 0. -1.
         11    1    3    3    0    0  0.35585459754E+01 -0.95850198119E+00  0.92606556678E+01  0.99670316126E+01  0.51100000000E-03 0. -1.
        -11    1    3    3    0    0 -0.17810364624E+00 -0.19578289441E+02  0.12186270179E+02  0.23061793501E+02  0.51100000000E-03 0.  1.
         12    1    3    3    0    0 -0.53925558880E+01 -0.10696978249E+02  0.86201182719E+01  0.14758436288E+02  0.00000000000E+00 0. -1.
</event>
<event>
 7    1  0.4723144E-009  0.4778727E+02  0.7816164E-02  0.1312668E+00
        -11   -1    0    0    0    0  0.00000000000E+00  0.00000000000E+00  0.45593999997E+02  0.45594000000E+02  0.51100000000E-03 0. -1.
         11   -1    0    0    0    0 -0.00000000000E+00 -0.00000000000E+00 -0.45593999997E+02  0.45594000000E+02  0.51100000000E-03 0.  1.
    9900012    2    1    2    0    0 -0.15575892621E+02  0.76657340249E+01 -0.39777526119E+02  0.47787268518E+02  0.19999988480E+02 0.  0.
         12    1    1    2    0    0  0.15575892621E+02 -0.76657340249E+01  0.39777526119E+02  0.43400731482E+02  0.00000000000E+00 0. -1.
         11    1    3    3    0    0 -0.10845258413E+02  0.54610934672E+01 -0.67103593177E+01  0.13873431239E+02  0.51100000000E-03 0. -1.
        -11    1    3    3    0    0 -0.26225411847E+01  0.36575294603E+01 -0.26224332188E+02  0.26607721492E+02  0.51100000000E-03 0.  1.
        -12    1    3    3    0    0 -0.21080930236E+01 -0.14528889025E+01 -0.68428346131E+01  0.73061157876E+01  0.00000000000E+00 0.  1.
</event>
<event>
 7    1  0.4723144E-009  0.4778727E+02  0.7816164E-02  0.1312668E+00
        -11   -1    0    0    0    0  0.00000000000E+00  0.00000000000E+00  0.45593999997E+02  0.45594000000E+02  0.51100000000E-03 0. -1.
         11   -1    0    0    0    0 -0.00000000000E+00 -0.00000000000E+00 -0.45593999997E+02  0.45594000000E+02  0.51100000000E-03 0.  1.
    9900012    2    1    2    0    0 -0.23271767160E+02 -0.19146164274E+02 -0.31232554792E+02  0.47787271527E+02  0.20000002201E+02 0.  0.
         12    1    1    2    0    0  0.23271767160E+02  0.19146164274E+02  0.31232554792E+02  0.43400728473E+02  0.00000000000E+00 0. -1.
         11    1    3    3    0    0  0.22216625103E+00  0.23698668079E+01 -0.73971736819E+00  0.24925506166E+01  0.51100000000E-03 0. -1.
        -11    1    3    3    0    0 -0.37435417507E+01 -0.32189675240E+01 -0.10995483040E+02  0.12053070326E+02  0.51100000000E-03 0.  1.
         12    1    3    3    0    0 -0.19750391660E+02 -0.18297063558E+02 -0.19497354385E+02  0.33241650584E+02  0.00000000000E+00 0. -1.
</event>
<event>
 7    1  0.4723144E-009  0.4778727E+02  0.7816164E-02  0.1312668E+00
        -11   -1    0    0    0    0  0.00000000000E+00  0.00000000000E+00  0.45593999997E+02  0.45594000000E+02  0.51100000000E-03 0.  1.
         11   -1    0    0    0    0 -0.00000000000E+00 -0.00000000000E+00 -0.45593999997E+02  0.45594000000E+02  0.51100000000E-03 0. -1.
    9900012    2    1    2    0    0 -0.33606931749E+02 -0.60202274779E+00  0.27456061687E+02  0.47787267099E+02  0.19999982011E+02 0.  0.
         12    1    1    2    0    0  0.33606931749E+02  0.60202274779E+00 -0.27456061687E+02  0.43400732901E+02  0.00000000000E+00 0. -1.
         11    1    3    3    0    0 -0.18992070425E+02 -0.92023576536E+00  0.25777346777E+02  0.32031502931E+02  0.51100000000E-03 0. -1.
        -11    1    3    3    0    0 -0.13688112114E+02  0.13498840034E+01  0.27208520138E+01  0.14021042615E+02  0.51100000000E-03 0.  1.
         12    1    3    3    0    0 -0.92674921035E+00 -0.10316709858E+01 -0.10421371042E+01  0.17347215528E+01  0.00000000000E+00 0. -1.
</event>
<event>
 7    1  0.4723144E-009  0.4778727E+02  0.7816164E-02  0.1312668E+00
        -11   -1    0    0    0    0  0.00000000000E+00  0.00000000000E+00  0.45593999997E+02  0.45594000000E+02  0.51100000000E-03 0.  1.
         11   -1    0    0    0    0 -0.00000000000E+00 -0.00000000000E+00 -0.45593999997E+02  0.45594000000E+02  0.51100000000E-03 0. -1.
    9900012    2    1    2    0    0  0.15077248979E+02  0.34014111158E+02  0.22345918021E+02  0.47787271356E+02  0.20000001419E+02 0.  0.
         12    1    1    2    0    0 -0.15077248979E+02 -0.34014111158E+02 -0.22345918021E+02  0.43400728644E+02  0.00000000000E+00 0. -1.
         11    1    3    3    0    0  0.10326557947E+02  0.81169253011E+01  0.31259363584E+01  0.13501620412E+02  0.51100000000E-03 0. -1.
        -11    1    3    3    0    0  0.53783213691E+01  0.25046655926E+02  0.14474793369E+02  0.29424156014E+02  0.51100000000E-03 0.  1.
        -12    1    3    3    0    0 -0.62763033701E+00  0.85052993123E+00  0.47451882939E+01  0.48614949294E+01  0.00000000000E+00 0.  1.
</event>
<event>
 7    1  0.4723144E-009  0.4778729E+02  0.7816164E-02  0.1312668E+00
        -11   -1    0    0    0    0  0.00000000000E+00  0.00000000000E+00  0.45593999997E+02  0.45594000000E+02  0.51100000000E-03 0.  1.
         11   -1    0    0    0    0 -0.00000000000E+00 -0.00000000000E+00 -0.45593999997E+02  0.45594000000E+02  0.51100000000E-03 0. -1.
    9900012    2    1    2    0    0  0.23320842892E+02  0.51727821493E+01  0.36235376145E+02  0.47787287186E+02  0.20000073597E+02 0.  0.
         12    1    1    2    0    0 -0.23320842892E+02 -0.51727821493E+01 -0.36235376145E+02  0.43400712814E+02  0.00000000000E+00 0. -1.
         11    1    3    3    0    0  0.13251465573E+02  0.98034228914E+01  0.13385058689E+02  0.21233658107E+02  0.51100000000E-03 0. -1.
        -11    1    3    3    0    0  0.18294514805E+01  0.14408422608E+01  0.12314052770E+01  0.26342510051E+01  0.51100000000E-03 0.  1.
         12    1    3    3    0    0  0.82399258387E+01 -0.60714830029E+01  0.21618912179E+02  0.23919378075E+02  0.00000000000E+00 0. -1.
</event>
<event>
 7    1  0.4723144E-009  0.4778727E+02  0.7816164E-02  0.1312668E+00
        -11   -1    0    0    0    0  0.00000000000E+00  0.00000000000E+00  0.45593999997E+02  0.45594000000E+02  0.51100000000E-03 0.  1.
         11   -1    0    0    0    0 -0.00000000000E+00 -0.00000000000E+00 -0.45593999997E+02  0.45594000000E+02  0.51100000000E-03 0. -1.
    9900012    2    1    2    0    0 -0.38644939407E+02 -0.16618292679E+02  0.10678222283E+02  0.47787269310E+02  0.19999992091E+02 0.  0.
         12    1    1    2    0    0  0.38644939407E+02  0.16618292679E+02 -0.10678222283E+02  0.43400730690E+02  0.00000000000E+00 0. -1.
         11    1    3    3    0    0  0.75565107973E+00 -0.11718688095E+00 -0.76077323681E+00  0.10786646830E+01  0.51100000000E-03 0. -1.
        -11    1    3    3    0    0 -0.90192510847E+01 -0.12346838628E+01  0.87082391706E+01  0.12597807908E+02  0.51100000000E-03 0.  1.
        -12    1    3    3    0    0 -0.30381339402E+02 -0.15266421935E+02  0.27307563496E+01  0.34110796719E+02  0.00000000000E+00 0.  1.
</event>
<event>
 7    1  0.4723144E-009  0.4778727E+02  0.7816164E-02  0.1312668E+00
        -11   -1    0    0    0    0  0.00000000000E+00  0.00000000000E+00  0.45593999997E+02  0.45594000000E+02  0.51100000000E-03 0. -1.
         11   -1    0    0    0    0 -0.00000000000E+00 -0.00000000000E+00 -0.45593999997E+02  0.45594000000E+02  0.51100000000E-03 0.  1.
    9900012    2    1    2    0    0  0.21314672481E+02  0.20881525086E+02 -0.31516186221E+02  0.47787270204E+02  0.19999996169E+02 0.  0.
         12    1    1    2    0    0 -0.21314672481E+02 -0.20881525086E+02  0.31516186221E+02  0.43400729796E+02  0.00000000000E+00 0. -1.
         11    1    3    3    0    0  0.17845556292E+02  0.19412383128E+02 -0.19252936890E+02  0.32649350334E+02  0.51100000000E-03 0. -1.
        -11    1    3    3    0    0 -0.18932231458E+01  0.95323648278E+00 -0.79766002299E+01  0.82534299028E+01  0.51100000000E-03 0.  1.
         12    1    3    3    0    0  0.53623393339E+01  0.51590547569E+00 -0.42866491014E+01  0.68844899673E+01  0.00000000000E+00 0. -1.
</event>
<event>
 7    1  0.4723144E-009  0.4778727E+02  0.7816164E-02  0.1312668E+00
        -11   -1    0    0    0    0  0.00000000000E+00  0.00000000000E+00  0.45593999997E+02  0.45594000000E+02  0.51100000000E-03 0.  1.
         11   -1    0    0    0    0 -0.00000000000E+00 -0.00000000000E+00 -0.45593999997E+02  0.45594000000E+02  0.51100000000E-03 0. -1.
    9900012    2    1    2    0    0 -0.71492620316E+01  0.40454216441E+02 -0.13998838702E+02  0.47787273503E+02  0.20000011209E+02 0.  0.
         12    1    1    2    0    0  0.71492620316E+01 -0.40454216441E+02  0.13998838702E+02  0.43400726497E+02  0.00000000000E+00 0. -1.
         11    1    3    3    0    0  0.16631483017E+01  0.13881421563E+01  0.28399915863E+01  0.35719117278E+01  0.51100000000E-03 0. -1.
        -11    1    3    3    0    0 -0.46679134704E+01  0.26656714418E+02 -0.73169699125E+01  0.28034048739E+02  0.51100000000E-03 0.  1.
        -12    1    3    3    0    0 -0.41444968629E+01  0.12409359867E+02 -0.95218603762E+01  0.16181313036E+02  0.00000000000E+00 0.  1.
</event>
<event>
 7    1  0.4723144E-009  0.4778727E+02  0.7816164E-02  0.1312668E+00
        -11   -1    0    0    0    0  0.00000000000E+00  0.00000000000E+00  0.45593999997E+02  0.45594000000E+02  0.51100000000E-03 0.  1.
         11   -1    0    0    0    0 -0.00000000000E+00 -0.00000000000E+00 -0.45593999997E+02  0.45594000000E+02  0.51100000000E-03 0. -1.
    9900012    2    1    2    0    0 -0.83546061012E+01  0.10537297513E+02  0.41264865441E+02  0.47787271875E+02  0.20000003785E+02 0.  0.
         12    1    1    2    0    0  0.83546061012E+01 -0.10537297513E+02 -0.41264865441E+02  0.43400728125E+02  0.00000000000E+00 0. -1.
         11    1    3    3    0    0 -0.96743630023E+00 -0.35931906285E+01  0.15540532779E+01  0.40326211996E+01  0.51100000000E-03 0. -1.
        -11    1    3    3    0    0 -0.22116240497E+01  0.40706546123E+01  0.23710417785E+02  0.24158754556E+02  0.51100000000E-03 0.  1.
         12    1    3    3    0    0 -0.51755457513E+01  0.10059833529E+02  0.16000394378E+02  0.19595896119E+02  0.00000000000E+00 0. -1.
</event>
<event>
 7    1  0.4723144E-009  0.4778727E+02  0.7816164E-02  0.1312668E+00
        -11   -1    0    0    0    0  0.00000000000E+00  0.00000000000E+00  0.45593999997E+02  0.45594000000E+02  0.51100000000E-03 0. -1.
         11   -1    0    0    0    0 -0.00000000000E+00 -0.00000000000E+00 -0.45593999997E+02  0.45594000000E+02  0.51100000000E-03 0.  1.
    9900012    2    1    2    0    0  0.85407604747E+00  0.19408087490E+02 -0.38810050600E+02  0.47787270358E+02  0.19999996869E+02 0.  0.
         12    1    1    2    0    0 -0.85407604747E+00 -0.19408087490E+02  0.38810050600E+02  0.43400729642E+02  0.00000000000E+00 0. -1.
         11    1    3    3    0    0  0.23849327366E+01  0.62554266667E+00  0.84563432650E+00  0.26065888554E+01  0.51100000000E-03 0. -1.
        -11    1    3    3    0    0 -0.59233631009E+01  0.13294032853E+02 -0.28353135235E+02  0.31870328173E+02  0.51100000000E-03 0.  1.
         12    1    3    3    0    0  0.43925064118E+01  0.54885119701E+01 -0.11302549691E+02  0.13310353329E+02  0.00000000000E+00 0. -1.
</event>
<event>
 7    1  0.4723144E-009  0.4778727E+02  0.7816164E-02  0.1312668E+00
        -11   -1    0    0    0    0  0.00000000000E+00  0.00000000000E+00  0.45593999997E+02  0.45594000000E+02  0.51100000000E-03 0.  1.
         11   -1    0    0    0    0 -0.00000000000E+00 -0.00000000000E+00 -0.45593999997E+02  0.45594000000E+02  0.51100000000E-03 0. -1.
    9900012    2    1    2    0    0 -0.33722059060E+02  0.24968861119E+02 -0.11090617844E+02  0.47787273082E+02  0.20000009291E+02 0.  0.
         12    1    1    2    0    0  0.33722059060E+02 -0.24968861119E+02  0.11090617844E+02  0.43400726918E+02  0.00000000000E+00 0. -1.
         11    1    3    3    0    0 -0.40551575783E+01 -0.10518637875E+01  0.59704127134E+00  0.42316874830E+01  0.51100000000E-03 0. -1.
        -11    1    3    3    0    0 -0.26811547792E+02  0.16337406014E+02 -0.11565284842E+02  0.33459314757E+02  0.51100000000E-03 0.  1.
        -12    1    3    3    0    0 -0.28553536900E+01  0.96833188919E+01 -0.12237427302E+00  0.10096270842E+02  0.00000000000E+00 0.  1.
</event>
<event>
 7    1  0.4723144E-009  0.4778722E+02  0.7816164E-02  0.1312668E+00
        -11   -1    0    0    0    0  0.00000000000E+00  0.00000000000E+00  0.45593999997E+02  0.45594000000E+02  0.51100000000E-03 0.  1.
         11   -1    0    0    0    0 -0.00000000000E+00 -0.00000000000E+00 -0.45593999997E+02  0.45594000000E+02  0.51100000000E-03 0. -1.
    9900012    2    1    2    0    0 -0.95852336540E+01 -0.84069391388E+01  0.41485832521E+02  0.47787220861E+02  0.19999771192E+02 0.  0.
         12    1    1    2    0    0  0.95852336540E+01  0.84069391388E+01 -0.41485832521E+02  0.43400779139E+02  0.00000000000E+00 0. -1.
         11    1    3    3    0    0  0.10874856133E+00 -0.28190136359E+01  0.96735004735E+00  0.29823531824E+01  0.51100000000E-03 0. -1.
        -11    1    3    3    0    0 -0.10180305576E+02 -0.53580842996E+01  0.41832218525E+02  0.43385276258E+02  0.51100000000E-03 0.  1.
        -12    1    3    3    0    0  0.48632336032E+00 -0.22984120322E+00 -0.13137360512E+01  0.14195914207E+01  0.00000000000E+00 0.  1.
</event>
<event>
 7    1  0.4723144E-009  0.4778727E+02  0.7816164E-02  0.1312668E+00
        -11   -1    0    0    0    0  0.00000000000E+00  0.00000000000E+00  0.45593999997E+02  0.45594000000E+02  0.51100000000E-03 0.  1.
         11   -1    0    0    0    0 -0.00000000000E+00 -0.00000000000E+00 -0.45593999997E+02  0.45594000000E+02  0.51100000000E-03 0. -1.
    9900012    2    1    2    0    0 -0.14662469546E+02 -0.23825390814E+02  0.33181110431E+02  0.47787270167E+02  0.19999995998E+02 0.  0.
         12    1    1    2    0    0  0.14662469546E+02  0.23825390814E+02 -0.33181110431E+02  0.43400729833E+02  0.00000000000E+00 0. -1.
         11    1    3    3    0    0 -0.24718087354E+01 -0.14009764691E+01  0.31879832528E+01  0.42703408497E+01  0.51100000000E-03 0. -1.
        -11    1    3    3    0    0 -0.14505971007E+02 -0.22347355029E+02  0.31098183322E+02  0.40950268349E+02  0.51100000000E-03 0.  1.
        -12    1    3    3    0    0  0.23153101964E+01 -0.77059315370E-01 -0.11050561437E+01  0.25666609679E+01  0.00000000000E+00 0.  1.
</event>
<event>
 7    1  0.4723144E-009  0.4778727E+02  0.7816164E-02  0.1312668E+00
        -11   -1    0    0    0    0  0.00000000000E+00  0.00000000000E+00  0.45593999997E+02  0.45594000000E+02  0.51100000000E-03 0. -1.
         11   -1    0    0    0    0 -0.00000000000E+00 -0.00000000000E+00 -0.45593999997E+02  0.45594000000E+02  0.51100000000E-03 0.  1.
    9900012    2    1    2    0    0 -0.32806970482E+02  0.10591384989E+01 -0.28393738497E+02  0.47787268757E+02  0.19999989572E+02 0.  0.
         12    1    1    2    0    0  0.32806970482E+02 -0.10591384989E+01  0.28393738497E+02  0.43400731243E+02  0.00000000000E+00 0. -1.
         11    1    3    3    0    0  0.62150738050E+00 -0.26739189363E+01  0.11862765404E+01  0.29905461363E+01  0.51100000000E-03 0. -1.
        -11    1    3    3    0    0 -0.28306406930E+02  0.29407863653E+01 -0.24999239556E+02  0.37879583899E+02  0.51100000000E-03 0.  1.
         12    1    3    3    0    0 -0.51220709327E+01  0.79227106984E+00 -0.45807754815E+01  0.69171387220E+01  0.00000000000E+00 0. -1.
</event>
<event>
 7    1  0.4723144E-009  0.4778727E+02  0.7816164E-02  0.1312668E+00
        -11   -1    0    0    0    0  0.00000000000E+00  0.00000000000E+00  0.45593999997E+02  0.45594000000E+02  0.51100000000E-03 0.  1.
         11   -1    0    0    0    0 -0.00000000000E+00 -0.00000000000E+00 -0.45593999997E+02  0.45594000000E+02  0.51100000000E-03 0. -1.
    9900012    2    1    2    0    0 -0.35873921245E+02 -0.12626620266E+02  0.20910615366E+02  0.47787267290E+02  0.19999982882E+02 0.  0.
         12    1    1    2    0    0  0.35873921245E+02  0.12626620266E+02 -0.20910615366E+02  0.43400732710E+02  0.00000000000E+00 0. -1.
         11    1    3    3    0    0 -0.42856977451E+01 -0.92546524350E+00  0.11230905612E+02  0.12056406272E+02  0.51100000000E-03 0. -1.
        -11    1    3    3    0    0 -0.17515912322E+02 -0.68073896073E+01  0.18046013335E+01  0.18878673787E+02  0.51100000000E-03 0.  1.
        -12    1    3    3    0    0 -0.14072311178E+02 -0.48937654151E+01  0.78751084207E+01  0.16852187231E+02  0.00000000000E+00 0.  1.
</event>
<event>
 7    1  0.4723144E-009  0.4778727E+02  0.7816164E-02  0.1312668E+00
        -11   -1    0    0    0    0  0.00000000000E+00  0.00000000000E+00  0.45593999997E+02  0.45594000000E+02  0.51100000000E-03 0. -1.
         11   -1    0    0    0    0 -0.00000000000E+00 -0.00000000000E+00 -0.45593999997E+02  0.45594000000E+02  0.51100000000E-03 0.  1.
    9900012    2    1    2    0    0  0.42516203883E+02  0.74486627515E+01  0.45291271204E+01  0.47787272335E+02  0.20000005882E+02 0.  0.
         12    1    1    2    0    0 -0.42516203883E+02 -0.74486627515E+01 -0.45291271204E+01  0.43400727665E+02  0.00000000000E+00 0. -1.
         11    1    3    3    0    0  0.17961876304E+02  0.64504087808E+00  0.88505041439E+01  0.20034382994E+02  0.51100000000E-03 0. -1.
        -11    1    3    3    0    0  0.22262906542E+02  0.88575152387E+01 -0.52697120297E+01  0.24532885053E+02  0.51100000000E-03 0.  1.
        -12    1    3    3    0    0  0.22914210371E+01 -0.20538933652E+01  0.94833500623E+00  0.32200042871E+01  0.00000000000E+00 0.  1.
</event>
<event>
 7    1  0.4723144E-009  0.4778727E+02  0.7816164E-02  0.1312668E+00
        -11   -1    0    0    0    0  0.00000000000E+00  0.00000000000E+00  0.45593999997E+02  0.45594000000E+02  0.51100000000E-03 0.  1.
         11   -1    0    0    0    0 -0.00000000000E+00 -0.00000000000E+00 -0.45593999997E+02  0.45594000000E+02  0.51100000000E-03 0. -1.
    9900012    2    1    2    0    0  0.19202023074E+02 -0.17878167538E+02  0.34572776605E+02  0.47787269052E+02  0.19999990917E+02 0.  0.
         12    1    1    2    0    0 -0.19202023074E+02  0.17878167538E+02 -0.34572776605E+02  0.43400730948E+02  0.00000000000E+00 0. -1.
         11    1    3    3    0    0  0.11691406522E+02 -0.12337027142E+01  0.14857125969E+02  0.18945849180E+02  0.51100000000E-03 0. -1.
        -11    1    3    3    0    0  0.69648295657E+01 -0.18130452605E+02  0.17692624701E+02  0.26272630847E+02  0.51100000000E-03 0.  1.
         12    1    3    3    0    0  0.54578698679E+00  0.14859877820E+01  0.20230259348E+01  0.25687890252E+01  0.00000000000E+00 0. -1.
</event>
<event>
 7    1  0.4723144E-009  0.4778727E+02  0.7816164E-02  0.1312668E+00
        -11   -1    0    0    0    0  0.00000000000E+00  0.00000000000E+00  0.45593999997E+02  0.45594000000E+02  0.51100000000E-03 0.  1.
         11   -1    0    0    0    0 -0.00000000000E+00 -0.00000000000E+00 -0.45593999997E+02  0.45594000000E+02  0.51100000000E-03 0. -1.
    9900012    2    1    2    0    0  0.23534308723E+01 -0.40078137138E+02  0.16487195567E+02  0.47787270387E+02  0.19999997001E+02 0.  0.
         12    1    1    2    0    0 -0.23534308723E+01  0.40078137138E+02 -0.16487195567E+02  0.43400729613E+02  0.00000000000E+00 0. -1.
         11    1    3    3    0    0 -0.51124531632E+01 -0.13999978147E+02  0.86413738502E+01  0.17228171921E+02  0.51100000000E-03 0. -1.
        -11    1    3    3    0    0  0.76770356761E+01 -0.26749059456E+02  0.58421118222E+01  0.28435529349E+02  0.51100000000E-03 0.  1.
        -12    1    3    3    0    0 -0.21115164064E+00  0.67090046570E+00  0.20037098944E+01  0.21235691162E+01  0.00000000000E+00 0.  1.
</event>
<event>
 7    1  0.4723144E-009  0.4778728E+02  0.7816164E-02  0.1312668E+00
        -11   -1    0    0    0    0  0.00000000000E+00  0.00000000000E+00  0.45593999997E+02  0.45594000000E+02  0.51100000000E-03 0.  1.
         11   -1    0    0    0    0 -0.00000000000E+00 -0.00000000000E+00 -0.45593999997E+02  0.45594000000E+02  0.51100000000E-03 0. -1.
    9900012    2    1    2    0    0 -0.26203447223E+02 -0.16390597019E+01  0.34558873501E+02  0.47787275343E+02  0.20000019600E+02 0.  0.
         12    1    1    2    0    0  0.26203447223E+02  0.16390597019E+01 -0.34558873501E+02  0.43400724657E+02  0.00000000000E+00 0. -1.
         11    1    3    3    0    0 -0.16339584391E+02 -0.80824853371E+01  0.18774924728E+02  0.26168805592E+02  0.51100000000E-03 0. -1.
        -11    1    3    3    0    0 -0.91587901460E+01  0.19867290632E+01  0.13818751741E+02  0.16696958682E+02  0.51100000000E-03 0.  1.
         12    1    3    3    0    0 -0.70507268547E+00  0.44566965720E+01  0.19651970321E+01  0.49215110689E+01  0.00000000000E+00 0. -1.
</event>
<event>
 7    1  0.4723144E-009  0.4778727E+02  0.7816164E-02  0.1312668E+00
        -11   -1    0    0    0    0  0.00000000000E+00  0.00000000000E+00  0.45593999997E+02  0.45594000000E+02  0.51100000000E-03 0.  1.
         11   -1    0    0    0    0 -0.00000000000E+00 -0.00000000000E+00 -0.45593999997E+02  0.45594000000E+02  0.51100000000E-03 0. -1.
    9900012    2    1    2    0    0  0.16779865340E+02 -0.84645703876E+01  0.39120463415E+02  0.47787268549E+02  0.19999988623E+02 0.  0.
         12    1    1    2    0    0 -0.16779865340E+02  0.84645703876E+01 -0.39120463415E+02  0.43400731451E+02  0.00000000000E+00 0. -1.
         11    1    3    3    0    0 -0.27686502769E+01 -0.53339373397E+01  0.54940809450E+01  0.81425571899E+01  0.51100000000E-03 0.  1.
        -11    1    3    3    0    0  0.17296748918E+02 -0.40802809681E+01  0.32294846755E+02  0.36861678517E+02  0.51100000000E-03 0. -1.
         12    1    3    3    0    0  0.22517666993E+01  0.94964792024E+00  0.13315357150E+01  0.27830328422E+01  0.00000000000E+00 0. -1.
</event>
<event>
 7    1  0.4723144E-009  0.4778727E+02  0.7816164E-02  0.1312668E+00
        -11   -1    0    0    0    0  0.00000000000E+00  0.00000000000E+00  0.45593999997E+02  0.45594000000E+02  0.51100000000E-03 0.  1.
         11   -1    0    0    0    0 -0.00000000000E+00 -0.00000000000E+00 -0.45593999997E+02  0.45594000000E+02  0.51100000000E-03 0. -1.
    9900012    2    1    2    0    0  0.51115178987E+01  0.40246325581E+02  0.15418460149E+02  0.47787271304E+02  0.20000001184E+02 0.  0.
         12    1    1    2    0    0 -0.51115178987E+01 -0.40246325581E+02 -0.15418460149E+02  0.43400728696E+02  0.00000000000E+00 0. -1.
         11    1    3    3    0    0  0.61311087953E+01  0.35683434869E+02  0.90552663169E+01  0.37321520165E+02  0.51100000000E-03 0. -1.
        -11    1    3    3    0    0  0.11614633623E+01  0.44216031763E+01  0.68415514527E+01  0.82283897776E+01  0.51100000000E-03 0.  1.
         12    1    3    3    0    0 -0.21810542590E+01  0.14128753564E+00 -0.47835762106E+00  0.22373613615E+01  0.00000000000E+00 0. -1.
</event>
<event>
 7    1  0.4723144E-009  0.4778727E+02  0.7816164E-02  0.1312668E+00
        -11   -1    0    0    0    0  0.00000000000E+00  0.00000000000E+00  0.45593999997E+02  0.45594000000E+02  0.51100000000E-03 0.  1.
         11   -1    0    0    0    0 -0.00000000000E+00 -0.00000000000E+00 -0.45593999997E+02  0.45594000000E+02  0.51100000000E-03 0. -1.
    9900012    2    1    2    0    0 -0.11867320242E+02  0.21037851544E+02  0.36058271545E+02  0.47787269198E+02  0.19999991583E+02 0.  0.
         12    1    1    2    0    0  0.11867320242E+02 -0.21037851544E+02 -0.36058271545E+02  0.43400730802E+02  0.00000000000E+00 0. -1.
         11    1    3    3    0    0 -0.16662793665E+01  0.12414754627E+02  0.79101333621E+01  0.14814615400E+02  0.51100000000E-03 0. -1.
        -11    1    3    3    0    0 -0.98357868971E+01  0.11004996900E+02  0.24387907403E+02  0.28506537643E+02  0.51100000000E-03 0.  1.
         12    1    3    3    0    0 -0.36525397852E+00 -0.23818999829E+01  0.37602307796E+01  0.44661161554E+01  0.00000000000E+00 0. -1.
</event>
<event>
 7    1  0.4723144E-009  0.4778726E+02  0.7816164E-02  0.1312668E+00
        -11   -1    0    0    0    0  0.00000000000E+00  0.00000000000E+00  0.45593999997E+02  0.45594000000E+02  0.51100000000E-03 0. -1.
         11   -1    0    0    0    0 -0.00000000000E+00 -0.00000000000E+00 -0.45593999997E+02  0.45594000000E+02  0.51100000000E-03 0.  1.
    9900012    2    1    2    0    0  0.12003957081E+02 -0.12971410681E+02 -0.39639269752E+02  0.47787260523E+02  0.19999952028E+02 0.  0.
         12    1    1    2    0    0 -0.12003957081E+02  0.12971410681E+02  0.39639269752E+02  0.43400739477E+02  0.00000000000E+00 0. -1.
         11    1    3    3    0    0  0.20226620580E+01 -0.22281655759E+01 -0.21695274257E+01  0.37098157834E+01  0.51100000000E-03 0. -1.
        -11    1    3    3    0    0  0.81792200727E+01  0.34082144666E+01 -0.12542696662E+02  0.15356913970E+02  0.51100000000E-03 0.  1.
        -12    1    3    3    0    0  0.18020749501E+01 -0.14151459572E+02 -0.24927045664E+02  0.28720530770E+02  0.00000000000E+00 0.  1.
</event>
<event>
 7    1  0.4723144E-009  0.4778727E+02  0.7816164E-02  0.1312668E+00
        -11   -1    0    0    0    0  0.00000000000E+00  0.00000000000E+00  0.45593999997E+02  0.45594000000E+02  0.51100000000E-03 0.  1.
         11   -1    0    0    0    0 -0.00000000000E+00 -0.00000000000E+00 -0.45593999997E+02  0.45594000000E+02  0.51100000000E-03 0. -1.
    9900012    2    1    2    0    0  0.29208439110E+02  0.38885739965E+01  0.31864864300E+02  0.47787268441E+02  0.19999988129E+02 0.  0.
         12    1    1    2    0    0 -0.29208439110E+02 -0.38885739965E+01 -0.31864864300E+02  0.43400731559E+02  0.00000000000E+00 0. -1.
         11    1    3    3    0    0  0.18680115313E+02  0.55066904388E+01  0.28888333523E+02  0.34839721034E+02  0.51100000000E-03 0.  1.
        -11    1    3    3    0    0  0.29889511490E+01 -0.36254535234E+01  0.19137290372E+01  0.50734703420E+01  0.51100000000E-03 0. -1.
         12    1    3    3    0    0  0.75393726483E+01  0.20073370810E+01  0.10628017399E+01  0.78740770650E+01  0.00000000000E+00 0. -1.
</event>
<event>
 7    1  0.4723144E-009  0.4778726E+02  0.7816164E-02  0.1312668E+00
        -11   -1    0    0    0    0  0.00000000000E+00  0.00000000000E+00  0.45593999997E+02  0.45594000000E+02  0.51100000000E-03 0. -1.
         11   -1    0    0    0    0 -0.00000000000E+00 -0.00000000000E+00 -0.45593999997E+02  0.45594000000E+02  0.51100000000E-03 0.  1.
    9900012    2    1    2    0    0 -0.25391859375E+02 -0.35197336349E+02  0.15776197893E+00  0.47787263861E+02  0.19999967246E+02 0.  0.
         12    1    1    2    0    0  0.25391859375E+02  0.35197336349E+02 -0.15776197893E+00  0.43400736139E+02  0.00000000000E+00 0. -1.
         11    1    3    3    0    0 -0.12522105171E+02 -0.28855736805E+02  0.17847481758E+01  0.31506221462E+02  0.51100000000E-03 0. -1.
        -11    1    3    3    0    0 -0.11610828528E+02 -0.22769419711E+01 -0.34517723316E+00  0.11837016154E+02  0.51100000000E-03 0.  1.
        -12    1    3    3    0    0 -0.12589256761E+01 -0.40646575727E+01 -0.12818089637E+01  0.44440262444E+01  0.00000000000E+00 0.  1.
</event>
<event>
 7    1  0.4723144E-009  0.4778727E+02  0.7816164E-02  0.1312668E+00
        -11   -1    0    0    0    0  0.00000000000E+00  0.00000000000E+00  0.45593999997E+02  0.45594000000E+02  0.51100000000E-03 0.  1.
         11   -1    0    0    0    0 -0.00000000000E+00 -0.00000000000E+00 -0.45593999997E+02  0.45594000000E+02  0.51100000000E-03 0. -1.
    9900012    2    1    2    0    0  0.27384974713E+02 -0.20676616242E+02  0.26573748374E+02  0.47787269570E+02  0.19999993276E+02 0.  0.
         12    1    1    2    0    0 -0.27384974713E+02  0.20676616242E+02 -0.26573748374E+02  0.43400730430E+02  0.00000000000E+00 0. -1.
         11    1    3    3    0    0  0.14356701532E+02 -0.13909521686E+02  0.57349526018E+01  0.20796137959E+02  0.51100000000E-03 0. -1.
        -11    1    3    3    0    0  0.16929195053E+01 -0.11116419448E+01  0.10345009015E+02  0.10541391561E+02  0.51100000000E-03 0.  1.
        -12    1    3    3    0    0  0.11335353676E+02 -0.56554526114E+01  0.10493786757E+02  0.16449740050E+02  0.00000000000E+00 0.  1.
</event>
<event>
 7    1  0.4723144E-009  0.4778727E+02  0.7816164E-02  0.1312668E+00
        -11   -1    0    0    0    0  0.00000000000E+00  0.00000000000E+00  0.45593999997E+02  0.45594000000E+02  0.51100000000E-03 0.  1.
         11   -1    0    0    0    0 -0.00000000000E+00 -0.00000000000E+00 -0.45593999997E+02  0.45594000000E+02  0.51100000000E-03 0. -1.
    9900012    2    1    2    0    0 -0.34990708349E+02 -0.17364252752E+02  0.18914452342E+02  0.47787268995E+02  0.19999990654E+02 0.  0.
         12    1    1    2    0    0  0.34990708349E+02  0.17364252752E+02 -0.18914452342E+02  0.43400731005E+02  0.00000000000E+00 0. -1.
         11    1    3    3    0    0 -0.45631188795E+01 -0.83084610564E+01 -0.89215272878E+00  0.95209514119E+01  0.51100000000E-03 0. -1.
        -11    1    3    3    0    0 -0.23452850995E+02 -0.45912939558E+01  0.11442589650E+02  0.26496208373E+02  0.51100000000E-03 0.  1.
         12    1    3    3    0    0 -0.69747384744E+01 -0.44644977397E+01  0.83640154200E+01  0.11770109209E+02  0.00000000000E+00 0. -1.
</event>
<event>
 7    1  0.4723144E-009  0.4778725E+02  0.7816164E-02  0.1312668E+00
        -11   -1    0    0    0    0  0.00000000000E+00  0.00000000000E+00  0.45593999997E+02  0.45594000000E+02  0.51100000000E-03 0.  1.
         11   -1    0    0    0    0 -0.00000000000E+00 -0.00000000000E+00 -0.45593999997E+02  0.45594000000E+02  0.51100000000E-03 0. -1.
    9900012    2    1    2    0    0 -0.38518806982E+01 -0.40755100932E+02  0.14415604385E+02  0.47787252464E+02  0.19999915285E+02 0.  0.
         12    1    1    2    0    0  0.38518806982E+01  0.40755100932E+02 -0.14415604385E+02  0.43400747536E+02  0.00000000000E+00 0. -1.
         11    1    3    3    0    0 -0.18495128147E+01 -0.86435882029E+01 -0.44835526572E+01  0.99113348932E+01  0.51100000000E-03 0. -1.
        -11    1    3    3    0    0 -0.10444978663E+01 -0.16365442672E+02  0.13374903051E+02  0.21161444221E+02  0.51100000000E-03 0.  1.
        -12    1    3    3    0    0 -0.95787001719E+00 -0.15746070057E+02  0.55242539910E+01  0.16714473350E+02  0.00000000000E+00 0.  1.
</event>
<event>
 7    1  0.4723144E-009  0.4778727E+02  0.7816164E-02  0.1312668E+00
        -11   -1    0    0    0    0  0.00000000000E+00  0.00000000000E+00  0.45593999997E+02  0.45594000000E+02  0.51100000000E-03 0. -1.
         11   -1    0    0    0    0 -0.00000000000E+00 -0.00000000000E+00 -0.45593999997E+02  0.45594000000E+02  0.51100000000E-03 0.  1.
    9900012    2    1    2    0    0  0.21363517173E+02  0.10320849238E+02 -0.36341485465E+02  0.47787270043E+02  0.19999995434E+02 0.  0.
         12    1    1    2    0    0 -0.21363517173E+02 -0.10320849238E+02  0.36341485465E+02  0.43400729957E+02  0.00000000000E+00 0. -1.
         11    1    3    3    0    0 -0.20405607047E+00  0.63798044488E+01 -0.12051551006E+02  0.13637574036E+02  0.51100000000E-03 0. -1.
        -11    1    3    3    0    0  0.78993432354E+01  0.42941165381E+01 -0.15426293273E+02  0.17855239701E+02  0.51100000000E-03 0.  1.
         12    1    3    3    0    0  0.13668230008E+02 -0.35307174932E+00 -0.88636411867E+01  0.16294456306E+02  0.00000000000E+00 0. -1.
</event>
<event>
 7    1  0.4723144E-009  0.4778729E+02  0.7816164E-02  0.1312668E+00
        -11   -1    0    0    0    0  0.00000000000E+00  0.00000000000E+00  0.45593999997E+02  0.45594000000E+02  0.51100000000E-03 0.  1.
         11   -1    0    0    0    0 -0.00000000000E+00 -0.00000000000E+00 -0.45593999997E+02  0.45594000000E+02  0.51100000000E-03 0. -1.
    9900012    2    1    2    0    0  0.30749991205E+02  0.54219742619E+01  0.30144020272E+02  0.47787288921E+02  0.20000081507E+02 0.  0.
         12    1    1    2    0    0 -0.30749991205E+02 -0.54219742619E+01 -0.30144020272E+02  0.43400711079E+02  0.00000000000E+00 0. -1.
         11    1    3    3    0    0  0.19737985336E+01 -0.19866740318E+01 -0.13636237412E+01  0.31148393745E+01  0.51100000000E-03 0. -1.
        -11    1    3    3    0    0  0.13826303238E+02  0.62960082225E+01  0.90897094020E+01  0.17703931711E+02  0.51100000000E-03 0.  1.
         12    1    3    3    0    0  0.14949889434E+02  0.11126400712E+01  0.22417934611E+02  0.26968517835E+02  0.00000000000E+00 0. -1.
</event>
<event>
 7    1  0.4723144E-009  0.4778727E+02  0.7816164E-02  0.1312668E+00
        -11   -1    0    0    0    0  0.00000000000E+00  0.00000000000E+00  0.45593999997E+02  0.45594000000E+02  0.51100000000E-03 0. -1.
         11   -1    0    0    0    0 -0.00000000000E+00 -0.00000000000E+00 -0.45593999997E+02  0.45594000000E+02  0.51100000000E-03 0.  1.
    9900012    2    1    2    0    0 -0.13720541688E+02 -0.13718637907E+02 -0.38822274292E+02  0.47787271072E+02  0.20000000126E+02 0.  0.
         12    1    1    2    0    0  0.13720541688E+02  0.13718637907E+02  0.38822274292E+02  0.43400728928E+02  0.00000000000E+00 0. -1.
         11    1    3    3    0    0  0.30544873748E+01 -0.42105756998E+01 -0.31604570205E+01  0.60866517631E+01  0.51100000000E-03 0. -1.
        -11    1    3    3    0    0 -0.97724206742E+01 -0.59927407118E+01 -0.29758839011E+02  0.31890463255E+02  0.51100000000E-03 0.  1.
         12    1    3    3    0    0 -0.70026083883E+01 -0.35153214956E+01 -0.59029782610E+01  0.98101560542E+01  0.00000000000E+00 0. -1.
</event>
<event>
 7    1  0.4723144E-009  0.4778727E+02  0.7816164E-02  0.1312668E+00
        -11   -1    0    0    0    0  0.00000000000E+00  0.00000000000E+00  0.45593999997E+02  0.45594000000E+02  0.51100000000E-03 0.  1.
         11   -1    0    0    0    0 -0.00000000000E+00 -0.00000000000E+00 -0.45593999997E+02  0.45594000000E+02  0.51100000000E-03 0. -1.
    9900012    2    1    2    0    0 -0.25633110949E+02 -0.14751319681E+02  0.31764216586E+02  0.47787271152E+02  0.20000000489E+02 0.  0.
         12    1    1    2    0    0  0.25633110949E+02  0.14751319681E+02 -0.31764216586E+02  0.43400728848E+02  0.00000000000E+00 0. -1.
         11    1    3    3    0    0  0.12468239827E+01 -0.15168806480E+01  0.50204538924E+01  0.53907749434E+01  0.51100000000E-03 0. -1.
        -11    1    3    3    0    0 -0.17409868388E+02 -0.11859078591E+02  0.10484297038E+02  0.23530017997E+02  0.51100000000E-03 0.  1.
        -12    1    3    3    0    0 -0.94700665437E+01 -0.13753604427E+01  0.16259465656E+02  0.18866478211E+02  0.00000000000E+00 0.  1.
</event>
<event>
 7    1  0.4723144E-009  0.4778728E+02  0.7816164E-02  0.1312668E+00
        -11   -1    0    0    0    0  0.00000000000E+00  0.00000000000E+00  0.45593999997E+02  0.45594000000E+02  0.51100000000E-03 0.  1.
         11   -1    0    0    0    0 -0.00000000000E+00 -0.00000000000E+00 -0.45593999997E+02  0.45594000000E+02  0.51100000000E-03 0. -1.
    9900012    2    1    2    0    0 -0.48478809698E+01  0.42889173172E+02  0.45431022245E+01  0.47787275316E+02  0.20000019478E+02 0.  0.
         12    1    1    2    0    0  0.48478809698E+01 -0.42889173172E+02 -0.45431022245E+01  0.43400724684E+02  0.00000000000E+00 0. -1.
         11    1    3    3    0    0 -0.32452307894E+01  0.26194568798E+02  0.26487040217E+01  0.26527393212E+02  0.51100000000E-03 0.  1.
        -11    1    3    3    0    0 -0.37784491572E+01  0.49713016666E+01 -0.45313292742E+01  0.77151450762E+01  0.51100000000E-03 0. -1.
        -12    1    3    3    0    0  0.21757989768E+01  0.11723302707E+02  0.64257274770E+01  0.13544737028E+02  0.00000000000E+00 0.  1.
</event>
<event>
 7    1  0.4723144E-009  0.4778727E+02  0.7816164E-02  0.1312668E+00
        -11   -1    0    0    0    0  0.00000000000E+00  0.00000000000E+00  0.45593999997E+02  0.45594000000E+02  0.51100000000E-03 0.  1.
         11   -1    0    0    0    0 -0.00000000000E+00 -0.00000000000E+00 -0.45593999997E+02  0.45594000000E+02  0.51100000000E-03 0. -1.
    9900012    2    1    2    0    0 -0.27059296824E+02 -0.66957723346E+01  0.33265361424E+02  0.47787272098E+02  0.20000004802E+02 0.  0.
         12    1    1    2    0    0  0.27059296824E+02  0.66957723346E+01 -0.33265361424E+02  0.43400727902E+02  0.00000000000E+00 0. -1.
         11    1    3    3    0    0 -0.15201601040E+02 -0.75274175650E+01  0.12325365145E+02  0.20968197720E+02  0.51100000000E-03 0. -1.
        -11    1    3    3    0    0  0.24039917092E+01  0.23179318960E+00  0.39361827351E+01  0.46180557603E+01  0.51100000000E-03 0.  1.
        -12    1    3    3    0    0 -0.14261687493E+02  0.59985204084E+00  0.17003813544E+02  0.22201018617E+02  0.00000000000E+00 0.  1.
</event>
<event>
 7    1  0.4723144E-009  0.4778727E+02  0.7816164E-02  0.1312668E+00
        -11   -1    0    0    0    0  0.00000000000E+00  0.00000000000E+00  0.45593999997E+02  0.45594000000E+02  0.51100000000E-03 0.  1.
         11   -1    0    0    0    0 -0.00000000000E+00 -0.00000000000E+00 -0.45593999997E+02  0.45594000000E+02  0.51100000000E-03 0. -1.
    9900012    2    1    2    0    0  0.26624491540E+02 -0.30598556182E+02  0.15443057862E+02  0.47787271593E+02  0.20000002500E+02 0.  0.
         12    1    1    2    0    0 -0.26624491540E+02  0.30598556182E+02 -0.15443057862E+02  0.43400728407E+02  0.00000000000E+00 0. -1.
         11    1    3    3    0    0  0.13708210783E+02 -0.19571700321E+02  0.13341566489E+02  0.27367204698E+02  0.51100000000E-03 0. -1.
        -11    1    3    3    0    0  0.11308169885E+02 -0.11628449580E+02  0.50671253938E+01  0.16993272369E+02  0.51100000000E-03 0.  1.
         12    1    3    3    0    0  0.16081108713E+01  0.60159371891E+00 -0.29656340213E+01  0.34267945263E+01  0.00000000000E+00 0. -1.
</event>
<event>
 7    1  0.4723144E-009  0.4778727E+02  0.7816164E-02  0.1312668E+00
        -11   -1    0    0    0    0  0.00000000000E+00  0.00000000000E+00  0.45593999997E+02  0.45594000000E+02  0.51100000000E-03 0.  1.
         11   -1    0    0    0    0 -0.00000000000E+00 -0.00000000000E+00 -0.45593999997E+02  0.45594000000E+02  0.51100000000E-03 0. -1.
    9900012    2    1    2    0    0 -0.33652270382E+01  0.20333957621E+02  0.38194616907E+02  0.47787270212E+02  0.19999996203E+02 0.  0.
         12    1    1    2    0    0  0.33652270382E+01 -0.20333957621E+02 -0.38194616907E+02  0.43400729788E+02  0.00000000000E+00 0. -1.
         11    1    3    3    0    0 -0.10728199819E+02  0.12358502707E+02  0.28805839660E+02  0.33130095975E+02  0.51100000000E-03 0. -1.
        -11    1    3    3    0    0  0.64591381352E+01  0.71088134215E+01  0.93499588504E+01  0.13404380794E+02  0.51100000000E-03 0.  1.
         12    1    3    3    0    0  0.90383464520E+00  0.86664149229E+00  0.38818395888E-01  0.12527934426E+01  0.00000000000E+00 0. -1.
</event>
<event>
 7    1  0.5599609E-009  0.4778727E+02  0.7816164E-02  0.1312668E+00
        -11   -1    0    0    0    0  0.00000000000E+00  0.00000000000E+00  0.45593999997E+02  0.45594000000E+02  0.51100000000E-03 0.  1.
         11   -1    0    0    0    0 -0.00000000000E+00 -0.00000000000E+00 -0.45593999997E+02  0.45594000000E+02  0.51100000000E-03 0. -1.
    9900012    2    1    2    0    0  0.45313560521E+01  0.40044112930E+02  0.16110833954E+02  0.47787272601E+02  0.20000007098E+02 0.  0.
         12    1    1    2    0    0 -0.45313560521E+01 -0.40044112930E+02 -0.16110833954E+02  0.43400727399E+02  0.00000000000E+00 0. -1.
         11    1    3    3    0    0  0.49341632895E+01  0.32978195156E+02  0.91409890265E+01  0.34575497159E+02  0.51100000000E-03 0. -1.
        -11    1    3    3    0    0  0.23729884277E+01  0.67153019428E+01  0.18201927161E+01  0.73511533820E+01  0.51100000000E-03 0.  1.
         12    1    3    3    0    0 -0.27757956651E+01  0.35061583135E+00  0.51496522119E+01  0.58606220607E+01  0.00000000000E+00 0. -1.
</event>
<event>
 7    1  0.4723144E-009  0.4778727E+02  0.7816164E-02  0.1312668E+00
        -11   -1    0    0    0    0  0.00000000000E+00  0.00000000000E+00  0.45593999997E+02  0.45594000000E+02  0.51100000000E-03 0.  1.
         11   -1    0    0    0    0 -0.00000000000E+00 -0.00000000000E+00 -0.45593999997E+02  0.45594000000E+02  0.51100000000E-03 0. -1.
    9900012    2    1    2    0    0 -0.39331683643E+02  0.17421638974E+02 -0.57557577559E+01  0.47787267401E+02  0.19999983389E+02 0.  0.
         12    1    1    2    0    0  0.39331683643E+02 -0.17421638974E+02  0.57557577559E+01  0.43400732599E+02  0.00000000000E+00 0. -1.
         11    1    3    3    0    0 -0.63257889941E+01 -0.22793462388E+01  0.11739206889E+01  0.68256220023E+01  0.51100000000E-03 0. -1.
        -11    1    3    3    0    0 -0.18620888273E+02  0.40727938970E+01 -0.44767555582E+01  0.19579746444E+02  0.51100000000E-03 0.  1.
         12    1    3    3    0    0 -0.14385006376E+02  0.15628191316E+02 -0.24529228866E+01  0.21381898955E+02  0.00000000000E+00 0. -1.
</event>
<event>
 7    1  0.4723144E-009  0.4778732E+02  0.7816164E-02  0.1312668E+00
        -11   -1    0    0    0    0  0.00000000000E+00  0.00000000000E+00  0.45593999997E+02  0.45594000000E+02  0.51100000000E-03 0.  1.
         11   -1    0    0    0    0 -0.00000000000E+00 -0.00000000000E+00 -0.45593999997E+02  0.45594000000E+02  0.51100000000E-03 0. -1.
    9900012    2    1    2    0    0 -0.12283875142E+02  0.20964937559E+01  0.41573187410E+02  0.47787322747E+02  0.20000235732E+02 0.  0.
         12    1    1    2    0    0  0.12283875142E+02 -0.20964937559E+01 -0.41573187410E+02  0.43400677253E+02  0.00000000000E+00 0. -1.
         11    1    3    3    0    0 -0.55767249413E+01  0.67621223959E+00  0.13231516250E+02  0.14374635530E+02  0.51100000000E-03 0. -1.
        -11    1    3    3    0    0 -0.69322666175E+01 -0.19496285001E+01  0.29249694383E+01  0.77725683156E+01  0.51100000000E-03 0.  1.
        -12    1    3    3    0    0  0.22511641632E+00  0.33699100165E+01  0.25416701721E+02  0.25640118902E+02  0.00000000000E+00 0.  1.
</event>
<event>
 7    1  0.4723144E-009  0.4778727E+02  0.7816164E-02  0.1312668E+00
        -11   -1    0    0    0    0  0.00000000000E+00  0.00000000000E+00  0.45593999997E+02  0.45594000000E+02  0.51100000000E-03 0.  1.
         11   -1    0    0    0    0 -0.00000000000E+00 -0.00000000000E+00 -0.45593999997E+02  0.45594000000E+02  0.51100000000E-03 0. -1.
    9900012    2    1    2    0    0  0.18298087781E+02  0.85358089525E+01  0.38418006107E+02  0.47787271387E+02  0.20000001560E+02 0.  0.
         12    1    1    2    0    0 -0.18298087781E+02 -0.85358089525E+01 -0.38418006107E+02  0.43400728613E+02  0.00000000000E+00 0. -1.
         11    1    3    3    0    0  0.85932777362E+01  0.34350357472E+01  0.71964407752E+01  0.11723167359E+02  0.51100000000E-03 0. -1.
        -11    1    3    3    0    0  0.15069565054E+01  0.43880963164E+01  0.25790788797E+02  0.26204791436E+02  0.51100000000E-03 0.  1.
        -12    1    3    3    0    0  0.81978535391E+01  0.71267688898E+00  0.54307765351E+01  0.98593125912E+01  0.00000000000E+00 0.  1.
</event>
<event>
 7    1  0.4723144E-009  0.4778727E+02  0.7816164E-02  0.1312668E+00
        -11   -1    0    0    0    0  0.00000000000E+00  0.00000000000E+00  0.45593999997E+02  0.45594000000E+02  0.51100000000E-03 0. -1.
         11   -1    0    0    0    0 -0.00000000000E+00 -0.00000000000E+00 -0.45593999997E+02  0.45594000000E+02  0.51100000000E-03 0.  1.
    9900012    2    1    2    0    0  0.10003049395E+02  0.30141842475E+02 -0.29580932489E+02  0.47787271528E+02  0.20000002203E+02 0.  0.
         12    1    1    2    0    0 -0.10003049395E+02 -0.30141842475E+02  0.29580932489E+02  0.43400728472E+02  0.00000000000E+00 0. -1.
         11    1    3    3    0    0  0.52097743640E+01  0.11911946847E+02 -0.17740536297E+02  0.21994609680E+02  0.51100000000E-03 0. -1.
        -11    1    3    3    0    0 -0.39622991658E+01  0.21532099719E+01 -0.14173285460E+01  0.47270443547E+01  0.51100000000E-03 0.  1.
        -12    1    3    3    0    0  0.87555741969E+01  0.16076685656E+02 -0.10423067647E+02  0.21065617493E+02  0.00000000000E+00 0.  1.
</event>
<event>
 7    1  0.4723144E-009  0.4778727E+02  0.7816164E-02  0.1312668E+00
        -11   -1    0    0    0    0  0.00000000000E+00  0.00000000000E+00  0.45593999997E+02  0.45594000000E+02  0.51100000000E-03 0. -1.
         11   -1    0    0    0    0 -0.00000000000E+00 -0.00000000000E+00 -0.45593999997E+02  0.45594000000E+02  0.51100000000E-03 0.  1.
    9900012    2    1    2    0    0 -0.23306356226E+02  0.20389324917E+02 -0.30409091083E+02  0.47787266924E+02  0.19999981211E+02 0.  0.
         12    1    1    2    0    0  0.23306356226E+02 -0.20389324917E+02  0.30409091083E+02  0.43400733076E+02  0.00000000000E+00 0. -1.
         11    1    3    3    0    0  0.49823619162E+00  0.31749009297E+01 -0.31259954294E+01  0.44833115999E+01  0.51100000000E-03 0. -1.
        -11    1    3    3    0    0 -0.47990072274E+01  0.97768755576E+01 -0.17640285588E+02  0.20731556669E+02  0.51100000000E-03 0.  1.
        -12    1    3    3    0    0 -0.19005585190E+02  0.74375484292E+01 -0.96428100655E+01  0.22572398655E+02  0.00000000000E+00 0.  1.
</event>
<event>
 7    1  0.4723144E-009  0.4778728E+02  0.7816164E-02  0.1312668E+00
        -11   -1    0    0    0    0  0.00000000000E+00  0.00000000000E+00  0.45593999997E+02  0.45594000000E+02  0.51100000000E-03 0.  1.
         11   -1    0    0    0    0 -0.00000000000E+00 -0.00000000000E+00 -0.45593999997E+02  0.45594000000E+02  0.51100000000E-03 0. -1.
    9900012    2    1    2    0    0 -0.65765263095E+01 -0.22068160026E+02  0.36788147467E+02  0.47787283654E+02  0.20000057493E+02 0.  0.
         12    1    1    2    0    0  0.65765263095E+01  0.22068160026E+02 -0.36788147467E+02  0.43400716346E+02  0.00000000000E+00 0. -1.
         11    1    3    3    0    0  0.47667299126E+01 -0.78943383297E+01  0.95695309092E+01  0.13289778546E+02  0.51100000000E-03 0. -1.
        -11    1    3    3    0    0 -0.21068847713E+01 -0.11020679429E+02  0.12093381954E+02  0.16496794412E+02  0.51100000000E-03 0.  1.
         12    1    3    3    0    0 -0.92363714508E+01 -0.31531422674E+01  0.15125234604E+02  0.18000710696E+02  0.00000000000E+00 0. -1.
</event>
<event>
 7    1  0.4723144E-009  0.4778727E+02  0.7816164E-02  0.1312668E+00
        -11   -1    0    0    0    0  0.00000000000E+00  0.00000000000E+00  0.45593999997E+02  0.45594000000E+02  0.51100000000E-03 0. -1.
         11   -1    0    0    0    0 -0.00000000000E+00 -0.00000000000E+00 -0.45593999997E+02  0.45594000000E+02  0.51100000000E-03 0.  1.
    9900012    2    1    2    0    0 -0.26077115491E+02 -0.32953573006E+02 -0.10847563041E+02  0.47787267862E+02  0.19999985490E+02 0.  0.
         12    1    1    2    0    0  0.26077115491E+02  0.32953573006E+02  0.10847563041E+02  0.43400732138E+02  0.00000000000E+00 0. -1.
         11    1    3    3    0    0 -0.50207535508E+00 -0.29238694333E+01  0.31737358542E+00  0.29835915235E+01  0.51100000000E-03 0. -1.
        -11    1    3    3    0    0 -0.20109232039E+02 -0.16270220228E+02  0.62953408426E+00  0.25874651551E+02  0.51100000000E-03 0.  1.
        -12    1    3    3    0    0 -0.54658080972E+01 -0.13759483345E+02 -0.11794470710E+02  0.18929024788E+02  0.00000000000E+00 0.  1.
</event>
<event>
 7    1  0.4723144E-009  0.4778727E+02  0.7816164E-02  0.1312668E+00
        -11   -1    0    0    0    0  0.00000000000E+00  0.00000000000E+00  0.45593999997E+02  0.45594000000E+02  0.51100000000E-03 0.  1.
         11   -1    0    0    0    0 -0.00000000000E+00 -0.00000000000E+00 -0.45593999997E+02  0.45594000000E+02  0.51100000000E-03 0. -1.
    9900012    2    1    2    0    0  0.23975644535E+02  0.90158404558E+01  0.35035787947E+02  0.47787270201E+02  0.19999996156E+02 0.  0.
         12    1    1    2    0    0 -0.23975644535E+02 -0.90158404558E+01 -0.35035787947E+02  0.43400729799E+02  0.00000000000E+00 0. -1.
         11    1    3    3    0    0  0.52698930806E+01 -0.31703671559E+01  0.69993933023E+00  0.61897428308E+01  0.51100000000E-03 0. -1.
        -11    1    3    3    0    0  0.18174588122E+02  0.99383618513E+01  0.32899639681E+02  0.38877666868E+02  0.51100000000E-03 0.  1.
         12    1    3    3    0    0  0.53116333310E+00  0.22478457603E+01  0.14362089356E+01  0.27198605029E+01  0.00000000000E+00 0. -1.
</event>
<event>
 7    1  0.4723144E-009  0.4778727E+02  0.7816164E-02  0.1312668E+00
        -11   -1    0    0    0    0  0.00000000000E+00  0.00000000000E+00  0.45593999997E+02  0.45594000000E+02  0.51100000000E-03 0.  1.
         11   -1    0    0    0    0 -0.00000000000E+00 -0.00000000000E+00 -0.45593999997E+02  0.45594000000E+02  0.51100000000E-03 0. -1.
    9900012    2    1    2    0    0 -0.30810721841E+02  0.17812267490E+02  0.24840407492E+02  0.47787270768E+02  0.19999998740E+02 0.  0.
         12    1    1    2    0    0  0.30810721841E+02 -0.17812267490E+02 -0.24840407492E+02  0.43400729232E+02  0.00000000000E+00 0. -1.
         11    1    3    3    0    0 -0.17566959713E+01  0.41583573671E+01 -0.25866085718E+01  0.52027359046E+01  0.51100000000E-03 0. -1.
        -11    1    3    3    0    0 -0.22018319433E+02  0.10834746867E+02  0.17719232691E+02  0.30268289310E+02  0.51100000000E-03 0.  1.
         12    1    3    3    0    0 -0.70357064365E+01  0.28191632560E+01  0.97077833724E+01  0.12316245553E+02  0.00000000000E+00 0. -1.
</event>
<event>
 7    1  0.4723144E-009  0.4778727E+02  0.7816164E-02  0.1312668E+00
        -11   -1    0    0    0    0  0.00000000000E+00  0.00000000000E+00  0.45593999997E+02  0.45594000000E+02  0.51100000000E-03 0.  1.
         11   -1    0    0    0    0 -0.00000000000E+00 -0.00000000000E+00 -0.45593999997E+02  0.45594000000E+02  0.51100000000E-03 0. -1.
    9900012    2    1    2    0    0  0.39942838127E+02 -0.75537864793E+01  0.15203060457E+02  0.47787273565E+02  0.20000011494E+02 0.  0.
         12    1    1    2    0    0 -0.39942838127E+02  0.75537864793E+01 -0.15203060457E+02  0.43400726435E+02  0.00000000000E+00 0. -1.
         11    1    3    3    0    0  0.44123234376E+01  0.68551500309E+00  0.54791210954E+00  0.44987483679E+01  0.51100000000E-03 0. -1.
        -11    1    3    3    0    0  0.86414563895E+01  0.55430936363E+01  0.58499422371E+01  0.11816195667E+02  0.51100000000E-03 0.  1.
        -12    1    3    3    0    0  0.26889058300E+02 -0.13782395119E+02  0.88052061107E+01  0.31472329531E+02  0.00000000000E+00 0.  1.
</event>
<event>
 7    1  0.4723144E-009  0.4778727E+02  0.7816164E-02  0.1312668E+00
        -11   -1    0    0    0    0  0.00000000000E+00  0.00000000000E+00  0.45593999997E+02  0.45594000000E+02  0.51100000000E-03 0.  1.
         11   -1    0    0    0    0 -0.00000000000E+00 -0.00000000000E+00 -0.45593999997E+02  0.45594000000E+02  0.51100000000E-03 0. -1.
    9900012    2    1    2    0    0 -0.52055357459E+01 -0.10815571431E-01  0.43087417080E+02  0.47787271549E+02  0.20000002302E+02 0.  0.
         12    1    1    2    0    0  0.52055357459E+01  0.10815571431E-01 -0.43087417080E+02  0.43400728451E+02  0.00000000000E+00 0. -1.
         11    1    3    3    0    0 -0.63500767134E+01 -0.38817551359E+01  0.29777778687E+02  0.30693771371E+02  0.51100000000E-03 0.  1.
        -11    1    3    3    0    0  0.13703604262E+01  0.15553992919E+01 -0.12022086166E+01  0.23963431461E+01  0.51100000000E-03 0. -1.
        -12    1    3    3    0    0 -0.22581945876E+00  0.23155402726E+01  0.14511847010E+02  0.14697157032E+02  0.00000000000E+00 0.  1.
</event>
<event>
 7    1  0.4723144E-009  0.4778726E+02  0.7816164E-02  0.1312668E+00
        -11   -1    0    0    0    0  0.00000000000E+00  0.00000000000E+00  0.45593999997E+02  0.45594000000E+02  0.51100000000E-03 0.  1.
         11   -1    0    0    0    0 -0.00000000000E+00 -0.00000000000E+00 -0.45593999997E+02  0.45594000000E+02  0.51100000000E-03 0. -1.
    9900012    2    1    2    0    0  0.39736633288E+02 -0.75685894700E+01 -0.15727056455E+02  0.47787264104E+02  0.19999968354E+02 0.  0.
         12    1    1    2    0    0 -0.39736633288E+02  0.75685894700E+01  0.15727056455E+02  0.43400735896E+02  0.00000000000E+00 0. -1.
         11    1    3    3    0    0  0.85903862548E-01 -0.22672770325E+01  0.19242717083E+01  0.29750204174E+01  0.51100000000E-03 0. -1.
        -11    1    3    3    0    0  0.27567217853E+02 -0.15363750554E+01 -0.16352798882E+02  0.32089343714E+02  0.51100000000E-03 0.  1.
        -12    1    3    3    0    0  0.12083511572E+02 -0.37649373821E+01 -0.12985292809E+01  0.12722899972E+02  0.00000000000E+00 0.  1.
</event>
<event>
 7    1  0.4723144E-009  0.4778727E+02  0.7816164E-02  0.1312668E+00
        -11   -1    0    0    0    0  0.00000000000E+00  0.00000000000E+00  0.45593999997E+02  0.45594000000E+02  0.51100000000E-03 0. -1.
         11   -1    0    0    0    0 -0.00000000000E+00 -0.00000000000E+00 -0.45593999997E+02  0.45594000000E+02  0.51100000000E-03 0.  1.
    9900012    2    1    2    0    0  0.58653365605E+01  0.35464495327E+02  0.24320575782E+02  0.47787274106E+02  0.20000013957E+02 0.  0.
         12    1    1    2    0    0 -0.58653365605E+01 -0.35464495327E+02 -0.24320575782E+02  0.43400725894E+02  0.00000000000E+00 0. -1.
         11    1    3    3    0    0  0.10131059845E+02  0.23000197970E+02  0.14309017466E+02  0.28920502439E+02  0.51100000000E-03 0.  1.
        -11    1    3    3    0    0 -0.23909770768E+01  0.25079992320E+01 -0.12821996208E+01  0.36947080612E+01  0.51100000000E-03 0. -1.
        -12    1    3    3    0    0 -0.18747462076E+01  0.99562981252E+01  0.11293757937E+02  0.15172063605E+02  0.00000000000E+00 0.  1.
</event>
<event>
 7    1  0.4723144E-009  0.4778727E+02  0.7816164E-02  0.1312668E+00
        -11   -1    0    0    0    0  0.00000000000E+00  0.00000000000E+00  0.45593999997E+02  0.45594000000E+02  0.51100000000E-03 0. -1.
         11   -1    0    0    0    0 -0.00000000000E+00 -0.00000000000E+00 -0.45593999997E+02  0.45594000000E+02  0.51100000000E-03 0.  1.
    9900012    2    1    2    0    0  0.13332383269E+02 -0.71310068699E+01 -0.40681934052E+02  0.47787268891E+02  0.19999990182E+02 0.  0.
         12    1    1    2    0    0 -0.13332383269E+02  0.71310068699E+01  0.40681934052E+02  0.43400731109E+02  0.00000000000E+00 0. -1.
         11    1    3    3    0    0  0.28535970838E+01 -0.31798928223E+01  0.75429550811E+00  0.43386284300E+01  0.51100000000E-03 0. -1.
        -11    1    3    3    0    0  0.49338974118E+01 -0.53573527029E+01 -0.21012426367E+02  0.22238854146E+02  0.51100000000E-03 0.  1.
         12    1    3    3    0    0  0.55448887736E+01  0.14062386553E+01 -0.20423803193E+02  0.21209786315E+02  0.00000000000E+00 0. -1.
</event>
<event>
 7    1  0.4723144E-009  0.4778727E+02  0.7816164E-02  0.1312668E+00
        -11   -1    0    0    0    0  0.00000000000E+00  0.00000000000E+00  0.45593999997E+02  0.45594000000E+02  0.51100000000E-03 0.  1.
         11   -1    0    0    0    0 -0.00000000000E+00 -0.00000000000E+00 -0.45593999997E+02  0.45594000000E+02  0.51100000000E-03 0. -1.
    9900012    2    1    2    0    0  0.31491650593E+02  0.11040351057E+02  0.27749047754E+02  0.47787273511E+02  0.20000011246E+02 0.  0.
         12    1    1    2    0    0 -0.31491650593E+02 -0.11040351057E+02 -0.27749047754E+02  0.43400726489E+02  0.00000000000E+00 0. -1.
         11    1    3    3    0    0  0.55094261170E+01 -0.23084480791E+01  0.29571282500E+01  0.66653819411E+01  0.51100000000E-03 0. -1.
        -11    1    3    3    0    0  0.10335975510E+02  0.13346685026E+02  0.10175614271E+02  0.19710644763E+02  0.51100000000E-03 0.  1.
        -12    1    3    3    0    0  0.15646248966E+02  0.21141104029E-02  0.14616305233E+02  0.21411246807E+02  0.00000000000E+00 0.  1.
</event>
<event>
 7    1  0.4723144E-009  0.4778727E+02  0.7816164E-02  0.1312668E+00
        -11   -1    0    0    0    0  0.00000000000E+00  0.00000000000E+00  0.45593999997E+02  0.45594000000E+02  0.51100000000E-03 0.  1.
         11   -1    0    0    0    0 -0.00000000000E+00 -0.00000000000E+00 -0.45593999997E+02  0.45594000000E+02  0.51100000000E-03 0. -1.
    9900012    2    1    2    0    0 -0.17740917728E+01  0.26628933117E+02  0.34225368667E+02  0.47787270272E+02  0.19999996476E+02 0.  0.
         12    1    1    2    0    0  0.17740917728E+01 -0.26628933117E+02 -0.34225368667E+02  0.43400729728E+02  0.00000000000E+00 0. -1.
         11    1    3    3    0    0  0.86179390182E+01  0.14689092944E+02  0.14955774794E+02  0.22665249268E+02  0.51100000000E-03 0. -1.
        -11    1    3    3    0    0 -0.52620989797E+01  0.39486906222E+01  0.69903914724E+01  0.95993445870E+01  0.51100000000E-03 0.  1.
         12    1    3    3    0    0 -0.51299318113E+01  0.79911495510E+01  0.12279202401E+02  0.15522676416E+02  0.00000000000E+00 0. -1.
</event>
<event>
 7    1  0.4723144E-009  0.4778727E+02  0.7816164E-02  0.1312668E+00
        -11   -1    0    0    0    0  0.00000000000E+00  0.00000000000E+00  0.45593999997E+02  0.45594000000E+02  0.51100000000E-03 0.  1.
         11   -1    0    0    0    0 -0.00000000000E+00 -0.00000000000E+00 -0.45593999997E+02  0.45594000000E+02  0.51100000000E-03 0. -1.
    9900012    2    1    2    0    0  0.40595166379E+02  0.33413901750E+01  0.14983010062E+02  0.47787274060E+02  0.20000013748E+02 0.  0.
         12    1    1    2    0    0 -0.40595166379E+02 -0.33413901750E+01 -0.14983010062E+02  0.43400725940E+02  0.00000000000E+00 0. -1.
         11    1    3    3    0    0  0.39388148620E+01 -0.13259112464E+01  0.44138254837E+01  0.60625208299E+01  0.51100000000E-03 0. -1.
        -11    1    3    3    0    0  0.14902106258E+02 -0.73828967395E+00  0.12166601696E+02  0.19252117796E+02  0.51100000000E-03 0.  1.
        -12    1    3    3    0    0  0.21754245259E+02  0.54055910954E+01 -0.15974171176E+01  0.22472635434E+02  0.00000000000E+00 0.  1.
</event>
<event>
 7    1  0.4723144E-009  0.4778727E+02  0.7816164E-02  0.1312668E+00
        -11   -1    0    0    0    0  0.00000000000E+00  0.00000000000E+00  0.45593999997E+02  0.45594000000E+02  0.51100000000E-03 0.  1.
         11   -1    0    0    0    0 -0.00000000000E+00 -0.00000000000E+00 -0.45593999997E+02  0.45594000000E+02  0.51100000000E-03 0. -1.
    9900012    2    1    2    0    0  0.82360631134E+01 -0.41295610662E+02  0.10510129886E+02  0.47787273903E+02  0.20000013032E+02 0.  0.
         12    1    1    2    0    0 -0.82360631134E+01  0.41295610662E+02 -0.10510129886E+02  0.43400726097E+02  0.00000000000E+00 0. -1.
         11    1    3    3    0    0 -0.39663592154E+01 -0.45647427325E+01 -0.25379519422E+01  0.65582072216E+01  0.51100000000E-03 0. -1.
        -11    1    3    3    0    0  0.69437460072E+01 -0.17624367102E+02  0.36284472974E+01  0.19287289971E+02  0.51100000000E-03 0.  1.
         12    1    3    3    0    0  0.52586763216E+01 -0.19106500827E+02  0.94196345309E+01  0.21941776710E+02  0.00000000000E+00 0. -1.
</event>
<event>
 7    1  0.4723144E-009  0.4778727E+02  0.7816164E-02  0.1312668E+00
        -11   -1    0    0    0    0  0.00000000000E+00  0.00000000000E+00  0.45593999997E+02  0.45594000000E+02  0.51100000000E-03 0.  1.
         11   -1    0    0    0    0 -0.00000000000E+00 -0.00000000000E+00 -0.45593999997E+02  0.45594000000E+02  0.51100000000E-03 0. -1.
    9900012    2    1    2    0    0 -0.32703781515E+02 -0.15804654041E+02  0.23754972144E+02  0.47787272860E+02  0.20000008278E+02 0.  0.
         12    1    1    2    0    0  0.32703781515E+02  0.15804654041E+02 -0.23754972144E+02  0.43400727140E+02  0.00000000000E+00 0. -1.
         11    1    3    3    0    0 -0.12671490560E+02 -0.79922358449E+00  0.11737675565E+02  0.17290993588E+02  0.51100000000E-03 0. -1.
        -11    1    3    3    0    0 -0.14916807145E+02 -0.16645651280E+02  0.11394423538E+02  0.25088278737E+02  0.51100000000E-03 0.  1.
         12    1    3    3    0    0 -0.51154838096E+01  0.16402208242E+01  0.62287304143E+00  0.54080005348E+01  0.00000000000E+00 0. -1.
</event>
<event>
 7    1  0.4723144E-009  0.4778727E+02  0.7816164E-02  0.1312668E+00
        -11   -1    0    0    0    0  0.00000000000E+00  0.00000000000E+00  0.45593999997E+02  0.45594000000E+02  0.51100000000E-03 0.  1.
         11   -1    0    0    0    0 -0.00000000000E+00 -0.00000000000E+00 -0.45593999997E+02  0.45594000000E+02  0.51100000000E-03 0. -1.
    9900012    2    1    2    0    0  0.16997731915E+02 -0.39459018862E+02  0.61388858123E+01  0.47787274443E+02  0.20000015497E+02 0.  0.
         12    1    1    2    0    0 -0.16997731915E+02  0.39459018862E+02 -0.61388858123E+01  0.43400725557E+02  0.00000000000E+00 0. -1.
         11    1    3    3    0    0  0.48332116198E+01 -0.13873627704E+02 -0.70875129995E+01  0.16311662117E+02  0.51100000000E-03 0. -1.
        -11    1    3    3    0    0  0.56614953433E+01 -0.15732533260E+02  0.85297173847E+01  0.18770221395E+02  0.51100000000E-03 0.  1.
         12    1    3    3    0    0  0.65030249521E+01 -0.98528578978E+01  0.46966814271E+01  0.12705390931E+02  0.00000000000E+00 0. -1.
</event>
<event>
 7    1  0.4723144E-009  0.4778727E+02  0.7816164E-02  0.1312668E+00
        -11   -1    0    0    0    0  0.00000000000E+00  0.00000000000E+00  0.45593999997E+02  0.45594000000E+02  0.51100000000E-03 0.  1.
         11   -1    0    0    0    0 -0.00000000000E+00 -0.00000000000E+00 -0.45593999997E+02  0.45594000000E+02  0.51100000000E-03 0. -1.
    9900012    2    1    2    0    0 -0.52287534449E+00 -0.34674396539E+02  0.26096677223E+02  0.47787265720E+02  0.19999975722E+02 0.  0.
         12    1    1    2    0    0  0.52287534449E+00  0.34674396539E+02 -0.26096677223E+02  0.43400734280E+02  0.00000000000E+00 0. -1.
         11    1    3    3    0    0 -0.18822551822E+01 -0.10009136018E+01  0.29786206397E+00  0.21525414466E+01  0.51100000000E-03 0.  1.
        -11    1    3    3    0    0 -0.62707402591E+01 -0.19379987105E+02  0.89167555507E+01  0.22235435984E+02  0.51100000000E-03 0. -1.
        -12    1    3    3    0    0  0.76301200967E+01 -0.14293495832E+02  0.16882059608E+02  0.23399288289E+02  0.00000000000E+00 0.  1.
</event>
<event>
 7    1  0.4723144E-009  0.4778727E+02  0.7816164E-02  0.1312668E+00
        -11   -1    0    0    0    0  0.00000000000E+00  0.00000000000E+00  0.45593999997E+02  0.45594000000E+02  0.51100000000E-03 0.  1.
         11   -1    0    0    0    0 -0.00000000000E+00 -0.00000000000E+00 -0.45593999997E+02  0.45594000000E+02  0.51100000000E-03 0. -1.
    9900012    2    1    2    0    0  0.35409569672E+02  0.23263449579E+02  0.94126238063E+01  0.47787271923E+02  0.20000004008E+02 0.  0.
         12    1    1    2    0    0 -0.35409569672E+02 -0.23263449579E+02 -0.94126238063E+01  0.43400728077E+02  0.00000000000E+00 0. -1.
         11    1    3    3    0    0  0.11518304708E+00  0.21369689454E+01 -0.78975052170E+00  0.22811421603E+01  0.51100000000E-03 0. -1.
        -11    1    3    3    0    0 -0.39714202623E-01  0.51840291880E+01  0.32633996242E+01  0.61258071475E+01  0.51100000000E-03 0.  1.
        -12    1    3    3    0    0  0.35334100827E+02  0.15942451446E+02  0.69389747038E+01  0.39380322616E+02  0.00000000000E+00 0.  1.
</event>
<event>
 7    1  0.4723144E-009  0.4778726E+02  0.7816164E-02  0.1312668E+00
        -11   -1    0    0    0    0  0.00000000000E+00  0.00000000000E+00  0.45593999997E+02  0.45594000000E+02  0.51100000000E-03 0.  1.
         11   -1    0    0    0    0 -0.00000000000E+00 -0.00000000000E+00 -0.45593999997E+02  0.45594000000E+02  0.51100000000E-03 0. -1.
    9900012    2    1    2    0    0  0.63045421975E+01 -0.21809745165E+02  0.36989346377E+02  0.47787262888E+02  0.19999962813E+02 0.  0.
         12    1    1    2    0    0 -0.63045421975E+01  0.21809745165E+02 -0.36989346377E+02  0.43400737112E+02  0.00000000000E+00 0. -1.
         11    1    3    3    0    0  0.50393027725E+01 -0.35204538789E+01  0.56603600972E+01  0.83563056812E+01  0.51100000000E-03 0. -1.
        -11    1    3    3    0    0  0.75054225789E+01 -0.98555587964E+01  0.22644479379E+02  0.25811544973E+02  0.51100000000E-03 0.  1.
         12    1    3    3    0    0 -0.62401831539E+01 -0.84337324894E+01  0.86845069001E+01  0.13619412234E+02  0.00000000000E+00 0. -1.
</event>
<event>
 7    1  0.4723144E-009  0.4778727E+02  0.7816164E-02  0.1312668E+00
        -11   -1    0    0    0    0  0.00000000000E+00  0.00000000000E+00  0.45593999997E+02  0.45594000000E+02  0.51100000000E-03 0. -1.
         11   -1    0    0    0    0 -0.00000000000E+00 -0.00000000000E+00 -0.45593999997E+02  0.45594000000E+02  0.51100000000E-03 0.  1.
    9900012    2    1    2    0    0  0.20720957476E+02  0.15272256048E+01 -0.38104235199E+02  0.47787271470E+02  0.20000001942E+02 0.  0.
         12    1    1    2    0    0 -0.20720957476E+02 -0.15272256048E+01  0.38104235199E+02  0.43400728530E+02  0.00000000000E+00 0. -1.
         11    1    3    3    0    0  0.63614989421E+01  0.29303376194E+01 -0.18460525712E+02  0.19744532336E+02  0.51100000000E-03 0. -1.
        -11    1    3    3    0    0  0.65316444713E+01 -0.62181608015E+01 -0.39266034686E+01  0.98359604672E+01  0.51100000000E-03 0.  1.
        -12    1    3    3    0    0  0.78278140630E+01  0.48150487869E+01 -0.15717106019E+02  0.18206778667E+02  0.00000000000E+00 0.  1.
</event>
<event>
 7    1  0.4723144E-009  0.4778727E+02  0.7816164E-02  0.1312668E+00
        -11   -1    0    0    0    0  0.00000000000E+00  0.00000000000E+00  0.45593999997E+02  0.45594000000E+02  0.51100000000E-03 0.  1.
         11   -1    0    0    0    0 -0.00000000000E+00 -0.00000000000E+00 -0.45593999997E+02  0.45594000000E+02  0.51100000000E-03 0. -1.
    9900012    2    1    2    0    0 -0.21132220350E+02 -0.25556130547E+02  0.27998873214E+02  0.47787269053E+02  0.19999990921E+02 0.  0.
         12    1    1    2    0    0  0.21132220350E+02  0.25556130547E+02 -0.27998873214E+02  0.43400730947E+02  0.00000000000E+00 0. -1.
         11    1    3    3    0    0  0.14126941996E+01 -0.87385228929E+01  0.85432783479E+01  0.12302239326E+02  0.51100000000E-03 0. -1.
        -11    1    3    3    0    0 -0.10866560488E+02 -0.48111598322E+01  0.35901196891E+01  0.12414441406E+02  0.51100000000E-03 0.  1.
        -12    1    3    3    0    0 -0.11678354061E+02 -0.12006447822E+02  0.15865475177E+02  0.23070588321E+02  0.00000000000E+00 0.  1.
</event>
<event>
 7    1  0.4723144E-009  0.4778727E+02  0.7816164E-02  0.1312668E+00
        -11   -1    0    0    0    0  0.00000000000E+00  0.00000000000E+00  0.45593999997E+02  0.45594000000E+02  0.51100000000E-03 0.  1.
         11   -1    0    0    0    0 -0.00000000000E+00 -0.00000000000E+00 -0.45593999997E+02  0.45594000000E+02  0.51100000000E-03 0. -1.
    9900012    2    1    2    0    0  0.90297745436E+01  0.37351515687E+02  0.20173031186E+02  0.47787265678E+02  0.19999975532E+02 0.  0.
         12    1    1    2    0    0 -0.90297745436E+01 -0.37351515687E+02 -0.20173031186E+02  0.43400734322E+02  0.00000000000E+00 0. -1.
         11    1    3    3    0    0 -0.13517235324E+01  0.54290416641E+01 -0.13645634552E+01  0.57587918510E+01  0.51100000000E-03 0. -1.
        -11    1    3    3    0    0  0.24424659961E+00  0.13020323990E+02  0.14418742917E+02  0.19429066904E+02  0.51100000000E-03 0.  1.
        -12    1    3    3    0    0  0.10137251476E+02  0.18902150034E+02  0.71188517241E+01  0.22599406923E+02  0.00000000000E+00 0.  1.
</event>
<event>
 7    1  0.4723144E-009  0.4778727E+02  0.7816164E-02  0.1312668E+00
        -11   -1    0    0    0    0  0.00000000000E+00  0.00000000000E+00  0.45593999997E+02  0.45594000000E+02  0.51100000000E-03 0.  1.
         11   -1    0    0    0    0 -0.00000000000E+00 -0.00000000000E+00 -0.45593999997E+02  0.45594000000E+02  0.51100000000E-03 0. -1.
    9900012    2    1    2    0    0  0.27319258830E+02  0.31444586445E+02  0.12186842105E+02  0.47787273736E+02  0.20000012272E+02 0.  0.
         12    1    1    2    0    0 -0.27319258830E+02 -0.31444586445E+02 -0.12186842105E+02  0.43400726264E+02  0.00000000000E+00 0. -1.
         11    1    3    3    0    0  0.74975488047E+01  0.76677570093E+01  0.13767914151E+01  0.10812182504E+02  0.51100000000E-03 0. -1.
        -11    1    3    3    0    0  0.13216641629E+02  0.33962950385E+01  0.19230761693E+01  0.13780880166E+02  0.51100000000E-03 0.  1.
        -12    1    3    3    0    0  0.66050683967E+01  0.20380534398E+02  0.88869745206E+01  0.23194211066E+02  0.00000000000E+00 0.  1.
</event>
<event>
 7    1  0.4723144E-009  0.4778727E+02  0.7816164E-02  0.1312668E+00
        -11   -1    0    0    0    0  0.00000000000E+00  0.00000000000E+00  0.45593999997E+02  0.45594000000E+02  0.51100000000E-03 0.  1.
         11   -1    0    0    0    0 -0.00000000000E+00 -0.00000000000E+00 -0.45593999997E+02  0.45594000000E+02  0.51100000000E-03 0. -1.
    9900012    2    1    2    0    0  0.15303570989E+01 -0.29131929576E+02  0.32134278859E+02  0.47787271994E+02  0.20000004328E+02 0.  0.
         12    1    1    2    0    0 -0.15303570989E+01  0.29131929576E+02 -0.32134278859E+02  0.43400728006E+02  0.00000000000E+00 0. -1.
         11    1    3    3    0    0  0.12198560464E+01  0.11719100862E+01  0.99742398773E+01  0.10116663650E+02  0.51100000000E-03 0. -1.
        -11    1    3    3    0    0 -0.10884311455E+01 -0.17477707110E+02  0.13814241944E+02  0.22304443703E+02  0.51100000000E-03 0.  1.
         12    1    3    3    0    0  0.13989321980E+01 -0.12826132552E+02  0.83457970385E+01  0.15366164640E+02  0.00000000000E+00 0. -1.
</event>
<event>
 7    1  0.4723144E-009  0.4778727E+02  0.7816164E-02  0.1312668E+00
        -11   -1    0    0    0    0  0.00000000000E+00  0.00000000000E+00  0.45593999997E+02  0.45594000000E+02  0.51100000000E-03 0.  1.
         11   -1    0    0    0    0 -0.00000000000E+00 -0.00000000000E+00 -0.45593999997E+02  0.45594000000E+02  0.51100000000E-03 0. -1.
    9900012    2    1    2    0    0 -0.38853555087E+02  0.17479744732E+02  0.82754341860E+01  0.47787273857E+02  0.20000012825E+02 0.  0.
         12    1    1    2    0    0  0.38853555087E+02 -0.17479744732E+02 -0.82754341860E+01  0.43400726143E+02  0.00000000000E+00 0. -1.
         11    1    3    3    0    0 -0.90572089694E+01  0.11741270573E+02  0.57075572784E+01  0.15889200084E+02  0.51100000000E-03 0. -1.
        -11    1    3    3    0    0 -0.10265046544E+02 -0.12096798440E+01  0.40809666259E+01  0.11112551225E+02  0.51100000000E-03 0.  1.
         12    1    3    3    0    0 -0.19531299574E+02  0.69481540031E+01 -0.15130897184E+01  0.20785522548E+02  0.00000000000E+00 0. -1.
</event>
<event>
 7    1  0.4723144E-009  0.4778727E+02  0.7816164E-02  0.1312668E+00
        -11   -1    0    0    0    0  0.00000000000E+00  0.00000000000E+00  0.45593999997E+02  0.45594000000E+02  0.51100000000E-03 0.  1.
         11   -1    0    0    0    0 -0.00000000000E+00 -0.00000000000E+00 -0.45593999997E+02  0.45594000000E+02  0.51100000000E-03 0. -1.
    9900012    2    1    2    0    0  0.38018054438E+02  0.16904025813E+02  0.12349276065E+02  0.47787272227E+02  0.20000005392E+02 0.  0.
         12    1    1    2    0    0 -0.38018054438E+02 -0.16904025813E+02 -0.12349276065E+02  0.43400727773E+02  0.00000000000E+00 0. -1.
         11    1    3    3    0    0  0.63844938227E+01  0.11315538737E+02  0.42083587186E+00  0.12999241569E+02  0.51100000000E-03 0. -1.
        -11    1    3    3    0    0  0.19013381423E+02  0.15363843947E+01  0.95097034835E+01  0.21314399141E+02  0.51100000000E-03 0.  1.
        -12    1    3    3    0    0  0.12620179192E+02  0.40521026807E+01  0.24187367094E+01  0.13473631516E+02  0.00000000000E+00 0.  1.
</event>
<event>
 7    1  0.4723144E-009  0.4778727E+02  0.7816164E-02  0.1312668E+00
        -11   -1    0    0    0    0  0.00000000000E+00  0.00000000000E+00  0.45593999997E+02  0.45594000000E+02  0.51100000000E-03 0.  1.
         11   -1    0    0    0    0 -0.00000000000E+00 -0.00000000000E+00 -0.45593999997E+02  0.45594000000E+02  0.51100000000E-03 0. -1.
    9900012    2    1    2    0    0 -0.29246975271E+02 -0.27392134602E+02  0.16670586056E+02  0.47787273738E+02  0.20000012281E+02 0.  0.
         12    1    1    2    0    0  0.29246975271E+02  0.27392134602E+02 -0.16670586056E+02  0.43400726262E+02  0.00000000000E+00 0. -1.
         11    1    3    3    0    0 -0.12457975210E+02 -0.13193278826E+02  0.12005938085E+02  0.21757902060E+02  0.51100000000E-03 0.  1.
        -11    1    3    3    0    0  0.39992489977E+00 -0.62488197289E+01 -0.81440932025E+00  0.63143448379E+01  0.51100000000E-03 0. -1.
        -12    1    3    3    0    0 -0.17188924962E+02 -0.79500360470E+01  0.54790572919E+01  0.19715026840E+02  0.00000000000E+00 0.  1.
</event>
<event>
 7    1  0.4723144E-009  0.4778727E+02  0.7816164E-02  0.1312668E+00
        -11   -1    0    0    0    0  0.00000000000E+00  0.00000000000E+00  0.45593999997E+02  0.45594000000E+02  0.51100000000E-03 0.  1.
         11   -1    0    0    0    0 -0.00000000000E+00 -0.00000000000E+00 -0.45593999997E+02  0.45594000000E+02  0.51100000000E-03 0. -1.
    9900012    2    1    2    0    0  0.31428341404E+02  0.29897051481E+02 -0.14314258084E+01  0.47787270622E+02  0.19999998075E+02 0.  0.
         12    1    1    2    0    0 -0.31428341404E+02 -0.29897051481E+02  0.14314258084E+01  0.43400729378E+02  0.00000000000E+00 0. -1.
         11    1    3    3    0    0  0.15043005955E+02  0.68817793638E+01 -0.37175261741E+01  0.16954967310E+02  0.51100000000E-03 0. -1.
        -11    1    3    3    0    0  0.11962431368E+02  0.21851867503E+02 -0.14104532355E+01  0.24951818696E+02  0.51100000000E-03 0.  1.
        -12    1    3    3    0    0  0.44229040805E+01  0.11634046145E+01  0.36965536013E+01  0.58804846169E+01  0.00000000000E+00 0.  1.
</event>
<event>
 7    1  0.4723144E-009  0.4778727E+02  0.7816164E-02  0.1312668E+00
        -11   -1    0    0    0    0  0.00000000000E+00  0.00000000000E+00  0.45593999997E+02  0.45594000000E+02  0.51100000000E-03 0.  1.
         11   -1    0    0    0    0 -0.00000000000E+00 -0.00000000000E+00 -0.45593999997E+02  0.45594000000E+02  0.51100000000E-03 0. -1.
    9900012    2    1    2    0    0  0.29903707922E+02  0.31401069928E+02 -0.18341904524E+01  0.47787271956E+02  0.20000004157E+02 0.  0.
         12    1    1    2    0    0 -0.29903707922E+02 -0.31401069928E+02  0.18341904524E+01  0.43400728044E+02  0.00000000000E+00 0. -1.
         11    1    3    3    0    0  0.51664228227E+01  0.14742639242E+02  0.32959499277E+01  0.15965607498E+02  0.51100000000E-03 0. -1.
        -11    1    3    3    0    0  0.20446817493E+02  0.16863686762E+02 -0.21443637025E+01  0.26590497790E+02  0.51100000000E-03 0.  1.
         12    1    3    3    0    0  0.42904676059E+01 -0.20525607529E+00 -0.29857766777E+01  0.52311666674E+01  0.00000000000E+00 0. -1.
</event>
<event>
 7    1  0.4723144E-009  0.4778727E+02  0.7816164E-02  0.1312668E+00
        -11   -1    0    0    0    0  0.00000000000E+00  0.00000000000E+00  0.45593999997E+02  0.45594000000E+02  0.51100000000E-03 0.  1.
         11   -1    0    0    0    0 -0.00000000000E+00 -0.00000000000E+00 -0.45593999997E+02  0.45594000000E+02  0.51100000000E-03 0. -1.
    9900012    2    1    2    0    0 -0.31859029880E+01  0.26819956110E+02  0.33972974555E+02  0.47787273927E+02  0.20000013141E+02 0.  0.
         12    1    1    2    0    0  0.31859029880E+01 -0.26819956110E+02 -0.33972974555E+02  0.43400726073E+02  0.00000000000E+00 0. -1.
         11    1    3    3    0    0 -0.51072363601E+01  0.43975452608E+01  0.11227851279E+02  0.13095301148E+02  0.51100000000E-03 0. -1.
        -11    1    3    3    0    0  0.36710393996E+01  0.23729032101E+02  0.20810350704E+02  0.31774426689E+02  0.51100000000E-03 0.  1.
        -12    1    3    3    0    0 -0.17497060275E+01 -0.13066212519E+01  0.19347725722E+01  0.29175460896E+01  0.00000000000E+00 0.  1.
</event>
<event>
 7    1  0.4723144E-009  0.4778727E+02  0.7816164E-02  0.1312668E+00
        -11   -1    0    0    0    0  0.00000000000E+00  0.00000000000E+00  0.45593999997E+02  0.45594000000E+02  0.51100000000E-03 0. -1.
         11   -1    0    0    0    0 -0.00000000000E+00 -0.00000000000E+00 -0.45593999997E+02  0.45594000000E+02  0.51100000000E-03 0.  1.
    9900012    2    1    2    0    0  0.16571977093E+02 -0.36050745947E+02 -0.17587972199E+02  0.47787268737E+02  0.19999989480E+02 0.  0.
         12    1    1    2    0    0 -0.16571977093E+02  0.36050745947E+02  0.17587972199E+02  0.43400731263E+02  0.00000000000E+00 0. -1.
         11    1    3    3    0    0  0.69753777788E+00  0.20939906093E+00  0.37268047147E-01  0.72924350306E+00  0.51100000000E-03 0. -1.
        -11    1    3    3    0    0  0.15751604109E+02 -0.38361968912E+02 -0.17272869543E+02  0.44923331503E+02  0.51100000000E-03 0.  1.
        -12    1    3    3    0    0  0.12283520520E+00  0.21018239042E+01 -0.35237070299E+00  0.21346937308E+01  0.00000000000E+00 0.  1.
</event>
<event>
 7    1  0.4723144E-009  0.4778727E+02  0.7816164E-02  0.1312668E+00
        -11   -1    0    0    0    0  0.00000000000E+00  0.00000000000E+00  0.45593999997E+02  0.45594000000E+02  0.51100000000E-03 0. -1.
         11   -1    0    0    0    0 -0.00000000000E+00 -0.00000000000E+00 -0.45593999997E+02  0.45594000000E+02  0.51100000000E-03 0.  1.
    9900012    2    1    2    0    0 -0.10407530348E+02 -0.13702572873E+02 -0.39844022777E+02  0.47787270256E+02  0.19999996404E+02 0.  0.
         12    1    1    2    0    0  0.10407530348E+02  0.13702572873E+02  0.39844022777E+02  0.43400729744E+02  0.00000000000E+00 0. -1.
         11    1    3    3    0    0 -0.71163390961E+01 -0.12714473304E+01 -0.93000571293E+01  0.11779215734E+02  0.51100000000E-03 0. -1.
        -11    1    3    3    0    0  0.39855397011E+01 -0.51641153775E+01 -0.42787929439E+01  0.78013257629E+01  0.51100000000E-03 0.  1.
        -12    1    3    3    0    0 -0.72767309529E+01 -0.72670101650E+01 -0.26265172704E+02  0.28206728759E+02  0.00000000000E+00 0.  1.
</event>
<event>
 7    1  0.4723144E-009  0.4778727E+02  0.7816164E-02  0.1312668E+00
        -11   -1    0    0    0    0  0.00000000000E+00  0.00000000000E+00  0.45593999997E+02  0.45594000000E+02  0.51100000000E-03 0.  1.
         11   -1    0    0    0    0 -0.00000000000E+00 -0.00000000000E+00 -0.45593999997E+02  0.45594000000E+02  0.51100000000E-03 0. -1.
    9900012    2    1    2    0    0 -0.85019114226E+01 -0.32925537498E+02  0.26967572862E+02  0.47787268400E+02  0.19999987944E+02 0.  0.
         12    1    1    2    0    0  0.85019114226E+01  0.32925537498E+02 -0.26967572862E+02  0.43400731600E+02  0.00000000000E+00 0. -1.
         11    1    3    3    0    0  0.39054694081E+01 -0.11011572659E+02  0.52479225166E+01  0.12808126902E+02  0.51100000000E-03 0. -1.
        -11    1    3    3    0    0  0.13425635341E+01 -0.66846801835E+01  0.66255331494E+01  0.95071086968E+01  0.51100000000E-03 0.  1.
         12    1    3    3    0    0 -0.13749944365E+02 -0.15229284655E+02  0.15094117195E+02  0.25472032802E+02  0.00000000000E+00 0. -1.
</event>
<event>
 7    1  0.4723144E-009  0.4778727E+02  0.7816164E-02  0.1312668E+00
        -11   -1    0    0    0    0  0.00000000000E+00  0.00000000000E+00  0.45593999997E+02  0.45594000000E+02  0.51100000000E-03 0.  1.
         11   -1    0    0    0    0 -0.00000000000E+00 -0.00000000000E+00 -0.45593999997E+02  0.45594000000E+02  0.51100000000E-03 0. -1.
    9900012    2    1    2    0    0  0.32996882328E+02  0.27033419009E+02  0.80014650060E+01  0.47787269258E+02  0.19999991856E+02 0.  0.
         12    1    1    2    0    0 -0.32996882328E+02 -0.27033419009E+02 -0.80014650060E+01  0.43400730742E+02  0.00000000000E+00 0. -1.
         11    1    3    3    0    0  0.17633235911E+01 -0.20999627179E+01  0.20648506233E+01  0.34326027823E+01  0.51100000000E-03 0. -1.
        -11    1    3    3    0    0  0.20568910101E+02  0.12940472628E+02  0.88013883630E+00  0.24316877661E+02  0.51100000000E-03 0.  1.
         12    1    3    3    0    0  0.10664648636E+02  0.16192909099E+02  0.50564755464E+01  0.20037788815E+02  0.00000000000E+00 0. -1.
</event>
<event>
 7    1  0.4723144E-009  0.4778727E+02  0.7816164E-02  0.1312668E+00
        -11   -1    0    0    0    0  0.00000000000E+00  0.00000000000E+00  0.45593999997E+02  0.45594000000E+02  0.51100000000E-03 0.  1.
         11   -1    0    0    0    0 -0.00000000000E+00 -0.00000000000E+00 -0.45593999997E+02  0.45594000000E+02  0.51100000000E-03 0. -1.
    9900012    2    1    2    0    0  0.27101034873E+02 -0.24063429990E+02  0.23876939842E+02  0.47787274081E+02  0.20000013846E+02 0.  0.
         12    1    1    2    0    0 -0.27101034873E+02  0.24063429990E+02 -0.23876939842E+02  0.43400725919E+02  0.00000000000E+00 0. -1.
         11    1    3    3    0    0  0.44997747557E+01 -0.65010712285E+01 -0.17307314396E+01  0.80936599599E+01  0.51100000000E-03 0. -1.
        -11    1    3    3    0    0  0.83446908185E+01 -0.42954063005E+01  0.14504570218E+02  0.17276195693E+02  0.51100000000E-03 0.  1.
         12    1    3    3    0    0  0.14256569299E+02 -0.13266952461E+02  0.11103101063E+02  0.22417418428E+02  0.00000000000E+00 0. -1.
</event>
<event>
 7    1  0.4723144E-009  0.4778727E+02  0.7816164E-02  0.1312668E+00
        -11   -1    0    0    0    0  0.00000000000E+00  0.00000000000E+00  0.45593999997E+02  0.45594000000E+02  0.51100000000E-03 0.  1.
         11   -1    0    0    0    0 -0.00000000000E+00 -0.00000000000E+00 -0.45593999997E+02  0.45594000000E+02  0.51100000000E-03 0. -1.
    9900012    2    1    2    0    0  0.39703937419E+02 -0.17318052185E+02 -0.27029307006E+01  0.47787269448E+02  0.19999992721E+02 0.  0.
         12    1    1    2    0    0 -0.39703937419E+02  0.17318052185E+02  0.27029307006E+01  0.43400730552E+02  0.00000000000E+00 0. -1.
         11    1    3    3    0    0  0.19748946951E+02 -0.53360142145E+01 -0.68107545131E+01  0.21561083708E+02  0.51100000000E-03 0. -1.
        -11    1    3    3    0    0  0.76206601279E+01 -0.86546974555E+01  0.64874237954E+01  0.13231209944E+02  0.51100000000E-03 0.  1.
        -12    1    3    3    0    0  0.12334330340E+02 -0.33273405148E+01 -0.23795999828E+01  0.12994975795E+02  0.00000000000E+00 0.  1.
</event>
<event>
 7    1  0.4723144E-009  0.4778727E+02  0.7816164E-02  0.1312668E+00
        -11   -1    0    0    0    0  0.00000000000E+00  0.00000000000E+00  0.45593999997E+02  0.45594000000E+02  0.51100000000E-03 0.  1.
         11   -1    0    0    0    0 -0.00000000000E+00 -0.00000000000E+00 -0.45593999997E+02  0.45594000000E+02  0.51100000000E-03 0. -1.
    9900012    2    1    2    0    0 -0.34331100105E+02  0.15671097757E+02  0.21433978232E+02  0.47787272331E+02  0.20000005867E+02 0.  0.
         12    1    1    2    0    0  0.34331100105E+02 -0.15671097757E+02 -0.21433978232E+02  0.43400727669E+02  0.00000000000E+00 0. -1.
         11    1    3    3    0    0 -0.74403887743E+01 -0.67598372988E+00  0.72157672174E+01  0.10386704767E+02  0.51100000000E-03 0. -1.
        -11    1    3    3    0    0 -0.52456619398E+01  0.10333973469E+02  0.80294189363E+01  0.14098920014E+02  0.51100000000E-03 0.  1.
        -12    1    3    3    0    0 -0.21645049391E+02  0.60131080175E+01  0.61887920785E+01  0.23301647550E+02  0.00000000000E+00 0.  1.
</event>
<event>
 7    1  0.4723144E-009  0.4778727E+02  0.7816164E-02  0.1312668E+00
        -11   -1    0    0    0    0  0.00000000000E+00  0.00000000000E+00  0.45593999997E+02  0.45594000000E+02  0.51100000000E-03 0.  1.
         11   -1    0    0    0    0 -0.00000000000E+00 -0.00000000000E+00 -0.45593999997E+02  0.45594000000E+02  0.51100000000E-03 0. -1.
    9900012    2    1    2    0    0 -0.23588292777E+02 -0.33347350765E+02  0.14668673724E+02  0.47787270191E+02  0.19999996107E+02 0.  0.
         12    1    1    2    0    0  0.23588292777E+02  0.33347350765E+02 -0.14668673724E+02  0.43400729809E+02  0.00000000000E+00 0. -1.
         11    1    3    3    0    0 -0.17385400953E+01  0.10593673038E+01 -0.16401586770E+01  0.26143644532E+01  0.51100000000E-03 0. -1.
        -11    1    3    3    0    0 -0.14518423569E+02 -0.14770738627E+02  0.47966831214E+01  0.21259527552E+02  0.51100000000E-03 0.  1.
         12    1    3    3    0    0 -0.73313291127E+01 -0.19635979441E+02  0.11512149280E+02  0.23913378185E+02  0.00000000000E+00 0. -1.
</event>
<event>
 7    1  0.4723144E-009  0.4778727E+02  0.7816164E-02  0.1312668E+00
        -11   -1    0    0    0    0  0.00000000000E+00  0.00000000000E+00  0.45593999997E+02  0.45594000000E+02  0.51100000000E-03 0.  1.
         11   -1    0    0    0    0 -0.00000000000E+00 -0.00000000000E+00 -0.45593999997E+02  0.45594000000E+02  0.51100000000E-03 0. -1.
    9900012    2    1    2    0    0 -0.25671887944E+02 -0.20384635680E+02 -0.28443694431E+02  0.47787274715E+02  0.20000016735E+02 0.  0.
         12    1    1    2    0    0  0.25671887944E+02  0.20384635680E+02  0.28443694431E+02  0.43400725285E+02  0.00000000000E+00 0. -1.
         11    1    3    3    0    0 -0.11021212948E+02 -0.68780113410E+01 -0.20798266085E+02  0.24522276552E+02  0.51100000000E-03 0. -1.
        -11    1    3    3    0    0 -0.93707356498E+01 -0.12219088428E+02 -0.87618534622E+01  0.17716853134E+02  0.51100000000E-03 0.  1.
         12    1    3    3    0    0 -0.52799393460E+01 -0.12875359109E+01  0.11164251167E+01  0.55481450288E+01  0.00000000000E+00 0. -1.
</event>
<event>
 7    1  0.4723144E-009  0.4778727E+02  0.7816164E-02  0.1312668E+00
        -11   -1    0    0    0    0  0.00000000000E+00  0.00000000000E+00  0.45593999997E+02  0.45594000000E+02  0.51100000000E-03 0.  1.
         11   -1    0    0    0    0 -0.00000000000E+00 -0.00000000000E+00 -0.45593999997E+02  0.45594000000E+02  0.51100000000E-03 0. -1.
    9900012    2    1    2    0    0 -0.45163905578E+01  0.35311658923E+02  0.24825640729E+02  0.47787268703E+02  0.19999989324E+02 0.  0.
         12    1    1    2    0    0  0.45163905578E+01 -0.35311658923E+02 -0.24825640729E+02  0.43400731297E+02  0.00000000000E+00 0. -1.
         11    1    3    3    0    0 -0.64198425441E+01  0.23822424135E+02  0.15480206025E+02  0.29126603798E+02  0.51100000000E-03 0. -1.
        -11    1    3    3    0    0  0.91681438072E+00  0.10726790044E+02  0.16820572364E+01  0.10896508160E+02  0.51100000000E-03 0.  1.
         12    1    3    3    0    0  0.98663760559E+00  0.76244474261E+00  0.76633774678E+01  0.77641567452E+01  0.00000000000E+00 0. -1.
</event>
<event>
 7    1  0.4723144E-009  0.4778727E+02  0.7816164E-02  0.1312668E+00
        -11   -1    0    0    0    0  0.00000000000E+00  0.00000000000E+00  0.45593999997E+02  0.45594000000E+02  0.51100000000E-03 0. -1.
         11   -1    0    0    0    0 -0.00000000000E+00 -0.00000000000E+00 -0.45593999997E+02  0.45594000000E+02  0.51100000000E-03 0.  1.
    9900012    2    1    2    0    0  0.36808977536E+02 -0.15303749953E+02 -0.17161524920E+02  0.47787268123E+02  0.19999986679E+02 0.  0.
         12    1    1    2    0    0 -0.36808977536E+02  0.15303749953E+02  0.17161524920E+02  0.43400731877E+02  0.00000000000E+00 0. -1.
         11    1    3    3    0    0  0.40915074375E+00 -0.43255609007E+01  0.16180675615E+01  0.46363805206E+01  0.51100000000E-03 0. -1.
        -11    1    3    3    0    0  0.24904351664E+02 -0.93512351452E+01 -0.93616649744E+01  0.28201296103E+02  0.51100000000E-03 0.  1.
         12    1    3    3    0    0  0.11495475129E+02 -0.16269539068E+01 -0.94179275076E+01  0.14949591499E+02  0.00000000000E+00 0. -1.
</event>
<event>
 7    1  0.4723144E-009  0.4778727E+02  0.7816164E-02  0.1312668E+00
        -11   -1    0    0    0    0  0.00000000000E+00  0.00000000000E+00  0.45593999997E+02  0.45594000000E+02  0.51100000000E-03 0.  1.
         11   -1    0    0    0    0 -0.00000000000E+00 -0.00000000000E+00 -0.45593999997E+02  0.45594000000E+02  0.51100000000E-03 0. -1.
    9900012    2    1    2    0    0  0.33422251302E+01 -0.33872905901E+02  0.26927288866E+02  0.47787272947E+02  0.20000008675E+02 0.  0.
         12    1    1    2    0    0 -0.33422251302E+01  0.33872905901E+02 -0.26927288866E+02  0.43400727053E+02  0.00000000000E+00 0. -1.
         11    1    3    3    0    0 -0.24961763481E+01 -0.29789808736E+02  0.14197321579E+02  0.33094222172E+02  0.51100000000E-03 0. -1.
        -11    1    3    3    0    0  0.45752503109E+01 -0.31222620578E+01  0.82210298906E+01  0.99129596230E+01  0.51100000000E-03 0.  1.
         12    1    3    3    0    0  0.12631511673E+01 -0.96083510778E+00  0.45089373966E+01  0.47800911520E+01  0.00000000000E+00 0. -1.
</event>
<event>
 7    1  0.4723144E-009  0.4778727E+02  0.7816164E-02  0.1312668E+00
        -11   -1    0    0    0    0  0.00000000000E+00  0.00000000000E+00  0.45593999997E+02  0.45594000000E+02  0.51100000000E-03 0. -1.
         11   -1    0    0    0    0 -0.00000000000E+00 -0.00000000000E+00 -0.45593999997E+02  0.45594000000E+02  0.51100000000E-03 0.  1.
    9900012    2    1    2    0    0 -0.40606577335E+02 -0.12619361123E+02 -0.86879678627E+01  0.47787272084E+02  0.20000004741E+02 0.  0.
         12    1    1    2    0    0  0.40606577335E+02  0.12619361123E+02  0.86879678627E+01  0.43400727916E+02  0.00000000000E+00 0. -1.
         11    1    3    3    0    0  0.68022840954E+00 -0.34848333732E+01 -0.36166406952E+00  0.35689740106E+01  0.51100000000E-03 0. -1.
        -11    1    3    3    0    0 -0.25675699477E+02 -0.50228422557E+01 -0.99560572863E+01  0.27992741290E+02  0.51100000000E-03 0.  1.
        -12    1    3    3    0    0 -0.15611106268E+02 -0.41116854937E+01  0.16297534931E+01  0.16225556784E+02  0.00000000000E+00 0.  1.
</event>
<event>
 7    1  0.4723144E-009  0.4778727E+02  0.7816164E-02  0.1312668E+00
        -11   -1    0    0    0    0  0.00000000000E+00  0.00000000000E+00  0.45593999997E+02  0.45594000000E+02  0.51100000000E-03 0. -1.
         11   -1    0    0    0    0 -0.00000000000E+00 -0.00000000000E+00 -0.45593999997E+02  0.45594000000E+02  0.51100000000E-03 0.  1.
    9900012    2    1    2    0    0 -0.61113827258E+01 -0.41147954737E+02  0.12374168935E+02  0.47787271496E+02  0.20000002057E+02 0.  0.
         12    1    1    2    0    0  0.61113827258E+01  0.41147954737E+02 -0.12374168935E+02  0.43400728504E+02  0.00000000000E+00 0. -1.
         11    1    3    3    0    0  0.56524791141E+01 -0.47130424122E+01  0.34268832281E+00  0.73675453485E+01  0.51100000000E-03 0. -1.
        -11    1    3    3    0    0 -0.74372994149E+01 -0.21044432136E+02  0.93952279486E+01  0.24216768054E+02  0.51100000000E-03 0.  1.
         12    1    3    3    0    0 -0.43265624250E+01 -0.15390480189E+02  0.26362526636E+01  0.16202958093E+02  0.00000000000E+00 0. -1.
</event>
<event>
 7    1  0.4723144E-009  0.4778727E+02  0.7816164E-02  0.1312668E+00
        -11   -1    0    0    0    0  0.00000000000E+00  0.00000000000E+00  0.45593999997E+02  0.45594000000E+02  0.51100000000E-03 0.  1.
         11   -1    0    0    0    0 -0.00000000000E+00 -0.00000000000E+00 -0.45593999997E+02  0.45594000000E+02  0.51100000000E-03 0. -1.
    9900012    2    1    2    0    0 -0.18511695611E+01  0.39691367102E+02  0.17458292192E+02  0.47787269390E+02  0.19999992458E+02 0.  0.
         12    1    1    2    0    0  0.18511695611E+01 -0.39691367102E+02 -0.17458292192E+02  0.43400730610E+02  0.00000000000E+00 0. -1.
         11    1    3    3    0    0  0.29127792982E+01  0.19492646414E+02 -0.89322970309E-02  0.19709074751E+02  0.51100000000E-03 0. -1.
        -11    1    3    3    0    0 -0.23528376942E+01  0.19060153469E+02  0.14336204052E+02  0.23965642957E+02  0.51100000000E-03 0.  1.
         12    1    3    3    0    0 -0.24111111651E+01  0.11385672191E+01  0.31310204376E+01  0.41125516828E+01  0.00000000000E+00 0. -1.
</event>
<event>
 7    1  0.4723144E-009  0.4778727E+02  0.7816164E-02  0.1312668E+00
        -11   -1    0    0    0    0  0.00000000000E+00  0.00000000000E+00  0.45593999997E+02  0.45594000000E+02  0.51100000000E-03 0.  1.
         11   -1    0    0    0    0 -0.00000000000E+00 -0.00000000000E+00 -0.45593999997E+02  0.45594000000E+02  0.51100000000E-03 0. -1.
    9900012    2    1    2    0    0 -0.15072617065E+02  0.56484537323E+01  0.40305513538E+02  0.47787271477E+02  0.20000001973E+02 0.  0.
         12    1    1    2    0    0  0.15072617065E+02 -0.56484537323E+01 -0.40305513538E+02  0.43400728523E+02  0.00000000000E+00 0. -1.
         11    1    3    3    0    0 -0.76150340831E+01 -0.28110369701E+01  0.59864412388E+01  0.10086037473E+02  0.51100000000E-03 0. -1.
        -11    1    3    3    0    0  0.14103907125E+01  0.93403363885E+00  0.15402737125E+02  0.15495351948E+02  0.51100000000E-03 0.  1.
         12    1    3    3    0    0 -0.88679736942E+01  0.75254570636E+01  0.18916335174E+02  0.22205882056E+02  0.00000000000E+00 0. -1.
</event>
<event>
 7    1  0.4723144E-009  0.4778727E+02  0.7816164E-02  0.1312668E+00
        -11   -1    0    0    0    0  0.00000000000E+00  0.00000000000E+00  0.45593999997E+02  0.45594000000E+02  0.51100000000E-03 0. -1.
         11   -1    0    0    0    0 -0.00000000000E+00 -0.00000000000E+00 -0.45593999997E+02  0.45594000000E+02  0.51100000000E-03 0.  1.
    9900012    2    1    2    0    0 -0.41189953242E+02  0.48558120378E+01 -0.12784069203E+02  0.47787267472E+02  0.19999983710E+02 0.  0.
         12    1    1    2    0    0  0.41189953242E+02 -0.48558120378E+01  0.12784069203E+02  0.43400732528E+02  0.00000000000E+00 0. -1.
         11    1    3    3    0    0 -0.85116871267E+01  0.35414827448E+01 -0.84143524494E+01  0.12481676377E+02  0.51100000000E-03 0. -1.
        -11    1    3    3    0    0  0.86192606113E+00 -0.62235011170E+00 -0.11334645666E+01  0.15540200710E+01  0.51100000000E-03 0.  1.
         12    1    3    3    0    0 -0.33540192176E+02  0.19366794047E+01 -0.32362521869E+01  0.33751571024E+02  0.00000000000E+00 0. -1.
</event>
<event>
 7    1  0.4723144E-009  0.4778727E+02  0.7816164E-02  0.1312668E+00
        -11   -1    0    0    0    0  0.00000000000E+00  0.00000000000E+00  0.45593999997E+02  0.45594000000E+02  0.51100000000E-03 0. -1.
         11   -1    0    0    0    0 -0.00000000000E+00 -0.00000000000E+00 -0.45593999997E+02  0.45594000000E+02  0.51100000000E-03 0.  1.
    9900012    2    1    2    0    0 -0.27842828485E+02  0.31479561673E+02  0.10836862934E+02  0.47787268446E+02  0.19999988154E+02 0.  0.
         12    1    1    2    0    0  0.27842828485E+02 -0.31479561673E+02 -0.10836862934E+02  0.43400731554E+02  0.00000000000E+00 0. -1.
         11    1    3    3    0    0 -0.10125367713E+02 -0.10601718605E+00  0.36755891576E+01  0.10772384457E+02  0.51100000000E-03 0. -1.
        -11    1    3    3    0    0 -0.15577873729E+02  0.25720878948E+02  0.60853977182E+01  0.30680055890E+02  0.51100000000E-03 0.  1.
         12    1    3    3    0    0 -0.21395870428E+01  0.58646999108E+01  0.10758760581E+01  0.63348280994E+01  0.00000000000E+00 0. -1.
</event>
<event>
 7    1  0.4723144E-009  0.4778727E+02  0.7816164E-02  0.1312668E+00
        -11   -1    0    0    0    0  0.00000000000E+00  0.00000000000E+00  0.45593999997E+02  0.45594000000E+02  0.51100000000E-03 0. -1.
         11   -1    0    0    0    0 -0.00000000000E+00 -0.00000000000E+00 -0.45593999997E+02  0.45594000000E+02  0.51100000000E-03 0.  1.
    9900012    2    1    2    0    0 -0.24339233907E+02 -0.15655178053E+02 -0.32344093111E+02  0.47787271132E+02  0.20000000400E+02 0.  0.
         12    1    1    2    0    0  0.24339233907E+02  0.15655178053E+02  0.32344093111E+02  0.43400728868E+02  0.00000000000E+00 0. -1.
         11    1    3    3    0    0 -0.71875786710E+01 -0.12705308935E+02 -0.90647880412E+01  0.17183030722E+02  0.51100000000E-03 0. -1.
        -11    1    3    3    0    0 -0.14981718646E+02  0.12613429947E+01 -0.18920594869E+02  0.24166749682E+02  0.51100000000E-03 0.  1.
        -12    1    3    3    0    0 -0.21699365908E+01 -0.42112121132E+01 -0.43587102007E+01  0.64374907288E+01  0.00000000000E+00 0.  1.
</event>
<event>
 7    1  0.4723144E-009  0.4778727E+02  0.7816164E-02  0.1312668E+00
        -11   -1    0    0    0    0  0.00000000000E+00  0.00000000000E+00  0.45593999997E+02  0.45594000000E+02  0.51100000000E-03 0. -1.
         11   -1    0    0    0    0 -0.00000000000E+00 -0.00000000000E+00 -0.45593999997E+02  0.45594000000E+02  0.51100000000E-03 0.  1.
    9900012    2    1    2    0    0  0.41262044497E+00  0.11540256983E+02 -0.41836294443E+02  0.47787270518E+02  0.19999997599E+02 0.  0.
         12    1    1    2    0    0 -0.41262044497E+00 -0.11540256983E+02  0.41836294443E+02  0.43400729482E+02  0.00000000000E+00 0. -1.
         11    1    3    3    0    0  0.71763928313E+00  0.13613050210E+00  0.18580774318E+00  0.75369916601E+00  0.51100000000E-03 0.  1.
        -11    1    3    3    0    0 -0.36276623222E+01 -0.39384794987E+01 -0.90563832335E+01  0.10520914039E+02  0.51100000000E-03 0. -1.
        -12    1    3    3    0    0  0.33226434840E+01  0.15342605979E+02 -0.32965718953E+02  0.36512657313E+02  0.00000000000E+00 0.  1.
</event>
<event>
 7    1  0.4723144E-009  0.4778727E+02  0.7816164E-02  0.1312668E+00
        -11   -1    0    0    0    0  0.00000000000E+00  0.00000000000E+00  0.45593999997E+02  0.45594000000E+02  0.51100000000E-03 0.  1.
         11   -1    0    0    0    0 -0.00000000000E+00 -0.00000000000E+00 -0.45593999997E+02  0.45594000000E+02  0.51100000000E-03 0. -1.
    9900012    2    1    2    0    0  0.22545793524E+02  0.31102685285E+02 -0.20197362494E+02  0.47787270867E+02  0.19999999190E+02 0.  0.
         12    1    1    2    0    0 -0.22545793524E+02 -0.31102685285E+02  0.20197362494E+02  0.43400729133E+02  0.00000000000E+00 0. -1.
         11    1    3    3    0    0  0.17321611394E+02  0.30357457941E+02 -0.20075837553E+02  0.40306981128E+02  0.51100000000E-03 0. -1.
        -11    1    3    3    0    0  0.15524706004E+01  0.26530881461E+01 -0.10338042730E+01  0.32431147393E+01  0.51100000000E-03 0.  1.
         12    1    3    3    0    0  0.36717115294E+01 -0.19078608022E+01  0.91227933190E+00  0.42371749994E+01  0.00000000000E+00 0. -1.
</event>
<event>
 7    1  0.4723144E-009  0.4778727E+02  0.7816164E-02  0.1312668E+00
        -11   -1    0    0    0    0  0.00000000000E+00  0.00000000000E+00  0.45593999997E+02  0.45594000000E+02  0.51100000000E-03 0.  1.
         11   -1    0    0    0    0 -0.00000000000E+00 -0.00000000000E+00 -0.45593999997E+02  0.45594000000E+02  0.51100000000E-03 0. -1.
    9900012    2    1    2    0    0 -0.34375618245E+02  0.67186467522E+01  0.25628110200E+02  0.47787269864E+02  0.19999994618E+02 0.  0.
         12    1    1    2    0    0  0.34375618245E+02 -0.67186467522E+01 -0.25628110200E+02  0.43400730136E+02  0.00000000000E+00 0. -1.
         11    1    3    3    0    0 -0.19255830832E+02  0.39028510514E+01  0.17166818980E+02  0.26090591053E+02  0.51100000000E-03 0. -1.
        -11    1    3    3    0    0 -0.96971806789E+01 -0.68002678592E+00  0.11074515575E+02  0.14735760755E+02  0.51100000000E-03 0.  1.
         12    1    3    3    0    0 -0.54226067341E+01  0.34958224867E+01 -0.26132243544E+01  0.69609180557E+01  0.00000000000E+00 0. -1.
</event>
<event>
 7    1  0.4723144E-009  0.4778727E+02  0.7816164E-02  0.1312668E+00
        -11   -1    0    0    0    0  0.00000000000E+00  0.00000000000E+00  0.45593999997E+02  0.45594000000E+02  0.51100000000E-03 0. -1.
         11   -1    0    0    0    0 -0.00000000000E+00 -0.00000000000E+00 -0.45593999997E+02  0.45594000000E+02  0.51100000000E-03 0.  1.
    9900012    2    1    2    0    0 -0.41699445962E+02 -0.70033353234E+01  0.97843261209E+01  0.47787268015E+02  0.19999986186E+02 0.  0.
         12    1    1    2    0    0  0.41699445962E+02  0.70033353234E+01 -0.97843261209E+01  0.43400731985E+02  0.00000000000E+00 0. -1.
         11    1    3    3    0    0 -0.90143373027E+01  0.30764283134E+01  0.80802327645E+01  0.12490510396E+02  0.51100000000E-03 0. -1.
        -11    1    3    3    0    0 -0.18954391039E+02 -0.92567516766E+01  0.36402902209E+01  0.21405796047E+02  0.51100000000E-03 0.  1.
         12    1    3    3    0    0 -0.13730717621E+02 -0.82301196013E+00 -0.19361968645E+01  0.13890961571E+02  0.00000000000E+00 0. -1.
</event>
<event>
 7    1  0.4723144E-009  0.4778727E+02  0.7816164E-02  0.1312668E+00
        -11   -1    0    0    0    0  0.00000000000E+00  0.00000000000E+00  0.45593999997E+02  0.45594000000E+02  0.51100000000E-03 0. -1.
         11   -1    0    0    0    0 -0.00000000000E+00 -0.00000000000E+00 -0.45593999997E+02  0.45594000000E+02  0.51100000000E-03 0.  1.
    9900012    2    1    2    0    0 -0.16148641657E+02 -0.10883441831E+02 -0.38786539013E+02  0.47787267955E+02  0.19999985913E+02 0.  0.
         12    1    1    2    0    0  0.16148641657E+02  0.10883441831E+02  0.38786539013E+02  0.43400732045E+02  0.00000000000E+00 0. -1.
         11    1    3    3    0    0 -0.20647047075E+01  0.37987375481E+00 -0.49918425427E+01  0.54153302606E+01  0.51100000000E-03 0. -1.
        -11    1    3    3    0    0 -0.16348466550E+02 -0.61704749980E+01 -0.15885875072E+02  0.23615845259E+02  0.51100000000E-03 0.  1.
        -12    1    3    3    0    0  0.22645296002E+01 -0.50928405880E+01 -0.17908821398E+02  0.18756092435E+02  0.00000000000E+00 0.  1.
</event>
<event>
 7    1  0.4723144E-009  0.4778728E+02  0.7816164E-02  0.1312668E+00
        -11   -1    0    0    0    0  0.00000000000E+00  0.00000000000E+00  0.45593999997E+02  0.45594000000E+02  0.51100000000E-03 0. -1.
         11   -1    0    0    0    0 -0.00000000000E+00 -0.00000000000E+00 -0.45593999997E+02  0.45594000000E+02  0.51100000000E-03 0.  1.
    9900012    2    1    2    0    0 -0.25027458045E+02 -0.31456597266E+02 -0.16362506974E+02  0.47787276478E+02  0.20000024772E+02 0.  0.
         12    1    1    2    0    0  0.25027458045E+02  0.31456597266E+02  0.16362506974E+02  0.43400723522E+02  0.00000000000E+00 0. -1.
         11    1    3    3    0    0 -0.17458053347E+02 -0.21412387226E+02 -0.55107485256E+01  0.28171657796E+02  0.51100000000E-03 0. -1.
        -11    1    3    3    0    0 -0.14465610803E+01  0.13324637181E+00 -0.69704928367E+01  0.71202573129E+01  0.51100000000E-03 0.  1.
        -12    1    3    3    0    0 -0.61228436183E+01 -0.10177456412E+02 -0.38812656118E+01  0.12495361369E+02  0.00000000000E+00 0.  1.
</event>
<event>
 7    1  0.4723144E-009  0.4778727E+02  0.7816164E-02  0.1312668E+00
        -11   -1    0    0    0    0  0.00000000000E+00  0.00000000000E+00  0.45593999997E+02  0.45594000000E+02  0.51100000000E-03 0.  1.
         11   -1    0    0    0    0 -0.00000000000E+00 -0.00000000000E+00 -0.45593999997E+02  0.45594000000E+02  0.51100000000E-03 0. -1.
    9900012    2    1    2    0    0  0.30821138212E+02 -0.17048117499E+02  0.25358279578E+02  0.47787271733E+02  0.20000003139E+02 0.  0.
         12    1    1    2    0    0 -0.30821138212E+02  0.17048117499E+02 -0.25358279578E+02  0.43400728267E+02  0.00000000000E+00 0. -1.
         11    1    3    3    0    0  0.49526195105E+01  0.32913547922E+01  0.17305746861E+01  0.61932499860E+01  0.51100000000E-03 0. -1.
        -11    1    3    3    0    0  0.32581819434E+01  0.70585775341E+00  0.20288085323E+01  0.39025695466E+01  0.51100000000E-03 0.  1.
         12    1    3    3    0    0  0.22610336758E+02 -0.21045330045E+02  0.21598896360E+02  0.37691452200E+02  0.00000000000E+00 0. -1.
</event>
<event>
 7    1  0.4723144E-009  0.4778727E+02  0.7816164E-02  0.1312668E+00
        -11   -1    0    0    0    0  0.00000000000E+00  0.00000000000E+00  0.45593999997E+02  0.45594000000E+02  0.51100000000E-03 0.  1.
         11   -1    0    0    0    0 -0.00000000000E+00 -0.00000000000E+00 -0.45593999997E+02  0.45594000000E+02  0.51100000000E-03 0. -1.
    9900012    2    1    2    0    0 -0.82531371200E+01  0.24296563269E+02  0.35002662203E+02  0.47787267053E+02  0.19999981802E+02 0.  0.
         12    1    1    2    0    0  0.82531371200E+01 -0.24296563269E+02 -0.35002662203E+02  0.43400732947E+02  0.00000000000E+00 0. -1.
         11    1    3    3    0    0 -0.66289365143E+00 -0.24904326581E+01  0.25777699987E+01  0.36450763017E+01  0.51100000000E-03 0. -1.
        -11    1    3    3    0    0 -0.10194617265E+02  0.24279824623E+02  0.28751241393E+02  0.38988126228E+02  0.51100000000E-03 0.  1.
        -12    1    3    3    0    0  0.26043737970E+01  0.25071713042E+01  0.36736508115E+01  0.51540645231E+01  0.00000000000E+00 0.  1.
</event>
<event>
 7    1  0.4723144E-009  0.4778728E+02  0.7816164E-02  0.1312668E+00
        -11   -1    0    0    0    0  0.00000000000E+00  0.00000000000E+00  0.45593999997E+02  0.45594000000E+02  0.51100000000E-03 0.  1.
         11   -1    0    0    0    0 -0.00000000000E+00 -0.00000000000E+00 -0.45593999997E+02  0.45594000000E+02  0.51100000000E-03 0. -1.
    9900012    2    1    2    0    0 -0.14340422605E+02  0.32039447091E+02  0.25523487513E+02  0.47787282204E+02  0.20000050880E+02 0.  0.
         12    1    1    2    0    0  0.14340422605E+02 -0.32039447091E+02 -0.25523487513E+02  0.43400717796E+02  0.00000000000E+00 0. -1.
         11    1    3    3    0    0 -0.10592451989E+02  0.36995414654E+01  0.64754506547E+01  0.12954462846E+02  0.51100000000E-03 0. -1.
        -11    1    3    3    0    0 -0.69151540222E+00  0.22653410680E+02  0.14019066755E+02  0.26649379766E+02  0.51100000000E-03 0.  1.
         12    1    3    3    0    0 -0.30564552144E+01  0.56864949457E+01  0.50289701033E+01  0.81834395914E+01  0.00000000000E+00 0. -1.
</event>
<event>
 7    1  0.4723144E-009  0.4778727E+02  0.7816164E-02  0.1312668E+00
        -11   -1    0    0    0    0  0.00000000000E+00  0.00000000000E+00  0.45593999997E+02  0.45594000000E+02  0.51100000000E-03 0.  1.
         11   -1    0    0    0    0 -0.00000000000E+00 -0.00000000000E+00 -0.45593999997E+02  0.45594000000E+02  0.51100000000E-03 0. -1.
    9900012    2    1    2    0    0 -0.20286580158E+01  0.40806235609E+02  0.14641001962E+02  0.47787271246E+02  0.20000000919E+02 0.  0.
         12    1    1    2    0    0  0.20286580158E+01 -0.40806235609E+02 -0.14641001962E+02  0.43400728754E+02  0.00000000000E+00 0. -1.
         11    1    3    3    0    0 -0.88426128675E+00  0.63960315793E+01  0.97585109166E+01  0.11701268032E+02  0.51100000000E-03 0.  1.
        -11    1    3    3    0    0  0.24663899255E+01  0.22864954548E+02 -0.11435858081E+00  0.22997876073E+02  0.51100000000E-03 0. -1.
        -12    1    3    3    0    0 -0.36107866546E+01  0.11545249482E+02  0.49968496261E+01  0.13088127141E+02  0.00000000000E+00 0.  1.
</event>
<event>
 7    1  0.4756712E-009  0.4778727E+02  0.7816164E-02  0.1312668E+00
        -11   -1    0    0    0    0  0.00000000000E+00  0.00000000000E+00  0.45593999997E+02  0.45594000000E+02  0.51100000000E-03 0.  1.
         11   -1    0    0    0    0 -0.00000000000E+00 -0.00000000000E+00 -0.45593999997E+02  0.45594000000E+02  0.51100000000E-03 0. -1.
    9900012    2    1    2    0    0 -0.36981715825E+02  0.76092687180E+01 -0.21402691042E+02  0.47787268904E+02  0.19999990241E+02 0.  0.
         12    1    1    2    0    0  0.36981715825E+02 -0.76092687180E+01  0.21402691042E+02  0.43400731096E+02  0.00000000000E+00 0. -1.
         11    1    3    3    0    0 -0.12141492919E+02 -0.23389771553E+01 -0.14084481105E+02  0.18741912194E+02  0.51100000000E-03 0. -1.
        -11    1    3    3    0    0 -0.19610346285E+02  0.56675110331E+01 -0.86275825398E+01  0.22161262227E+02  0.51100000000E-03 0.  1.
         12    1    3    3    0    0 -0.52298766207E+01  0.42807348402E+01  0.13093726022E+01  0.68840944831E+01  0.00000000000E+00 0. -1.
</event>
<event>
 7    1  0.4723144E-009  0.4778726E+02  0.7816164E-02  0.1312668E+00
        -11   -1    0    0    0    0  0.00000000000E+00  0.00000000000E+00  0.45593999997E+02  0.45594000000E+02  0.51100000000E-03 0.  1.
         11   -1    0    0    0    0 -0.00000000000E+00 -0.00000000000E+00 -0.45593999997E+02  0.45594000000E+02  0.51100000000E-03 0. -1.
    9900012    2    1    2    0    0  0.26889680879E+02  0.12559494554E+02  0.31667465173E+02  0.47787260470E+02  0.19999951789E+02 0.  0.
         12    1    1    2    0    0 -0.26889680879E+02 -0.12559494554E+02 -0.31667465173E+02  0.43400739530E+02  0.00000000000E+00 0. -1.
         11    1    3    3    0    0 -0.72131240085E+00  0.59079070757E+01  0.52018947578E+01  0.79046421125E+01  0.51100000000E-03 0. -1.
        -11    1    3    3    0    0  0.48607714610E+01  0.41630588530E+01  0.28781420576E+01  0.70172544613E+01  0.51100000000E-03 0.  1.
         12    1    3    3    0    0  0.22750221819E+02  0.24885286255E+01  0.23587428358E+02  0.32865363897E+02  0.00000000000E+00 0. -1.
</event>
<event>
 7    1  0.4723144E-009  0.4778727E+02  0.7816164E-02  0.1312668E+00
        -11   -1    0    0    0    0  0.00000000000E+00  0.00000000000E+00  0.45593999997E+02  0.45594000000E+02  0.51100000000E-03 0.  1.
         11   -1    0    0    0    0 -0.00000000000E+00 -0.00000000000E+00 -0.45593999997E+02  0.45594000000E+02  0.51100000000E-03 0. -1.
    9900012    2    1    2    0    0  0.31780229924E+02 -0.52300722487E+00  0.29552786434E+02  0.47787265713E+02  0.19999975693E+02 0.  0.
         12    1    1    2    0    0 -0.31780229924E+02  0.52300722487E+00 -0.29552786434E+02  0.43400734287E+02  0.00000000000E+00 0. -1.
         11    1    3    3    0    0 -0.15731618968E+01  0.28677663441E+01  0.47074778382E+01  0.57323005867E+01  0.51100000000E-03 0. -1.
        -11    1    3    3    0    0  0.75466179360E+01  0.85158567726E+00  0.74936687427E+01  0.10669194530E+02  0.51100000000E-03 0.  1.
         12    1    3    3    0    0  0.25806773885E+02 -0.42423592463E+01  0.17351639853E+02  0.31385770596E+02  0.00000000000E+00 0. -1.
</event>
<event>
 7    1  0.4723144E-009  0.4778727E+02  0.7816164E-02  0.1312668E+00
        -11   -1    0    0    0    0  0.00000000000E+00  0.00000000000E+00  0.45593999997E+02  0.45594000000E+02  0.51100000000E-03 0. -1.
         11   -1    0    0    0    0 -0.00000000000E+00 -0.00000000000E+00 -0.45593999997E+02  0.45594000000E+02  0.51100000000E-03 0.  1.
    9900012    2    1    2    0    0 -0.58160453664E+01 -0.99244909159E+01 -0.41848552577E+02  0.47787271245E+02  0.20000000916E+02 0.  0.
         12    1    1    2    0    0  0.58160453664E+01  0.99244909159E+01  0.41848552577E+02  0.43400728755E+02  0.00000000000E+00 0. -1.
         11    1    3    3    0    0 -0.26606432292E+00  0.21975744694E+01 -0.20123160557E+02  0.20244547780E+02  0.51100000000E-03 0. -1.
        -11    1    3    3    0    0 -0.90196419567E+00 -0.12235136238E+02 -0.16207005043E+02  0.20326807691E+02  0.51100000000E-03 0.  1.
        -12    1    3    3    0    0 -0.46480168478E+01  0.11307085231E+00 -0.55183869767E+01  0.72159157741E+01  0.00000000000E+00 0.  1.
</event>
<event>
 7    1  0.4723144E-009  0.4778727E+02  0.7816164E-02  0.1312668E+00
        -11   -1    0    0    0    0  0.00000000000E+00  0.00000000000E+00  0.45593999997E+02  0.45594000000E+02  0.51100000000E-03 0.  1.
         11   -1    0    0    0    0 -0.00000000000E+00 -0.00000000000E+00 -0.45593999997E+02  0.45594000000E+02  0.51100000000E-03 0. -1.
    9900012    2    1    2    0    0  0.34146000624E+02  0.16799380219E+02  0.20867550585E+02  0.47787271875E+02  0.20000003787E+02 0.  0.
         12    1    1    2    0    0 -0.34146000624E+02 -0.16799380219E+02 -0.20867550585E+02  0.43400728125E+02  0.00000000000E+00 0. -1.
         11    1    3    3    0    0  0.10932161810E+02  0.46740206178E+01  0.17197571261E+02  0.20907297485E+02  0.51100000000E-03 0. -1.
        -11    1    3    3    0    0  0.87009662889E+00  0.14103262323E+01  0.10498724853E+01  0.19617137206E+01  0.51100000000E-03 0.  1.
         12    1    3    3    0    0  0.22343742186E+02  0.10715033369E+02  0.26201068383E+01  0.24918260670E+02  0.00000000000E+00 0. -1.
</event>
<event>
 7    1  0.4723144E-009  0.4778727E+02  0.7816164E-02  0.1312668E+00
        -11   -1    0    0    0    0  0.00000000000E+00  0.00000000000E+00  0.45593999997E+02  0.45594000000E+02  0.51100000000E-03 0.  1.
         11   -1    0    0    0    0 -0.00000000000E+00 -0.00000000000E+00 -0.45593999997E+02  0.45594000000E+02  0.51100000000E-03 0. -1.
    9900012    2    1    2    0    0 -0.23332430240E+02  0.34413061238E+02  0.12448377805E+02  0.47787271958E+02  0.20000004163E+02 0.  0.
         12    1    1    2    0    0  0.23332430240E+02 -0.34413061238E+02 -0.12448377805E+02  0.43400728042E+02  0.00000000000E+00 0. -1.
         11    1    3    3    0    0  0.12533736842E+01  0.38023344300E+00 -0.11913726736E+01  0.17705626710E+01  0.51100000000E-03 0. -1.
        -11    1    3    3    0    0 -0.15671182425E+02  0.27021681302E+02  0.14894010883E+02  0.34606195680E+02  0.51100000000E-03 0.  1.
         12    1    3    3    0    0 -0.89146214986E+01  0.70111464930E+01 -0.12542604046E+01  0.11410513607E+02  0.00000000000E+00 0. -1.
</event>
<event>
 7    1  0.4723144E-009  0.4778723E+02  0.7816164E-02  0.1312668E+00
        -11   -1    0    0    0    0  0.00000000000E+00  0.00000000000E+00  0.45593999997E+02  0.45594000000E+02  0.51100000000E-03 0. -1.
         11   -1    0    0    0    0 -0.00000000000E+00 -0.00000000000E+00 -0.45593999997E+02  0.45594000000E+02  0.51100000000E-03 0.  1.
    9900012    2    1    2    0    0  0.42042540497E+02 -0.18118437437E+01 -0.10619249630E+02  0.47787234432E+02  0.19999833067E+02 0.  0.
         12    1    1    2    0    0 -0.42042540497E+02  0.18118437437E+01  0.10619249630E+02  0.43400765568E+02  0.00000000000E+00 0. -1.
         11    1    3    3    0    0  0.12473404196E+02  0.13595632931E+00  0.47583503305E+01  0.13350887405E+02  0.51100000000E-03 0. -1.
        -11    1    3    3    0    0  0.26832530063E+02  0.90341724537E+00 -0.13072404628E+02  0.29861155291E+02  0.51100000000E-03 0.  1.
        -12    1    3    3    0    0  0.27366062380E+01 -0.28512173184E+01 -0.23051953325E+01  0.45751917358E+01  0.00000000000E+00 0.  1.
</event>
<event>
 7    1  0.4723144E-009  0.4778727E+02  0.7816164E-02  0.1312668E+00
        -11   -1    0    0    0    0  0.00000000000E+00  0.00000000000E+00  0.45593999997E+02  0.45594000000E+02  0.51100000000E-03 0.  1.
         11   -1    0    0    0    0 -0.00000000000E+00 -0.00000000000E+00 -0.45593999997E+02  0.45594000000E+02  0.51100000000E-03 0. -1.
    9900012    2    1    2    0    0  0.12578887044E+01 -0.29730530069E+02  0.31593304091E+02  0.47787267684E+02  0.19999984679E+02 0.  0.
         12    1    1    2    0    0 -0.12578887044E+01  0.29730530069E+02 -0.31593304091E+02  0.43400732316E+02  0.00000000000E+00 0. -1.
         11    1    3    3    0    0  0.85182561665E+00  0.13007676283E+01 -0.37572779919E+00  0.15996171243E+01  0.51100000000E-03 0. -1.
        -11    1    3    3    0    0  0.30963054231E+01 -0.18464850621E+02  0.25943998274E+02  0.31994200450E+02  0.51100000000E-03 0.  1.
        -12    1    3    3    0    0 -0.26902423354E+01 -0.12566447076E+02  0.60250336159E+01  0.14193450109E+02  0.00000000000E+00 0.  1.
</event>
<event>
 7    1  0.4723144E-009  0.4778726E+02  0.7816164E-02  0.1312668E+00
        -11   -1    0    0    0    0  0.00000000000E+00  0.00000000000E+00  0.45593999997E+02  0.45594000000E+02  0.51100000000E-03 0.  1.
         11   -1    0    0    0    0 -0.00000000000E+00 -0.00000000000E+00 -0.45593999997E+02  0.45594000000E+02  0.51100000000E-03 0. -1.
    9900012    2    1    2    0    0  0.28172514677E+02 -0.33013661298E+02  0.17895976581E+00  0.47787257585E+02  0.19999938635E+02 0.  0.
         12    1    1    2    0    0 -0.28172514677E+02  0.33013661298E+02 -0.17895976581E+00  0.43400742415E+02  0.00000000000E+00 0. -1.
         11    1    3    3    0    0  0.96104229212E+01 -0.26713516905E+01  0.32887160003E+01  0.10502952050E+02  0.51100000000E-03 0. -1.
        -11    1    3    3    0    0  0.18287995449E+02 -0.31091967213E+02 -0.37431894843E+01  0.36265309464E+02  0.51100000000E-03 0.  1.
         12    1    3    3    0    0  0.27409630721E+00  0.74965760575E+00  0.63343324978E+00  0.10189960713E+01  0.00000000000E+00 0. -1.
</event>
<event>
 7    1  0.4723144E-009  0.4778727E+02  0.7816164E-02  0.1312668E+00
        -11   -1    0    0    0    0  0.00000000000E+00  0.00000000000E+00  0.45593999997E+02  0.45594000000E+02  0.51100000000E-03 0.  1.
         11   -1    0    0    0    0 -0.00000000000E+00 -0.00000000000E+00 -0.45593999997E+02  0.45594000000E+02  0.51100000000E-03 0. -1.
    9900012    2    1    2    0    0 -0.26923166925E+02  0.25687694562E+02  0.22336265407E+02  0.47787270495E+02  0.19999997495E+02 0.  0.
         12    1    1    2    0    0  0.26923166925E+02 -0.25687694562E+02 -0.22336265407E+02  0.43400729505E+02  0.00000000000E+00 0. -1.
         11    1    3    3    0    0  0.22924205769E+01  0.27452775014E+01  0.33081580603E+01  0.48719247402E+01  0.51100000000E-03 0. -1.
        -11    1    3    3    0    0 -0.10724404985E+02  0.51616191364E+01  0.10529792371E+02  0.15891246081E+02  0.51100000000E-03 0.  1.
         12    1    3    3    0    0 -0.18491182518E+02  0.17780797924E+02  0.84983149761E+01  0.27024099673E+02  0.00000000000E+00 0. -1.
</event>
<event>
 7    1  0.4723144E-009  0.4778727E+02  0.7816164E-02  0.1312668E+00
        -11   -1    0    0    0    0  0.00000000000E+00  0.00000000000E+00  0.45593999997E+02  0.45594000000E+02  0.51100000000E-03 0.  1.
         11   -1    0    0    0    0 -0.00000000000E+00 -0.00000000000E+00 -0.45593999997E+02  0.45594000000E+02  0.51100000000E-03 0. -1.
    9900012    2    1    2    0    0 -0.28264476187E+02  0.31488668985E+02  0.96543447362E+01  0.47787271194E+02  0.20000000683E+02 0.  0.
         12    1    1    2    0    0  0.28264476187E+02 -0.31488668985E+02 -0.96543447362E+01  0.43400728806E+02  0.00000000000E+00 0. -1.
         11    1    3    3    0    0 -0.51170836995E+01  0.36274086043E+01  0.88458323244E+01  0.10843956314E+02  0.51100000000E-03 0. -1.
        -11    1    3    3    0    0 -0.23406175517E+02  0.26324907488E+02  0.85670337137E-01  0.35225802279E+02  0.51100000000E-03 0.  1.
        -12    1    3    3    0    0  0.25878302955E+00  0.15363528932E+01  0.72284207474E+00  0.17175126008E+01  0.00000000000E+00 0.  1.
</event>
<event>
 7    1  0.4723144E-009  0.4778727E+02  0.7816164E-02  0.1312668E+00
        -11   -1    0    0    0    0  0.00000000000E+00  0.00000000000E+00  0.45593999997E+02  0.45594000000E+02  0.51100000000E-03 0.  1.
         11   -1    0    0    0    0 -0.00000000000E+00 -0.00000000000E+00 -0.45593999997E+02  0.45594000000E+02  0.51100000000E-03 0. -1.
    9900012    2    1    2    0    0  0.43249790357E+02  0.27620809305E+01 -0.23344875216E+01  0.47787270870E+02  0.19999999205E+02 0.  0.
         12    1    1    2    0    0 -0.43249790357E+02 -0.27620809305E+01  0.23344875216E+01  0.43400729130E+02  0.00000000000E+00 0. -1.
         11    1    3    3    0    0  0.52240901660E+01  0.28760319787E+01 -0.43044567558E+01  0.73546601708E+01  0.51100000000E-03 0. -1.
        -11    1    3    3    0    0  0.25476486218E+02 -0.65111893385E+01  0.10292124246E+01  0.26315512822E+02  0.51100000000E-03 0.  1.
        -12    1    3    3    0    0  0.12549213973E+02  0.63972382903E+01  0.94075680963E+00  0.14117097877E+02  0.00000000000E+00 0.  1.
</event>
<event>
 7    1  0.4723144E-009  0.4778727E+02  0.7816164E-02  0.1312668E+00
        -11   -1    0    0    0    0  0.00000000000E+00  0.00000000000E+00  0.45593999997E+02  0.45594000000E+02  0.51100000000E-03 0.  1.
         11   -1    0    0    0    0 -0.00000000000E+00 -0.00000000000E+00 -0.45593999997E+02  0.45594000000E+02  0.51100000000E-03 0. -1.
    9900012    2    1    2    0    0 -0.17436163411E+02  0.11505235777E+02  0.38042515999E+02  0.47787271109E+02  0.20000000293E+02 0.  0.
         12    1    1    2    0    0  0.17436163411E+02 -0.11505235777E+02 -0.38042515999E+02  0.43400728891E+02  0.00000000000E+00 0. -1.
         11    1    3    3    0    0 -0.82352612091E+01  0.15158703783E+02  0.23195917865E+02  0.28907722730E+02  0.51100000000E-03 0. -1.
        -11    1    3    3    0    0 -0.39318975210E+01 -0.15729990502E+01  0.11603260510E+02  0.12351914785E+02  0.51100000000E-03 0.  1.
         12    1    3    3    0    0 -0.52690046808E+01 -0.20804689553E+01  0.32433376235E+01  0.65276335942E+01  0.00000000000E+00 0. -1.
</event>
<event>
 7    1  0.4723144E-009  0.4778727E+02  0.7816164E-02  0.1312668E+00
        -11   -1    0    0    0    0  0.00000000000E+00  0.00000000000E+00  0.45593999997E+02  0.45594000000E+02  0.51100000000E-03 0.  1.
         11   -1    0    0    0    0 -0.00000000000E+00 -0.00000000000E+00 -0.45593999997E+02  0.45594000000E+02  0.51100000000E-03 0. -1.
    9900012    2    1    2    0    0  0.20129305944E+01  0.31734645171E+02  0.29537833598E+02  0.47787271811E+02  0.20000003493E+02 0.  0.
         12    1    1    2    0    0 -0.20129305944E+01 -0.31734645171E+02 -0.29537833598E+02  0.43400728189E+02  0.00000000000E+00 0. -1.
         11    1    3    3    0    0 -0.16395531490E+01  0.43633873075E+00 -0.11690656312E+00  0.17006450018E+01  0.51100000000E-03 0. -1.
        -11    1    3    3    0    0 -0.23380480621E+00  0.44910571851E+01  0.14211551126E+02  0.14906121058E+02  0.51100000000E-03 0.  1.
        -12    1    3    3    0    0  0.38862885496E+01  0.26807249255E+02  0.15443189036E+02  0.31180505751E+02  0.00000000000E+00 0.  1.
</event>
<event>
 7    1  0.4723144E-009  0.4778726E+02  0.7816164E-02  0.1312668E+00
        -11   -1    0    0    0    0  0.00000000000E+00  0.00000000000E+00  0.45593999997E+02  0.45594000000E+02  0.51100000000E-03 0.  1.
         11   -1    0    0    0    0 -0.00000000000E+00 -0.00000000000E+00 -0.45593999997E+02  0.45594000000E+02  0.51100000000E-03 0. -1.
    9900012    2    1    2    0    0 -0.16397503094E+02 -0.37212397981E+02 -0.15165221600E+02  0.47787255566E+02  0.19999929429E+02 0.  0.
         12    1    1    2    0    0  0.16397503094E+02  0.37212397981E+02  0.15165221600E+02  0.43400744434E+02  0.00000000000E+00 0. -1.
         11    1    3    3    0    0  0.63453732109E+00 -0.14147258216E+01 -0.28578588015E+00  0.15766295039E+01  0.51100000000E-03 0. -1.
        -11    1    3    3    0    0 -0.17785937746E+02 -0.22881268082E+02 -0.39011425067E+01  0.29242279727E+02  0.51100000000E-03 0.  1.
        -12    1    3    3    0    0  0.75389733057E+00 -0.12916404078E+02 -0.10978293213E+02  0.16968346335E+02  0.00000000000E+00 0.  1.
</event>
<event>
 7    1  0.4723144E-009  0.4778727E+02  0.7816164E-02  0.1312668E+00
        -11   -1    0    0    0    0  0.00000000000E+00  0.00000000000E+00  0.45593999997E+02  0.45594000000E+02  0.51100000000E-03 0.  1.
         11   -1    0    0    0    0 -0.00000000000E+00 -0.00000000000E+00 -0.45593999997E+02  0.45594000000E+02  0.51100000000E-03 0. -1.
    9900012    2    1    2    0    0 -0.30264206399E+02  0.31043271470E+02  0.20041431270E+01  0.47787268644E+02  0.19999989056E+02 0.  0.
         12    1    1    2    0    0  0.30264206399E+02 -0.31043271470E+02 -0.20041431270E+01  0.43400731356E+02  0.00000000000E+00 0. -1.
         11    1    3    3    0    0 -0.12817881214E+02  0.23466746384E+02  0.22463262196E+01  0.26833416600E+02  0.51100000000E-03 0. -1.
        -11    1    3    3    0    0  0.13298815003E+00  0.89657968053E+00  0.18222152471E+01  0.20351927770E+01  0.51100000000E-03 0.  1.
         12    1    3    3    0    0 -0.17579313335E+02  0.66799454057E+01 -0.20643983397E+01  0.18918659267E+02  0.00000000000E+00 0. -1.
</event>
<event>
 7    1  0.4723144E-009  0.4778727E+02  0.7816164E-02  0.1312668E+00
        -11   -1    0    0    0    0  0.00000000000E+00  0.00000000000E+00  0.45593999997E+02  0.45594000000E+02  0.51100000000E-03 0.  1.
         11   -1    0    0    0    0 -0.00000000000E+00 -0.00000000000E+00 -0.45593999997E+02  0.45594000000E+02  0.51100000000E-03 0. -1.
    9900012    2    1    2    0    0  0.14411944864E+02  0.11048451430E+02  0.39418911277E+02  0.47787274200E+02  0.20000014387E+02 0.  0.
         12    1    1    2    0    0 -0.14411944864E+02 -0.11048451430E+02 -0.39418911277E+02  0.43400725800E+02  0.00000000000E+00 0. -1.
         11    1    3    3    0    0  0.17309286685E+01  0.15664172828E+01  0.32257152037E+00  0.23566564888E+01  0.51100000000E-03 0. -1.
        -11    1    3    3    0    0  0.19259421628E+01 -0.42906930685E+01  0.38036488995E+01  0.60487226283E+01  0.51100000000E-03 0.  1.
        -12    1    3    3    0    0  0.10755074032E+02  0.13772727216E+02  0.35292690857E+02  0.39381895083E+02  0.00000000000E+00 0.  1.
</event>
<event>
 7    1  0.4723144E-009  0.4778727E+02  0.7816164E-02  0.1312668E+00
        -11   -1    0    0    0    0  0.00000000000E+00  0.00000000000E+00  0.45593999997E+02  0.45594000000E+02  0.51100000000E-03 0.  1.
         11   -1    0    0    0    0 -0.00000000000E+00 -0.00000000000E+00 -0.45593999997E+02  0.45594000000E+02  0.51100000000E-03 0. -1.
    9900012    2    1    2    0    0 -0.45569182012E+01 -0.13135919322E+02  0.41113327255E+02  0.47787267772E+02  0.19999985081E+02 0.  0.
         12    1    1    2    0    0  0.45569182012E+01  0.13135919322E+02 -0.41113327255E+02  0.43400732228E+02  0.00000000000E+00 0. -1.
         11    1    3    3    0    0  0.16197549746E+01 -0.11475782472E+02  0.37724906273E+02  0.39464993894E+02  0.51100000000E-03 0. -1.
        -11    1    3    3    0    0 -0.23677002219E+01  0.94231872388E+00 -0.81776288363E-01  0.25496385118E+01  0.51100000000E-03 0.  1.
        -12    1    3    3    0    0 -0.38089729538E+01 -0.26024555736E+01  0.34701972707E+01  0.57726353664E+01  0.00000000000E+00 0.  1.
</event>
<event>
 7    1  0.4723144E-009  0.4778728E+02  0.7816164E-02  0.1312668E+00
        -11   -1    0    0    0    0  0.00000000000E+00  0.00000000000E+00  0.45593999997E+02  0.45594000000E+02  0.51100000000E-03 0. -1.
         11   -1    0    0    0    0 -0.00000000000E+00 -0.00000000000E+00 -0.45593999997E+02  0.45594000000E+02  0.51100000000E-03 0.  1.
    9900012    2    1    2    0    0 -0.10939717116E+02 -0.38841928976E+02 -0.15976540339E+02  0.47787277675E+02  0.20000030229E+02 0.  0.
         12    1    1    2    0    0  0.10939717116E+02  0.38841928976E+02  0.15976540339E+02  0.43400722325E+02  0.00000000000E+00 0. -1.
         11    1    3    3    0    0  0.41563382507E+01 -0.75407972581E+01  0.24731988980E+00  0.86139386074E+01  0.51100000000E-03 0. -1.
        -11    1    3    3    0    0 -0.27249305296E+01 -0.12851367656E+02 -0.85378847325E+01  0.15667749455E+02  0.51100000000E-03 0.  1.
         12    1    3    3    0    0 -0.12371124837E+02 -0.18449764062E+02 -0.76859754959E+01  0.23505589612E+02  0.00000000000E+00 0. -1.
</event>
<event>
 7    1  0.4723144E-009  0.4778726E+02  0.7816164E-02  0.1312668E+00
        -11   -1    0    0    0    0  0.00000000000E+00  0.00000000000E+00  0.45593999997E+02  0.45594000000E+02  0.51100000000E-03 0.  1.
         11   -1    0    0    0    0 -0.00000000000E+00 -0.00000000000E+00 -0.45593999997E+02  0.45594000000E+02  0.51100000000E-03 0. -1.
    9900012    2    1    2    0    0  0.72365304677E+01 -0.27145327018E+02  0.33081541555E+02  0.47787256414E+02  0.19999933296E+02 0.  0.
         12    1    1    2    0    0 -0.72365304677E+01  0.27145327018E+02 -0.33081541555E+02  0.43400743586E+02  0.00000000000E+00 0. -1.
         11    1    3    3    0    0  0.27612677765E+01 -0.21297961610E+01 -0.17971914773E+01  0.39230764571E+01  0.51100000000E-03 0. -1.
        -11    1    3    3    0    0  0.19563982110E+01 -0.11534571733E+02  0.22634725910E+02  0.25479494821E+02  0.51100000000E-03 0.  1.
        -12    1    3    3    0    0  0.25188644802E+01 -0.13480959124E+02  0.12244007122E+02  0.18384685137E+02  0.00000000000E+00 0.  1.
</event>
<event>
 7    1  0.4723144E-009  0.4778727E+02  0.7816164E-02  0.1312668E+00
        -11   -1    0    0    0    0  0.00000000000E+00  0.00000000000E+00  0.45593999997E+02  0.45594000000E+02  0.51100000000E-03 0.  1.
         11   -1    0    0    0    0 -0.00000000000E+00 -0.00000000000E+00 -0.45593999997E+02  0.45594000000E+02  0.51100000000E-03 0. -1.
    9900012    2    1    2    0    0  0.40424781132E+02  0.71282253446E+01 -0.14094284133E+02  0.47787269921E+02  0.19999994880E+02 0.  0.
         12    1    1    2    0    0 -0.40424781132E+02 -0.71282253446E+01  0.14094284133E+02  0.43400730079E+02  0.00000000000E+00 0. -1.
         11    1    3    3    0    0  0.24064337214E+02 -0.20829518726E+01 -0.72164418346E+01  0.25209284938E+02  0.51100000000E-03 0.  1.
        -11    1    3    3    0    0  0.81408678798E+01  0.60114606770E+01  0.17147262823E+01  0.10264096443E+02  0.51100000000E-03 0. -1.
         12    1    3    3    0    0  0.82195760384E+01  0.31997165401E+01 -0.85925685803E+01  0.12313888541E+02  0.00000000000E+00 0. -1.
</event>
<event>
 7    1  0.4723144E-009  0.4778727E+02  0.7816164E-02  0.1312668E+00
        -11   -1    0    0    0    0  0.00000000000E+00  0.00000000000E+00  0.45593999997E+02  0.45594000000E+02  0.51100000000E-03 0.  1.
         11   -1    0    0    0    0 -0.00000000000E+00 -0.00000000000E+00 -0.45593999997E+02  0.45594000000E+02  0.51100000000E-03 0. -1.
    9900012    2    1    2    0    0 -0.15273551132E+02 -0.17469732003E+02  0.36676289936E+02  0.47787272542E+02  0.20000006828E+02 0.  0.
         12    1    1    2    0    0  0.15273551132E+02  0.17469732003E+02 -0.36676289936E+02  0.43400727458E+02  0.00000000000E+00 0. -1.
         11    1    3    3    0    0 -0.15664411351E+02 -0.10855379607E+02  0.17391865950E+02  0.25800969960E+02  0.51100000000E-03 0. -1.
        -11    1    3    3    0    0  0.19808999510E+00 -0.74067034060E+01  0.89466357564E+01  0.11616401621E+02  0.51100000000E-03 0.  1.
         12    1    3    3    0    0  0.19277022400E+00  0.79235101018E+00  0.10337788229E+02  0.10369900962E+02  0.00000000000E+00 0. -1.
</event>
<event>
 7    1  0.4723144E-009  0.4778727E+02  0.7816164E-02  0.1312668E+00
        -11   -1    0    0    0    0  0.00000000000E+00  0.00000000000E+00  0.45593999997E+02  0.45594000000E+02  0.51100000000E-03 0. -1.
         11   -1    0    0    0    0 -0.00000000000E+00 -0.00000000000E+00 -0.45593999997E+02  0.45594000000E+02  0.51100000000E-03 0.  1.
    9900012    2    1    2    0    0  0.25479646649E+02 -0.33652415803E+02  0.10095829514E+02  0.47787271247E+02  0.20000000922E+02 0.  0.
         12    1    1    2    0    0 -0.25479646649E+02  0.33652415803E+02 -0.10095829514E+02  0.43400728753E+02  0.00000000000E+00 0. -1.
         11    1    3    3    0    0  0.40040077636E+01 -0.15857352108E+02  0.64539647582E+01  0.17582416086E+02  0.51100000000E-03 0. -1.
        -11    1    3    3    0    0  0.21168568439E+02 -0.19070327521E+02  0.27620808634E+01  0.28625421787E+02  0.51100000000E-03 0.  1.
         12    1    3    3    0    0  0.30707044641E+00  0.12752638261E+01  0.87978389286E+00  0.15794333742E+01  0.00000000000E+00 0. -1.
</event>
<event>
 7    1  0.4723144E-009  0.4778727E+02  0.7816164E-02  0.1312668E+00
        -11   -1    0    0    0    0  0.00000000000E+00  0.00000000000E+00  0.45593999997E+02  0.45594000000E+02  0.51100000000E-03 0. -1.
         11   -1    0    0    0    0 -0.00000000000E+00 -0.00000000000E+00 -0.45593999997E+02  0.45594000000E+02  0.51100000000E-03 0.  1.
    9900012    2    1    2    0    0 -0.14977086167E+02 -0.39138824357E+02 -0.11289925441E+02  0.47787273064E+02  0.20000009208E+02 0.  0.
         12    1    1    2    0    0  0.14977086167E+02  0.39138824357E+02  0.11289925441E+02  0.43400726936E+02  0.00000000000E+00 0. -1.
         11    1    3    3    0    0 -0.13039706719E+01 -0.27139077665E+02 -0.32292576911E+01  0.27361615112E+02  0.51100000000E-03 0. -1.
        -11    1    3    3    0    0 -0.10963870062E+02 -0.10534678396E+02 -0.48097801690E+01  0.15947409858E+02  0.51100000000E-03 0.  1.
         12    1    3    3    0    0 -0.27092454326E+01 -0.14650682962E+01 -0.32508875810E+01  0.44782480939E+01  0.00000000000E+00 0. -1.
</event>
<event>
 7    1  0.5388508E-009  0.4778728E+02  0.7816164E-02  0.1312668E+00
        -11   -1    0    0    0    0  0.00000000000E+00  0.00000000000E+00  0.45593999997E+02  0.45594000000E+02  0.51100000000E-03 0. -1.
         11   -1    0    0    0    0 -0.00000000000E+00 -0.00000000000E+00 -0.45593999997E+02  0.45594000000E+02  0.51100000000E-03 0.  1.
    9900012    2    1    2    0    0  0.79348461238E+00  0.42386222571E+02 -0.92952337929E+01  0.47787275894E+02  0.20000022112E+02 0.  0.
         12    1    1    2    0    0 -0.79348461238E+00 -0.42386222571E+02  0.92952337929E+01  0.43400724106E+02  0.00000000000E+00 0. -1.
         11    1    3    3    0    0 -0.94238840635E+00  0.72781615709E-01  0.19612520809E+01  0.21771318421E+01  0.51100000000E-03 0. -1.
        -11    1    3    3    0    0 -0.24154091707E+01  0.37766754211E+02 -0.11150651613E+02  0.39452489867E+02  0.51100000000E-03 0.  1.
        -12    1    3    3    0    0  0.41512821895E+01  0.45466867445E+01 -0.10583426055E+00  0.61576541848E+01  0.00000000000E+00 0.  1.
</event>
<event>
 7    1  0.4723144E-009  0.4778727E+02  0.7816164E-02  0.1312668E+00
        -11   -1    0    0    0    0  0.00000000000E+00  0.00000000000E+00  0.45593999997E+02  0.45594000000E+02  0.51100000000E-03 0.  1.
         11   -1    0    0    0    0 -0.00000000000E+00 -0.00000000000E+00 -0.45593999997E+02  0.45594000000E+02  0.51100000000E-03 0. -1.
    9900012    2    1    2    0    0 -0.19270766171E+02 -0.14639231181E+02  0.36027126150E+02  0.47787270317E+02  0.19999996684E+02 0.  0.
         12    1    1    2    0    0  0.19270766171E+02  0.14639231181E+02 -0.36027126150E+02  0.43400729683E+02  0.00000000000E+00 0. -1.
         11    1    3    3    0    0 -0.35325742692E+01  0.34175550337E+01  0.52415309714E+01  0.71855696059E+01  0.51100000000E-03 0. -1.
        -11    1    3    3    0    0 -0.12337355124E+02 -0.19118220322E+02  0.28000093448E+02  0.36079383491E+02  0.51100000000E-03 0.  1.
        -12    1    3    3    0    0 -0.34008367777E+01  0.10614341070E+01  0.27855017301E+01  0.45223172203E+01  0.00000000000E+00 0.  1.
</event>
<event>
 7    1  0.4723144E-009  0.4778727E+02  0.7816164E-02  0.1312668E+00
        -11   -1    0    0    0    0  0.00000000000E+00  0.00000000000E+00  0.45593999997E+02  0.45594000000E+02  0.51100000000E-03 0.  1.
         11   -1    0    0    0    0 -0.00000000000E+00 -0.00000000000E+00 -0.45593999997E+02  0.45594000000E+02  0.51100000000E-03 0. -1.
    9900012    2    1    2    0    0  0.22567090647E+02 -0.27575423745E+02  0.24777931191E+02  0.47787269026E+02  0.19999990797E+02 0.  0.
         12    1    1    2    0    0 -0.22567090647E+02  0.27575423745E+02 -0.24777931191E+02  0.43400730974E+02  0.00000000000E+00 0. -1.
         11    1    3    3    0    0  0.19968556398E+01 -0.11556861759E+02  0.11403834238E+02  0.16358359384E+02  0.51100000000E-03 0. -1.
        -11    1    3    3    0    0  0.43177280101E+01 -0.93879969555E+01  0.80108266593E+01  0.13074808069E+02  0.51100000000E-03 0.  1.
         12    1    3    3    0    0  0.16252506997E+02 -0.66305650311E+01  0.53632702932E+01  0.18354101573E+02  0.00000000000E+00 0. -1.
</event>
<event>
 7    1  0.4723144E-009  0.4778727E+02  0.7816164E-02  0.1312668E+00
        -11   -1    0    0    0    0  0.00000000000E+00  0.00000000000E+00  0.45593999997E+02  0.45594000000E+02  0.51100000000E-03 0.  1.
         11   -1    0    0    0    0 -0.00000000000E+00 -0.00000000000E+00 -0.45593999997E+02  0.45594000000E+02  0.51100000000E-03 0. -1.
    9900012    2    1    2    0    0  0.40743279334E+02  0.14927606752E+02 -0.88032377891E+00  0.47787271617E+02  0.20000002611E+02 0.  0.
         12    1    1    2    0    0 -0.40743279334E+02 -0.14927606752E+02  0.88032377891E+00  0.43400728383E+02  0.00000000000E+00 0. -1.
         11    1    3    3    0    0  0.15516970154E+02 -0.15463599803E+01 -0.18537221474E+01  0.15703626269E+02  0.51100000000E-03 0. -1.
        -11    1    3    3    0    0  0.19407678323E+02  0.66203107709E+01  0.19521657537E+01  0.20598481595E+02  0.51100000000E-03 0.  1.
         12    1    3    3    0    0  0.58186308569E+01  0.98536559610E+01 -0.97876738516E+00  0.11485163753E+02  0.00000000000E+00 0. -1.
</event>
<event>
 7    1  0.4723144E-009  0.4778727E+02  0.7816164E-02  0.1312668E+00
        -11   -1    0    0    0    0  0.00000000000E+00  0.00000000000E+00  0.45593999997E+02  0.45594000000E+02  0.51100000000E-03 0. -1.
         11   -1    0    0    0    0 -0.00000000000E+00 -0.00000000000E+00 -0.45593999997E+02  0.45594000000E+02  0.51100000000E-03 0.  1.
    9900012    2    1    2    0    0 -0.96648061529E+00 -0.34975102320E+02 -0.25679398607E+02  0.47787269823E+02  0.19999994433E+02 0.  0.
         12    1    1    2    0    0  0.96648061529E+00  0.34975102320E+02  0.25679398607E+02  0.43400730177E+02  0.00000000000E+00 0. -1.
         11    1    3    3    0    0  0.18308566445E+01 -0.15738668953E+01 -0.36200699371E+01  0.43513216001E+01  0.51100000000E-03 0. -1.
        -11    1    3    3    0    0 -0.36611889491E+00 -0.22827997340E+00 -0.68466897325E+01  0.68602707924E+01  0.51100000000E-03 0.  1.
        -12    1    3    3    0    0 -0.24312183649E+01 -0.33172955451E+02 -0.15212638937E+02  0.36575677431E+02  0.00000000000E+00 0.  1.
</event>
<event>
 7    1  0.4723144E-009  0.4778728E+02  0.7816164E-02  0.1312668E+00
        -11   -1    0    0    0    0  0.00000000000E+00  0.00000000000E+00  0.45593999997E+02  0.45594000000E+02  0.51100000000E-03 0. -1.
         11   -1    0    0    0    0 -0.00000000000E+00 -0.00000000000E+00 -0.45593999997E+02  0.45594000000E+02  0.51100000000E-03 0.  1.
    9900012    2    1    2    0    0 -0.40530464959E+02 -0.13047376215E+02 -0.84065517292E+01  0.47787277335E+02  0.20000028681E+02 0.  0.
         12    1    1    2    0    0  0.40530464959E+02  0.13047376215E+02  0.84065517292E+01  0.43400722665E+02  0.00000000000E+00 0. -1.
         11    1    3    3    0    0 -0.40159148617E+01  0.10274209515E+01 -0.69634101683E+00  0.42033387992E+01  0.51100000000E-03 0. -1.
        -11    1    3    3    0    0 -0.22262698089E+02  0.71223508053E+00 -0.53838801174E+01  0.22915522477E+02  0.51100000000E-03 0.  1.
        -12    1    3    3    0    0 -0.14251852008E+02 -0.14787032247E+02 -0.23263305949E+01  0.20668416059E+02  0.00000000000E+00 0.  1.
</event>
<event>
 7    1  0.4723144E-009  0.4778727E+02  0.7816164E-02  0.1312668E+00
        -11   -1    0    0    0    0  0.00000000000E+00  0.00000000000E+00  0.45593999997E+02  0.45594000000E+02  0.51100000000E-03 0. -1.
         11   -1    0    0    0    0 -0.00000000000E+00 -0.00000000000E+00 -0.45593999997E+02  0.45594000000E+02  0.51100000000E-03 0.  1.
    9900012    2    1    2    0    0 -0.21104100971E+02  0.19066659921E+02 -0.32782665056E+02  0.47787265830E+02  0.19999976225E+02 0.  0.
         12    1    1    2    0    0  0.21104100971E+02 -0.19066659921E+02  0.32782665056E+02  0.43400734170E+02  0.00000000000E+00 0. -1.
         11    1    3    3    0    0 -0.12096763459E+01 -0.20168395880E+01 -0.69754863810E+01  0.73612749777E+01  0.51100000000E-03 0. -1.
        -11    1    3    3    0    0 -0.17749989127E+02  0.15719367370E+02 -0.14674541252E+02  0.27883736940E+02  0.51100000000E-03 0.  1.
        -12    1    3    3    0    0 -0.21444354985E+01  0.53641321383E+01 -0.11132637423E+02  0.12542253912E+02  0.00000000000E+00 0.  1.
</event>
<event>
 7    1  0.4723144E-009  0.4778727E+02  0.7816164E-02  0.1312668E+00
        -11   -1    0    0    0    0  0.00000000000E+00  0.00000000000E+00  0.45593999997E+02  0.45594000000E+02  0.51100000000E-03 0. -1.
         11   -1    0    0    0    0 -0.00000000000E+00 -0.00000000000E+00 -0.45593999997E+02  0.45594000000E+02  0.51100000000E-03 0.  1.
    9900012    2    1    2    0    0  0.27973258153E+02 -0.33064672948E+02 -0.28014158385E+01  0.47787266140E+02  0.19999977639E+02 0.  0.
         12    1    1    2    0    0 -0.27973258153E+02  0.33064672948E+02  0.28014158385E+01  0.43400733860E+02  0.00000000000E+00 0. -1.
         11    1    3    3    0    0 -0.15838195379E+01 -0.53033343374E+01 -0.30847409960E+01  0.63363606824E+01  0.51100000000E-03 0. -1.
        -11    1    3    3    0    0  0.11831089367E+02 -0.15665576324E+02 -0.25838204334E+01  0.19800532454E+02  0.51100000000E-03 0.  1.
         12    1    3    3    0    0  0.17725988324E+02 -0.12095762287E+02  0.28671455908E+01  0.21650373004E+02  0.00000000000E+00 0. -1.
</event>
<event>
 7    1  0.4723144E-009  0.4778727E+02  0.7816164E-02  0.1312668E+00
        -11   -1    0    0    0    0  0.00000000000E+00  0.00000000000E+00  0.45593999997E+02  0.45594000000E+02  0.51100000000E-03 0.  1.
         11   -1    0    0    0    0 -0.00000000000E+00 -0.00000000000E+00 -0.45593999997E+02  0.45594000000E+02  0.51100000000E-03 0. -1.
    9900012    2    1    2    0    0 -0.33561885234E+02 -0.27497585053E+02  0.10516626375E+01  0.47787270530E+02  0.19999997654E+02 0.  0.
         12    1    1    2    0    0  0.33561885234E+02  0.27497585053E+02 -0.10516626375E+01  0.43400729470E+02  0.00000000000E+00 0. -1.
         11    1    3    3    0    0  0.81638571805E+00  0.71014106683E+00  0.64391745923E+00  0.12591330076E+01  0.51100000000E-03 0. -1.
        -11    1    3    3    0    0 -0.33804819916E+02 -0.29271806597E+02  0.17122381816E+01  0.44749706936E+02  0.51100000000E-03 0.  1.
        -12    1    3    3    0    0 -0.57345103646E+00  0.10640804774E+01 -0.13044930033E+01  0.17784305860E+01  0.00000000000E+00 0.  1.
</event>
<event>
 7    1  0.4723144E-009  0.4778727E+02  0.7816164E-02  0.1312668E+00
        -11   -1    0    0    0    0  0.00000000000E+00  0.00000000000E+00  0.45593999997E+02  0.45594000000E+02  0.51100000000E-03 0.  1.
         11   -1    0    0    0    0 -0.00000000000E+00 -0.00000000000E+00 -0.45593999997E+02  0.45594000000E+02  0.51100000000E-03 0. -1.
    9900012    2    1    2    0    0  0.48579572569E+01 -0.35164446716E+02  0.24969684997E+02  0.47787271545E+02  0.20000002283E+02 0.  0.
         12    1    1    2    0    0 -0.48579572569E+01  0.35164446716E+02 -0.24969684997E+02  0.43400728455E+02  0.00000000000E+00 0. -1.
         11    1    3    3    0    0 -0.58623416082E+01 -0.51090949269E+01  0.23563717100E+01  0.81254161740E+01  0.51100000000E-03 0. -1.
        -11    1    3    3    0    0  0.62115061989E+01 -0.14340130040E+02  0.14869655712E+02  0.21571481175E+02  0.51100000000E-03 0.  1.
         12    1    3    3    0    0  0.45087926662E+01 -0.15715221749E+02  0.77436575757E+01  0.18090374197E+02  0.00000000000E+00 0. -1.
</event>
<event>
 7    1  0.4723144E-009  0.4778727E+02  0.7816164E-02  0.1312668E+00
        -11   -1    0    0    0    0  0.00000000000E+00  0.00000000000E+00  0.45593999997E+02  0.45594000000E+02  0.51100000000E-03 0.  1.
         11   -1    0    0    0    0 -0.00000000000E+00 -0.00000000000E+00 -0.45593999997E+02  0.45594000000E+02  0.51100000000E-03 0. -1.
    9900012    2    1    2    0    0  0.28760062539E+02 -0.29265135118E+02  0.14143333554E+02  0.47787271726E+02  0.20000003106E+02 0.  0.
         12    1    1    2    0    0 -0.28760062539E+02  0.29265135118E+02 -0.14143333554E+02  0.43400728274E+02  0.00000000000E+00 0. -1.
         11    1    3    3    0    0 -0.30630400597E+00 -0.10718922798E+01 -0.12690755883E+01  0.16891797754E+01  0.51100000000E-03 0. -1.
        -11    1    3    3    0    0  0.30421231671E+02 -0.26408167486E+02  0.12033202781E+02  0.42043318325E+02  0.51100000000E-03 0.  1.
        -12    1    3    3    0    0 -0.13548651253E+01 -0.17850753512E+01  0.33792063616E+01  0.40547736252E+01  0.00000000000E+00 0.  1.
</event>
<event>
 7    1  0.4723144E-009  0.4778727E+02  0.7816164E-02  0.1312668E+00
        -11   -1    0    0    0    0  0.00000000000E+00  0.00000000000E+00  0.45593999997E+02  0.45594000000E+02  0.51100000000E-03 0. -1.
         11   -1    0    0    0    0 -0.00000000000E+00 -0.00000000000E+00 -0.45593999997E+02  0.45594000000E+02  0.51100000000E-03 0.  1.
    9900012    2    1    2    0    0 -0.16279416407E+01  0.39730522022E+02 -0.17391345170E+02  0.47787268890E+02  0.19999990175E+02 0.  0.
         12    1    1    2    0    0  0.16279416407E+01 -0.39730522022E+02  0.17391345170E+02  0.43400731110E+02  0.00000000000E+00 0. -1.
         11    1    3    3    0    0 -0.34789751148E+01  0.33648512387E+02 -0.68817619476E+01  0.34520780720E+02  0.51100000000E-03 0.  1.
        -11    1    3    3    0    0  0.35033448075E+01  0.40405521557E+01 -0.59141007891E+01  0.79734606645E+01  0.51100000000E-03 0. -1.
        -12    1    3    3    0    0 -0.16523113334E+01  0.20414574787E+01 -0.45954824332E+01  0.52930275054E+01  0.00000000000E+00 0.  1.
</event>
<event>
 7    1  0.4723144E-009  0.4778727E+02  0.7816164E-02  0.1312668E+00
        -11   -1    0    0    0    0  0.00000000000E+00  0.00000000000E+00  0.45593999997E+02  0.45594000000E+02  0.51100000000E-03 0.  1.
         11   -1    0    0    0    0 -0.00000000000E+00 -0.00000000000E+00 -0.45593999997E+02  0.45594000000E+02  0.51100000000E-03 0. -1.
    9900012    2    1    2    0    0  0.74109644027E+01 -0.11981302263E+02  0.41050571267E+02  0.47787269607E+02  0.19999993448E+02 0.  0.
         12    1    1    2    0    0 -0.74109644027E+01  0.11981302263E+02 -0.41050571267E+02  0.43400730393E+02  0.00000000000E+00 0. -1.
         11    1    3    3    0    0  0.34388163856E+01 -0.60761831349E+01  0.69098061047E+01  0.98229771601E+01  0.51100000000E-03 0. -1.
        -11    1    3    3    0    0  0.21311936075E+01  0.27288621917E+01  0.25065507803E+02  0.25303524591E+02  0.51100000000E-03 0.  1.
        -12    1    3    3    0    0  0.18409544096E+01 -0.86339813202E+01  0.90752573585E+01  0.12660767856E+02  0.00000000000E+00 0.  1.
</event>
<event>
 7    1  0.4723144E-009  0.4778727E+02  0.7816164E-02  0.1312668E+00
        -11   -1    0    0    0    0  0.00000000000E+00  0.00000000000E+00  0.45593999997E+02  0.45594000000E+02  0.51100000000E-03 0.  1.
         11   -1    0    0    0    0 -0.00000000000E+00 -0.00000000000E+00 -0.45593999997E+02  0.45594000000E+02  0.51100000000E-03 0. -1.
    9900012    2    1    2    0    0  0.49762861447E+01 -0.43088054663E+02  0.15097176083E+01  0.47787272752E+02  0.20000007786E+02 0.  0.
         12    1    1    2    0    0 -0.49762861447E+01  0.43088054663E+02 -0.15097176083E+01  0.43400727248E+02  0.00000000000E+00 0. -1.
         11    1    3    3    0    0 -0.21333055745E+01 -0.72047302298E+00 -0.23140839624E+01  0.32287859788E+01  0.51100000000E-03 0. -1.
        -11    1    3    3    0    0  0.96883569269E+01 -0.35686598996E+02  0.14241762609E+01  0.37005754770E+02  0.51100000000E-03 0.  1.
         12    1    3    3    0    0 -0.25787652077E+01 -0.66809826436E+01  0.23996253097E+01  0.75527320029E+01  0.00000000000E+00 0. -1.
</event>
<event>
 7    1  0.4723144E-009  0.4778723E+02  0.7816164E-02  0.1312668E+00
        -11   -1    0    0    0    0  0.00000000000E+00  0.00000000000E+00  0.45593999997E+02  0.45594000000E+02  0.51100000000E-03 0.  1.
         11   -1    0    0    0    0 -0.00000000000E+00 -0.00000000000E+00 -0.45593999997E+02  0.45594000000E+02  0.51100000000E-03 0. -1.
    9900012    2    1    2    0    0  0.28009866617E+02 -0.15999917255E+02  0.29035779896E+02  0.47787233944E+02  0.19999830846E+02 0.  0.
         12    1    1    2    0    0 -0.28009866617E+02  0.15999917255E+02 -0.29035779896E+02  0.43400766056E+02  0.00000000000E+00 0. -1.
         11    1    3    3    0    0 -0.89079613207E+00  0.73515220763E+00  0.28493173291E+01  0.30745041910E+01  0.51100000000E-03 0. -1.
        -11    1    3    3    0    0  0.24576151065E+02 -0.90074550087E+01  0.14104752069E+02  0.29733238607E+02  0.51100000000E-03 0.  1.
        -12    1    3    3    0    0  0.43245116844E+01 -0.77276144542E+01  0.12081710497E+02  0.14979491146E+02  0.00000000000E+00 0.  1.
</event>
<event>
 7    1  0.4723144E-009  0.4778727E+02  0.7816164E-02  0.1312668E+00
        -11   -1    0    0    0    0  0.00000000000E+00  0.00000000000E+00  0.45593999997E+02  0.45594000000E+02  0.51100000000E-03 0.  1.
         11   -1    0    0    0    0 -0.00000000000E+00 -0.00000000000E+00 -0.45593999997E+02  0.45594000000E+02  0.51100000000E-03 0. -1.
    9900012    2    1    2    0    0  0.16754578626E+02 -0.70681027274E+01  0.39407475412E+02  0.47787273054E+02  0.20000009161E+02 0.  0.
         12    1    1    2    0    0 -0.16754578626E+02  0.70681027274E+01 -0.39407475412E+02  0.43400726946E+02  0.00000000000E+00 0. -1.
         11    1    3    3    0    0  0.16638497539E+02 -0.62456585014E+01  0.17338205552E+02  0.24828637145E+02  0.51100000000E-03 0. -1.
        -11    1    3    3    0    0  0.22534789066E-01  0.13229449923E+01  0.19763568634E+02  0.19807809992E+02  0.51100000000E-03 0.  1.
         12    1    3    3    0    0  0.93546297150E-01 -0.21453892183E+01  0.23057012271E+01  0.31508259165E+01  0.00000000000E+00 0. -1.
</event>
<event>
 7    1  0.4723144E-009  0.4778727E+02  0.7816164E-02  0.1312668E+00
        -11   -1    0    0    0    0  0.00000000000E+00  0.00000000000E+00  0.45593999997E+02  0.45594000000E+02  0.51100000000E-03 0.  1.
         11   -1    0    0    0    0 -0.00000000000E+00 -0.00000000000E+00 -0.45593999997E+02  0.45594000000E+02  0.51100000000E-03 0. -1.
    9900012    2    1    2    0    0 -0.36727541181E+02 -0.16018801941E+02  0.16676592422E+02  0.47787273835E+02  0.20000012724E+02 0.  0.
         12    1    1    2    0    0  0.36727541181E+02  0.16018801941E+02 -0.16676592422E+02  0.43400726165E+02  0.00000000000E+00 0. -1.
         11    1    3    3    0    0 -0.25425258843E+02 -0.19698945473E+02  0.13299988938E+02  0.34804912670E+02  0.51100000000E-03 0.  1.
        -11    1    3    3    0    0 -0.73762397094E+00 -0.61644478951E+00 -0.28735313466E+00  0.10033271581E+01  0.51100000000E-03 0. -1.
         12    1    3    3    0    0 -0.10564658367E+02  0.42965883222E+01  0.36639566190E+01  0.11979034007E+02  0.00000000000E+00 0. -1.
</event>
<event>
 7    1  0.4723144E-009  0.4778727E+02  0.7816164E-02  0.1312668E+00
        -11   -1    0    0    0    0  0.00000000000E+00  0.00000000000E+00  0.45593999997E+02  0.45594000000E+02  0.51100000000E-03 0. -1.
         11   -1    0    0    0    0 -0.00000000000E+00 -0.00000000000E+00 -0.45593999997E+02  0.45594000000E+02  0.51100000000E-03 0.  1.
    9900012    2    1    2    0    0 -0.27100530789E+02 -0.15832615219E+02 -0.29975202516E+02  0.47787271439E+02  0.20000001799E+02 0.  0.
         12    1    1    2    0    0  0.27100530789E+02  0.15832615219E+02  0.29975202516E+02  0.43400728561E+02  0.00000000000E+00 0. -1.
         11    1    3    3    0    0 -0.51777959388E+01 -0.75882230709E+01 -0.32063709211E+01  0.97299288231E+01  0.51100000000E-03 0. -1.
        -11    1    3    3    0    0 -0.28825445668E+01  0.12384699260E+01 -0.11376963095E+02  0.11801616858E+02  0.51100000000E-03 0.  1.
        -12    1    3    3    0    0 -0.19040190284E+02 -0.94828620738E+01 -0.15391868500E+02  0.26255725758E+02  0.00000000000E+00 0.  1.
</event>
<event>
 7    1  0.4723144E-009  0.4778727E+02  0.7816164E-02  0.1312668E+00
        -11   -1    0    0    0    0  0.00000000000E+00  0.00000000000E+00  0.45593999997E+02  0.45594000000E+02  0.51100000000E-03 0. -1.
         11   -1    0    0    0    0 -0.00000000000E+00 -0.00000000000E+00 -0.45593999997E+02  0.45594000000E+02  0.51100000000E-03 0.  1.
    9900012    2    1    2    0    0 -0.35601942245E+02  0.16141725497E+02 -0.18856562218E+02  0.47787268067E+02  0.19999986426E+02 0.  0.
         12    1    1    2    0    0  0.35601942245E+02 -0.16141725497E+02  0.18856562218E+02  0.43400731933E+02  0.00000000000E+00 0. -1.
         11    1    3    3    0    0 -0.59819967566E+01  0.28328667573E+01 -0.83081117236E+01  0.10622341547E+02  0.51100000000E-03 0. -1.
        -11    1    3    3    0    0 -0.15167656300E+02  0.58160210361E+00  0.59694678139E-01  0.15178920329E+02  0.51100000000E-03 0.  1.
        -12    1    3    3    0    0 -0.14452289189E+02  0.12727256636E+02 -0.10608145172E+02  0.21986006192E+02  0.00000000000E+00 0.  1.
</event>
<event>
 7    1  0.4723144E-009  0.4778727E+02  0.7816164E-02  0.1312668E+00
        -11   -1    0    0    0    0  0.00000000000E+00  0.00000000000E+00  0.45593999997E+02  0.45594000000E+02  0.51100000000E-03 0.  1.
         11   -1    0    0    0    0 -0.00000000000E+00 -0.00000000000E+00 -0.45593999997E+02  0.45594000000E+02  0.51100000000E-03 0. -1.
    9900012    2    1    2    0    0  0.14936289016E+01  0.34471954179E+02  0.26326354388E+02  0.47787268582E+02  0.19999988775E+02 0.  0.
         12    1    1    2    0    0 -0.14936289016E+01 -0.34471954179E+02 -0.26326354388E+02  0.43400731418E+02  0.00000000000E+00 0. -1.
         11    1    3    3    0    0 -0.24774077222E+00  0.20645919026E+02  0.25712963500E+02  0.32976837934E+02  0.51100000000E-03 0. -1.
        -11    1    3    3    0    0 -0.57455040908E+00  0.30158278078E+01  0.20063407875E+01  0.36675235726E+01  0.51100000000E-03 0.  1.
         12    1    3    3    0    0  0.23159200829E+01  0.10810207345E+02 -0.13929498996E+01  0.11142907076E+02  0.00000000000E+00 0. -1.
</event>
<event>
 7    1  0.4723144E-009  0.4778727E+02  0.7816164E-02  0.1312668E+00
        -11   -1    0    0    0    0  0.00000000000E+00  0.00000000000E+00  0.45593999997E+02  0.45594000000E+02  0.51100000000E-03 0.  1.
         11   -1    0    0    0    0 -0.00000000000E+00 -0.00000000000E+00 -0.45593999997E+02  0.45594000000E+02  0.51100000000E-03 0. -1.
    9900012    2    1    2    0    0  0.23458134368E+02 -0.25767740449E+02  0.25872046564E+02  0.47787270636E+02  0.19999998137E+02 0.  0.
         12    1    1    2    0    0 -0.23458134368E+02  0.25767740449E+02 -0.25872046564E+02  0.43400729364E+02  0.00000000000E+00 0. -1.
         11    1    3    3    0    0  0.45038351116E+01 -0.36667356594E+01  0.10024024500E+02  0.11584927646E+02  0.51100000000E-03 0. -1.
        -11    1    3    3    0    0  0.68458319808E+01 -0.12160512801E+02  0.52160558701E-01  0.13955149876E+02  0.51100000000E-03 0.  1.
        -12    1    3    3    0    0  0.12108467276E+02 -0.99404919893E+01  0.15795861505E+02  0.22247193114E+02  0.00000000000E+00 0.  1.
</event>
<event>
 7    1  0.4723144E-009  0.4778727E+02  0.7816164E-02  0.1312668E+00
        -11   -1    0    0    0    0  0.00000000000E+00  0.00000000000E+00  0.45593999997E+02  0.45594000000E+02  0.51100000000E-03 0.  1.
         11   -1    0    0    0    0 -0.00000000000E+00 -0.00000000000E+00 -0.45593999997E+02  0.45594000000E+02  0.51100000000E-03 0. -1.
    9900012    2    1    2    0    0  0.39469488515E+02  0.64543395400E+01  0.16855982367E+02  0.47787272309E+02  0.20000005764E+02 0.  0.
         12    1    1    2    0    0 -0.39469488515E+02 -0.64543395400E+01 -0.16855982367E+02  0.43400727691E+02  0.00000000000E+00 0. -1.
         11    1    3    3    0    0  0.10534566212E+02  0.75058803445E+00  0.71469529887E+00  0.10585426647E+02  0.51100000000E-03 0. -1.
        -11    1    3    3    0    0  0.10634010476E+02  0.84008289530E+01  0.15482479759E+01  0.13640131156E+02  0.51100000000E-03 0.  1.
        -12    1    3    3    0    0  0.18300911827E+02 -0.26970774475E+01  0.14593039093E+02  0.23561714505E+02  0.00000000000E+00 0.  1.
</event>
<event>
 7    1  0.4723144E-009  0.4778728E+02  0.7816164E-02  0.1312668E+00
        -11   -1    0    0    0    0  0.00000000000E+00  0.00000000000E+00  0.45593999997E+02  0.45594000000E+02  0.51100000000E-03 0.  1.
         11   -1    0    0    0    0 -0.00000000000E+00 -0.00000000000E+00 -0.45593999997E+02  0.45594000000E+02  0.51100000000E-03 0. -1.
    9900012    2    1    2    0    0  0.10727110476E+02 -0.56936221972E+01  0.41666946223E+02  0.47787278342E+02  0.20000033273E+02 0.  0.
         12    1    1    2    0    0 -0.10727110476E+02  0.56936221972E+01 -0.41666946223E+02  0.43400721658E+02  0.00000000000E+00 0. -1.
         11    1    3    3    0    0  0.13320522570E+02 -0.33815569827E+01  0.34003836183E+02  0.36676042925E+02  0.51100000000E-03 0. -1.
        -11    1    3    3    0    0 -0.38518996567E+01 -0.20820533834E+01  0.12242668570E+01  0.45465269003E+01  0.51100000000E-03 0.  1.
        -12    1    3    3    0    0  0.12584875626E+01 -0.23001183109E+00  0.64388431825E+01  0.65647085173E+01  0.00000000000E+00 0.  1.
</event>
<event>
 7    1  0.4723144E-009  0.4778727E+02  0.7816164E-02  0.1312668E+00
        -11   -1    0    0    0    0  0.00000000000E+00  0.00000000000E+00  0.45593999997E+02  0.45594000000E+02  0.51100000000E-03 0.  1.
         11   -1    0    0    0    0 -0.00000000000E+00 -0.00000000000E+00 -0.45593999997E+02  0.45594000000E+02  0.51100000000E-03 0. -1.
    9900012    2    1    2    0    0 -0.23358255359E+02 -0.23915103544E+02  0.27678202030E+02  0.47787272603E+02  0.20000007107E+02 0.  0.
         12    1    1    2    0    0  0.23358255359E+02  0.23915103544E+02 -0.27678202030E+02  0.43400727397E+02  0.00000000000E+00 0. -1.
         11    1    3    3    0    0 -0.17678422076E+01  0.27768246606E+01  0.10729162648E+01  0.34622493901E+01  0.51100000000E-03 0. -1.
        -11    1    3    3    0    0 -0.43329591608E+01 -0.18580950017E+01  0.64230889707E+01  0.79676297800E+01  0.51100000000E-03 0.  1.
         12    1    3    3    0    0 -0.17257453991E+02 -0.24833833203E+02  0.20182196795E+02  0.36357393433E+02  0.00000000000E+00 0. -1.
</event>
<event>
 7    1  0.4723144E-009  0.4778727E+02  0.7816164E-02  0.1312668E+00
        -11   -1    0    0    0    0  0.00000000000E+00  0.00000000000E+00  0.45593999997E+02  0.45594000000E+02  0.51100000000E-03 0. -1.
         11   -1    0    0    0    0 -0.00000000000E+00 -0.00000000000E+00 -0.45593999997E+02  0.45594000000E+02  0.51100000000E-03 0.  1.
    9900012    2    1    2    0    0 -0.24771515477E+02  0.32199672200E+02 -0.15270118731E+02  0.47787269650E+02  0.19999993642E+02 0.  0.
         12    1    1    2    0    0  0.24771515477E+02 -0.32199672200E+02  0.15270118731E+02  0.43400730350E+02  0.00000000000E+00 0. -1.
         11    1    3    3    0    0 -0.97026532020E+01  0.69221354153E+01  0.36614950829E+01  0.12468519734E+02  0.51100000000E-03 0. -1.
        -11    1    3    3    0    0 -0.94122706236E+01  0.12463713884E+02 -0.11966881579E+02  0.19675905495E+02  0.51100000000E-03 0.  1.
        -12    1    3    3    0    0 -0.56565916518E+01  0.12813822901E+02 -0.69647322356E+01  0.15642844420E+02  0.00000000000E+00 0.  1.
</event>
<event>
 7    1  0.4723144E-009  0.4778727E+02  0.7816164E-02  0.1312668E+00
        -11   -1    0    0    0    0  0.00000000000E+00  0.00000000000E+00  0.45593999997E+02  0.45594000000E+02  0.51100000000E-03 0.  1.
         11   -1    0    0    0    0 -0.00000000000E+00 -0.00000000000E+00 -0.45593999997E+02  0.45594000000E+02  0.51100000000E-03 0. -1.
    9900012    2    1    2    0    0  0.10918463894E+02  0.15118702864E+02  0.39189739536E+02  0.47787265962E+02  0.19999976829E+02 0.  0.
         12    1    1    2    0    0 -0.10918463894E+02 -0.15118702864E+02 -0.39189739536E+02  0.43400734038E+02  0.00000000000E+00 0. -1.
         11    1    3    3    0    0  0.13915971625E+02  0.37607971196E+01  0.25447412940E+02  0.29246686767E+02  0.51100000000E-03 0. -1.
        -11    1    3    3    0    0 -0.60004242663E+00  0.86226200632E+01  0.82199911485E+01  0.11928029276E+02  0.51100000000E-03 0.  1.
         12    1    3    3    0    0 -0.23974653039E+01  0.27352856811E+01  0.55223354476E+01  0.66125499194E+01  0.00000000000E+00 0. -1.
</event>
<event>
 7    1  0.4723144E-009  0.4778727E+02  0.7816164E-02  0.1312668E+00
        -11   -1    0    0    0    0  0.00000000000E+00  0.00000000000E+00  0.45593999997E+02  0.45594000000E+02  0.51100000000E-03 0.  1.
         11   -1    0    0    0    0 -0.00000000000E+00 -0.00000000000E+00 -0.45593999997E+02  0.45594000000E+02  0.51100000000E-03 0. -1.
    9900012    2    1    2    0    0  0.12308578833E+02  0.60473747536E+01  0.41177073922E+02  0.47787271076E+02  0.20000000145E+02 0.  0.
         12    1    1    2    0    0 -0.12308578833E+02 -0.60473747536E+01 -0.41177073922E+02  0.43400728924E+02  0.00000000000E+00 0. -1.
         11    1    3    3    0    0  0.26841119533E+01  0.10840421721E+02  0.23702837481E+02  0.26201979028E+02  0.51100000000E-03 0. -1.
        -11    1    3    3    0    0  0.10359813717E+02 -0.53574188955E+01  0.15441391871E+02  0.19351079056E+02  0.51100000000E-03 0.  1.
        -12    1    3    3    0    0 -0.73534683769E+00  0.56437192770E+00  0.20328445711E+01  0.22342129922E+01  0.00000000000E+00 0.  1.
</event>
<event>
 7    1  0.4723144E-009  0.4778727E+02  0.7816164E-02  0.1312668E+00
        -11   -1    0    0    0    0  0.00000000000E+00  0.00000000000E+00  0.45593999997E+02  0.45594000000E+02  0.51100000000E-03 0. -1.
         11   -1    0    0    0    0 -0.00000000000E+00 -0.00000000000E+00 -0.45593999997E+02  0.45594000000E+02  0.51100000000E-03 0.  1.
    9900012    2    1    2    0    0  0.13451946874E+02  0.38203150110E+02 -0.15594475496E+02  0.47787271677E+02  0.20000002883E+02 0.  0.
         12    1    1    2    0    0 -0.13451946874E+02 -0.38203150110E+02  0.15594475496E+02  0.43400728323E+02  0.00000000000E+00 0. -1.
         11    1    3    3    0    0  0.16350867173E+02  0.37471888836E+02 -0.13113709403E+02  0.42935564335E+02  0.51100000000E-03 0. -1.
        -11    1    3    3    0    0 -0.23020728544E+01  0.17504908459E+01 -0.12647004914E+01  0.31564577018E+01  0.51100000000E-03 0.  1.
         12    1    3    3    0    0 -0.59684744525E+00 -0.10192295718E+01 -0.12160656018E+01  0.16952496397E+01  0.00000000000E+00 0. -1.
</event>
<event>
 7    1  0.4723144E-009  0.4778727E+02  0.7816164E-02  0.1312668E+00
        -11   -1    0    0    0    0  0.00000000000E+00  0.00000000000E+00  0.45593999997E+02  0.45594000000E+02  0.51100000000E-03 0.  1.
         11   -1    0    0    0    0 -0.00000000000E+00 -0.00000000000E+00 -0.45593999997E+02  0.45594000000E+02  0.51100000000E-03 0. -1.
    9900012    2    1    2    0    0  0.16710548879E+02 -0.13026804646E+02  0.37877210899E+02  0.47787272027E+02  0.20000004478E+02 0.  0.
         12    1    1    2    0    0 -0.16710548879E+02  0.13026804646E+02 -0.37877210899E+02  0.43400727973E+02  0.00000000000E+00 0. -1.
         11    1    3    3    0    0 -0.21198707368E+01 -0.52552683438E+01  0.50071187726E+01  0.75619399608E+01  0.51100000000E-03 0. -1.
        -11    1    3    3    0    0  0.15084277370E+02 -0.26962398431E+01  0.15723798352E+02  0.21955476946E+02  0.51100000000E-03 0.  1.
        -12    1    3    3    0    0  0.37461422453E+01 -0.50752964586E+01  0.17146293775E+02  0.18269855119E+02  0.00000000000E+00 0.  1.
</event>
<event>
 7    1  0.4723144E-009  0.4778727E+02  0.7816164E-02  0.1312668E+00
        -11   -1    0    0    0    0  0.00000000000E+00  0.00000000000E+00  0.45593999997E+02  0.45594000000E+02  0.51100000000E-03 0.  1.
         11   -1    0    0    0    0 -0.00000000000E+00 -0.00000000000E+00 -0.45593999997E+02  0.45594000000E+02  0.51100000000E-03 0. -1.
    9900012    2    1    2    0    0  0.41755790077E+02 -0.10164428916E+02  0.60631775751E+01  0.47787265646E+02  0.19999975389E+02 0.  0.
         12    1    1    2    0    0 -0.41755790077E+02  0.10164428916E+02 -0.60631775751E+01  0.43400734354E+02  0.00000000000E+00 0. -1.
         11    1    3    3    0    0  0.21851105175E+02  0.80179906410E+00 -0.26530118165E+01  0.22026169687E+02  0.51100000000E-03 0. -1.
        -11    1    3    3    0    0  0.14123324774E+02 -0.52494748793E+01  0.91341850463E+01  0.17619836148E+02  0.51100000000E-03 0.  1.
         12    1    3    3    0    0  0.57813601278E+01 -0.57167531013E+01 -0.41799565470E+00  0.81412598113E+01  0.00000000000E+00 0. -1.
</event>
<event>
 7    1  0.4723144E-009  0.4778727E+02  0.7816164E-02  0.1312668E+00
        -11   -1    0    0    0    0  0.00000000000E+00  0.00000000000E+00  0.45593999997E+02  0.45594000000E+02  0.51100000000E-03 0.  1.
         11   -1    0    0    0    0 -0.00000000000E+00 -0.00000000000E+00 -0.45593999997E+02  0.45594000000E+02  0.51100000000E-03 0. -1.
    9900012    2    1    2    0    0  0.84308170053E+01 -0.78725392236E+01  0.41839792140E+02  0.47787265496E+02  0.19999974701E+02 0.  0.
         12    1    1    2    0    0 -0.84308170053E+01  0.78725392236E+01 -0.41839792140E+02  0.43400734504E+02  0.00000000000E+00 0. -1.
         11    1    3    3    0    0 -0.31302651873E+01 -0.40814036223E+01  0.18329581746E+02  0.19037593937E+02  0.51100000000E-03 0. -1.
        -11    1    3    3    0    0  0.78440533849E+01 -0.43053085233E+01  0.58391493421E+01  0.10684592659E+02  0.51100000000E-03 0.  1.
        -12    1    3    3    0    0  0.37170288077E+01  0.51417292199E+00  0.17671061052E+02  0.18065078899E+02  0.00000000000E+00 0.  1.
</event>
<event>
 7    1  0.4723144E-009  0.4778727E+02  0.7816164E-02  0.1312668E+00
        -11   -1    0    0    0    0  0.00000000000E+00  0.00000000000E+00  0.45593999997E+02  0.45594000000E+02  0.51100000000E-03 0.  1.
         11   -1    0    0    0    0 -0.00000000000E+00 -0.00000000000E+00 -0.45593999997E+02  0.45594000000E+02  0.51100000000E-03 0. -1.
    9900012    2    1    2    0    0 -0.37662589098E+02 -0.45774728853E+01 -0.21076035723E+02  0.47787272386E+02  0.20000006117E+02 0.  0.
         12    1    1    2    0    0  0.37662589098E+02  0.45774728853E+01  0.21076035723E+02  0.43400727614E+02  0.00000000000E+00 0. -1.
         11    1    3    3    0    0 -0.30553949489E+01 -0.51166813855E+01  0.64403004867E+00  0.59942173517E+01  0.51100000000E-03 0. -1.
        -11    1    3    3    0    0 -0.27034329005E+02  0.37937012427E+00 -0.20902026235E+02  0.34174457822E+02  0.51100000000E-03 0.  1.
        -12    1    3    3    0    0 -0.75728651440E+01  0.15983837595E+00 -0.81803953707E+00  0.76185972121E+01  0.00000000000E+00 0.  1.
</event>
<event>
 7    1  0.4723144E-009  0.4778727E+02  0.7816164E-02  0.1312668E+00
        -11   -1    0    0    0    0  0.00000000000E+00  0.00000000000E+00  0.45593999997E+02  0.45594000000E+02  0.51100000000E-03 0.  1.
         11   -1    0    0    0    0 -0.00000000000E+00 -0.00000000000E+00 -0.45593999997E+02  0.45594000000E+02  0.51100000000E-03 0. -1.
    9900012    2    1    2    0    0 -0.41577759178E+02  0.19300333910E+01  0.12295867204E+02  0.47787269159E+02  0.19999991406E+02 0.  0.
         12    1    1    2    0    0  0.41577759178E+02 -0.19300333910E+01 -0.12295867204E+02  0.43400730841E+02  0.00000000000E+00 0. -1.
         11    1    3    3    0    0 -0.52785929751E+01 -0.19998084933E+01  0.84433388013E+01  0.10156414140E+02  0.51100000000E-03 0. -1.
        -11    1    3    3    0    0 -0.23980881361E+02  0.55279532390E+01 -0.52978572444E-01  0.24609830248E+02  0.51100000000E-03 0.  1.
         12    1    3    3    0    0 -0.12318284842E+02 -0.15981113548E+01  0.39055069755E+01  0.13021024771E+02  0.00000000000E+00 0. -1.
</event>
<event>
 7    1  0.4723144E-009  0.4778727E+02  0.7816164E-02  0.1312668E+00
        -11   -1    0    0    0    0  0.00000000000E+00  0.00000000000E+00  0.45593999997E+02  0.45594000000E+02  0.51100000000E-03 0.  1.
         11   -1    0    0    0    0 -0.00000000000E+00 -0.00000000000E+00 -0.45593999997E+02  0.45594000000E+02  0.51100000000E-03 0. -1.
    9900012    2    1    2    0    0 -0.21181098173E+02 -0.13331388448E+02  0.35457840930E+02  0.47787270499E+02  0.19999997515E+02 0.  0.
         12    1    1    2    0    0  0.21181098173E+02  0.13331388448E+02 -0.35457840930E+02  0.43400729501E+02  0.00000000000E+00 0. -1.
         11    1    3    3    0    0  0.60952285228E+00 -0.45277206618E+01  0.23770317701E+01  0.51499565819E+01  0.51100000000E-03 0. -1.
        -11    1    3    3    0    0 -0.12034294407E+02 -0.53007712661E+01  0.28332500005E+02  0.31235444205E+02  0.51100000000E-03 0.  1.
         12    1    3    3    0    0 -0.97563266182E+01 -0.35028965199E+01  0.47483091555E+01  0.11401869713E+02  0.00000000000E+00 0. -1.
</event>
<event>
 7    1  0.4723144E-009  0.4778727E+02  0.7816164E-02  0.1312668E+00
        -11   -1    0    0    0    0  0.00000000000E+00  0.00000000000E+00  0.45593999997E+02  0.45594000000E+02  0.51100000000E-03 0.  1.
         11   -1    0    0    0    0 -0.00000000000E+00 -0.00000000000E+00 -0.45593999997E+02  0.45594000000E+02  0.51100000000E-03 0. -1.
    9900012    2    1    2    0    0 -0.36501699232E+02 -0.14790759193E+02  0.18234108617E+02  0.47787270497E+02  0.19999997502E+02 0.  0.
         12    1    1    2    0    0  0.36501699232E+02  0.14790759193E+02 -0.18234108617E+02  0.43400729503E+02  0.00000000000E+00 0. -1.
         11    1    3    3    0    0 -0.37776708745E+02 -0.15391856961E+02  0.17333196739E+02  0.44321876018E+02  0.51100000000E-03 0. -1.
        -11    1    3    3    0    0  0.13059229545E+01 -0.10199587393E+01  0.10800965984E+00  0.16605471811E+01  0.51100000000E-03 0.  1.
         12    1    3    3    0    0 -0.30913441428E-01  0.16210565066E+01  0.79290221881E+00  0.18048472974E+01  0.00000000000E+00 0. -1.
</event>
<event>
 7    1  0.4723144E-009  0.4778727E+02  0.7816164E-02  0.1312668E+00
        -11   -1    0    0    0    0  0.00000000000E+00  0.00000000000E+00  0.45593999997E+02  0.45594000000E+02  0.51100000000E-03 0.  1.
         11   -1    0    0    0    0 -0.00000000000E+00 -0.00000000000E+00 -0.45593999997E+02  0.45594000000E+02  0.51100000000E-03 0. -1.
    9900012    2    1    2    0    0 -0.25795265728E+02 -0.28727483074E+02  0.19823191378E+02  0.47787274959E+02  0.20000017846E+02 0.  0.
         12    1    1    2    0    0  0.25795265728E+02  0.28727483074E+02 -0.19823191378E+02  0.43400725041E+02  0.00000000000E+00 0. -1.
         11    1    3    3    0    0 -0.39591493189E+01 -0.69210688472E+01  0.13169773662E+02  0.15395421264E+02  0.51100000000E-03 0. -1.
        -11    1    3    3    0    0 -0.13824323255E+02 -0.15062251980E+02  0.77453567048E+01  0.21862614183E+02  0.51100000000E-03 0.  1.
         12    1    3    3    0    0 -0.80117931537E+01 -0.67441622469E+01 -0.10919389888E+01  0.10529239512E+02  0.00000000000E+00 0. -1.
</event>
<event>
 7    1  0.4723144E-009  0.4778727E+02  0.7816164E-02  0.1312668E+00
        -11   -1    0    0    0    0  0.00000000000E+00  0.00000000000E+00  0.45593999997E+02  0.45594000000E+02  0.51100000000E-03 0.  1.
         11   -1    0    0    0    0 -0.00000000000E+00 -0.00000000000E+00 -0.45593999997E+02  0.45594000000E+02  0.51100000000E-03 0. -1.
    9900012    2    1    2    0    0  0.31683965230E+02  0.18746631837E+02  0.22985065441E+02  0.47787273148E+02  0.20000009593E+02 0.  0.
         12    1    1    2    0    0 -0.31683965230E+02 -0.18746631837E+02 -0.22985065441E+02  0.43400726852E+02  0.00000000000E+00 0. -1.
         11    1    3    3    0    0 -0.14497745926E+01  0.19750861936E+01  0.12696750072E+01  0.27595084212E+01  0.51100000000E-03 0. -1.
        -11    1    3    3    0    0  0.31953117104E+02  0.11526017137E+02  0.19813119682E+02  0.39324425939E+02  0.51100000000E-03 0.  1.
        -12    1    3    3    0    0  0.11806227190E+01  0.52455285064E+01  0.19022707520E+01  0.57033387879E+01  0.00000000000E+00 0.  1.
</event>
<event>
 7    1  0.4723144E-009  0.4778728E+02  0.7816164E-02  0.1312668E+00
        -11   -1    0    0    0    0  0.00000000000E+00  0.00000000000E+00  0.45593999997E+02  0.45594000000E+02  0.51100000000E-03 0. -1.
         11   -1    0    0    0    0 -0.00000000000E+00 -0.00000000000E+00 -0.45593999997E+02  0.45594000000E+02  0.51100000000E-03 0.  1.
    9900012    2    1    2    0    0  0.11852462002E+02 -0.24289828295E+02 -0.33958006739E+02  0.47787276091E+02  0.20000023010E+02 0.  0.
         12    1    1    2    0    0 -0.11852462002E+02  0.24289828295E+02  0.33958006739E+02  0.43400723909E+02  0.00000000000E+00 0. -1.
         11    1    3    3    0    0  0.90077883852E+01 -0.29396054137E+01 -0.68166848096E+01  0.11672562856E+02  0.51100000000E-03 0. -1.
        -11    1    3    3    0    0  0.31372916389E+01 -0.15227609952E+02 -0.25333848970E+02  0.29724175473E+02  0.51100000000E-03 0.  1.
        -12    1    3    3    0    0 -0.29261802192E+00 -0.61226129286E+01 -0.18074729602E+01  0.63905377615E+01  0.00000000000E+00 0.  1.
</event>
<event>
 7    1  0.4723144E-009  0.4778726E+02  0.7816164E-02  0.1312668E+00
        -11   -1    0    0    0    0  0.00000000000E+00  0.00000000000E+00  0.45593999997E+02  0.45594000000E+02  0.51100000000E-03 0. -1.
         11   -1    0    0    0    0 -0.00000000000E+00 -0.00000000000E+00 -0.45593999997E+02  0.45594000000E+02  0.51100000000E-03 0.  1.
    9900012    2    1    2    0    0 -0.21883105812E+02 -0.65915068560E+01 -0.36895884643E+02  0.47787255926E+02  0.19999931069E+02 0.  0.
         12    1    1    2    0    0  0.21883105812E+02  0.65915068560E+01  0.36895884643E+02  0.43400744074E+02  0.00000000000E+00 0. -1.
         11    1    3    3    0    0 -0.94055351056E+01  0.22267764791E+01 -0.61255026985E+01  0.11443094323E+02  0.51100000000E-03 0. -1.
        -11    1    3    3    0    0 -0.12216368894E+02 -0.75233538557E+01 -0.31654830763E+02  0.34754407391E+02  0.51100000000E-03 0.  1.
        -12    1    3    3    0    0 -0.26120181241E+00 -0.12949294793E+01  0.88444881880E+00  0.15897542125E+01  0.00000000000E+00 0.  1.
</event>
<event>
 7    1  0.4723144E-009  0.4778723E+02  0.7816164E-02  0.1312668E+00
        -11   -1    0    0    0    0  0.00000000000E+00  0.00000000000E+00  0.45593999997E+02  0.45594000000E+02  0.51100000000E-03 0. -1.
         11   -1    0    0    0    0 -0.00000000000E+00 -0.00000000000E+00 -0.45593999997E+02  0.45594000000E+02  0.51100000000E-03 0.  1.
    9900012    2    1    2    0    0 -0.41593156044E+01 -0.43192368911E+02  0.86368224371E+00  0.47787232893E+02  0.19999826052E+02 0.  0.
         12    1    1    2    0    0  0.41593156044E+01  0.43192368911E+02 -0.86368224371E+00  0.43400767107E+02  0.00000000000E+00 0. -1.
         11    1    3    3    0    0  0.42476007374E+01 -0.91995808451E+01 -0.42770912811E+01  0.10998541259E+02  0.51100000000E-03 0. -1.
        -11    1    3    3    0    0 -0.97592198840E+01 -0.31608111119E+02  0.65247028592E+01  0.33717752133E+02  0.51100000000E-03 0.  1.
        -12    1    3    3    0    0  0.13523035423E+01 -0.23846769470E+01 -0.13839293344E+01  0.30709395003E+01  0.00000000000E+00 0.  1.
</event>
<event>
 7    1  0.4723144E-009  0.4778727E+02  0.7816164E-02  0.1312668E+00
        -11   -1    0    0    0    0  0.00000000000E+00  0.00000000000E+00  0.45593999997E+02  0.45594000000E+02  0.51100000000E-03 0.  1.
         11   -1    0    0    0    0 -0.00000000000E+00 -0.00000000000E+00 -0.45593999997E+02  0.45594000000E+02  0.51100000000E-03 0. -1.
    9900012    2    1    2    0    0  0.36228649652E+02  0.13032499731E+02  0.20031528650E+02  0.47787271378E+02  0.20000001522E+02 0.  0.
         12    1    1    2    0    0 -0.36228649652E+02 -0.13032499731E+02 -0.20031528650E+02  0.43400728622E+02  0.00000000000E+00 0. -1.
         11    1    3    3    0    0  0.17404350950E+01 -0.26312447870E+01  0.51206707592E+00  0.31960563825E+01  0.51100000000E-03 0. -1.
        -11    1    3    3    0    0  0.15038798503E+02  0.13970487280E+02  0.11028949875E+02  0.23301882131E+02  0.51100000000E-03 0.  1.
        -12    1    3    3    0    0  0.19449416053E+02  0.16932572378E+01  0.84905116998E+01  0.21289332865E+02  0.00000000000E+00 0.  1.
</event>
<event>
 7    1  0.4723144E-009  0.4778727E+02  0.7816164E-02  0.1312668E+00
        -11   -1    0    0    0    0  0.00000000000E+00  0.00000000000E+00  0.45593999997E+02  0.45594000000E+02  0.51100000000E-03 0.  1.
         11   -1    0    0    0    0 -0.00000000000E+00 -0.00000000000E+00 -0.45593999997E+02  0.45594000000E+02  0.51100000000E-03 0. -1.
    9900012    2    1    2    0    0 -0.22299333274E+02  0.34944995289E+02  0.12853424089E+02  0.47787268773E+02  0.19999989644E+02 0.  0.
         12    1    1    2    0    0  0.22299333274E+02 -0.34944995289E+02 -0.12853424089E+02  0.43400731227E+02  0.00000000000E+00 0. -1.
         11    1    3    3    0    0  0.21326860560E+01  0.39309069841E+01  0.51452466828E+01  0.68171800049E+01  0.51100000000E-03 0. -1.
        -11    1    3    3    0    0 -0.21176407385E+02  0.27751747419E+02  0.92446836719E+01  0.36111824809E+02  0.51100000000E-03 0.  1.
        -12    1    3    3    0    0 -0.32556119454E+01  0.32623408858E+01 -0.15365062660E+01  0.48582639595E+01  0.00000000000E+00 0.  1.
</event>
<event>
 7    1  0.4723144E-009  0.4778727E+02  0.7816164E-02  0.1312668E+00
        -11   -1    0    0    0    0  0.00000000000E+00  0.00000000000E+00  0.45593999997E+02  0.45594000000E+02  0.51100000000E-03 0. -1.
         11   -1    0    0    0    0 -0.00000000000E+00 -0.00000000000E+00 -0.45593999997E+02  0.45594000000E+02  0.51100000000E-03 0.  1.
    9900012    2    1    2    0    0  0.63711402746E+01 -0.38094552122E+02 -0.19794872628E+02  0.47787270603E+02  0.19999997989E+02 0.  0.
         12    1    1    2    0    0 -0.63711402746E+01  0.38094552122E+02  0.19794872628E+02  0.43400729397E+02  0.00000000000E+00 0. -1.
         11    1    3    3    0    0 -0.13852096787E+01 -0.17313341619E+02 -0.18445474420E+02  0.25335866488E+02  0.51100000000E-03 0. -1.
        -11    1    3    3    0    0  0.36842349570E+01 -0.12668862911E+02 -0.20297757244E+01  0.13348919972E+02  0.51100000000E-03 0.  1.
         12    1    3    3    0    0  0.40721149962E+01 -0.81123475934E+01  0.68037751688E+00  0.91024841436E+01  0.00000000000E+00 0. -1.
</event>
<event>
 7    1  0.4723144E-009  0.4778727E+02  0.7816164E-02  0.1312668E+00
        -11   -1    0    0    0    0  0.00000000000E+00  0.00000000000E+00  0.45593999997E+02  0.45594000000E+02  0.51100000000E-03 0. -1.
         11   -1    0    0    0    0 -0.00000000000E+00 -0.00000000000E+00 -0.45593999997E+02  0.45594000000E+02  0.51100000000E-03 0.  1.
    9900012    2    1    2    0    0  0.36246014135E+02 -0.13200233604E+02 -0.19889787765E+02  0.47787269992E+02  0.19999995202E+02 0.  0.
         12    1    1    2    0    0 -0.36246014135E+02  0.13200233604E+02  0.19889787765E+02  0.43400730008E+02  0.00000000000E+00 0. -1.
         11    1    3    3    0    0  0.20408780842E+02 -0.17629376611E+01 -0.39346320007E+01  0.20859233301E+02  0.51100000000E-03 0. -1.
        -11    1    3    3    0    0  0.14935834891E+02 -0.10348635733E+02 -0.17218012017E+02  0.25032645955E+02  0.51100000000E-03 0.  1.
         12    1    3    3    0    0  0.90139840129E+00 -0.10886602099E+01  0.12628562519E+01  0.18953907364E+01  0.00000000000E+00 0. -1.
</event>
<event>
 7    1  0.4723144E-009  0.4778727E+02  0.7816164E-02  0.1312668E+00
        -11   -1    0    0    0    0  0.00000000000E+00  0.00000000000E+00  0.45593999997E+02  0.45594000000E+02  0.51100000000E-03 0. -1.
         11   -1    0    0    0    0 -0.00000000000E+00 -0.00000000000E+00 -0.45593999997E+02  0.45594000000E+02  0.51100000000E-03 0.  1.
    9900012    2    1    2    0    0 -0.39643095438E+02  0.10595268490E+02 -0.14134658774E+02  0.47787270640E+02  0.19999998157E+02 0.  0.
         12    1    1    2    0    0  0.39643095438E+02 -0.10595268490E+02  0.14134658774E+02  0.43400729360E+02  0.00000000000E+00 0. -1.
         11    1    3    3    0    0 -0.23587521653E+02  0.21309019502E+01 -0.11087884665E+02  0.26150585222E+02  0.51100000000E-03 0. -1.
        -11    1    3    3    0    0 -0.90015161172E+01  0.10469003504E+02 -0.36424230460E+01  0.14279165686E+02  0.51100000000E-03 0.  1.
         12    1    3    3    0    0 -0.70540576684E+01 -0.20046369651E+01  0.59564893718E+00  0.73575197321E+01  0.00000000000E+00 0. -1.
</event>
<event>
 7    1  0.4723144E-009  0.4778727E+02  0.7816164E-02  0.1312668E+00
        -11   -1    0    0    0    0  0.00000000000E+00  0.00000000000E+00  0.45593999997E+02  0.45594000000E+02  0.51100000000E-03 0.  1.
         11   -1    0    0    0    0 -0.00000000000E+00 -0.00000000000E+00 -0.45593999997E+02  0.45594000000E+02  0.51100000000E-03 0. -1.
    9900012    2    1    2    0    0 -0.13229774639E+02 -0.16316172491E+02  0.37978666478E+02  0.47787268103E+02  0.19999986589E+02 0.  0.
         12    1    1    2    0    0  0.13229774639E+02  0.16316172491E+02 -0.37978666478E+02  0.43400731897E+02  0.00000000000E+00 0. -1.
         11    1    3    3    0    0 -0.26155292489E+01 -0.17986682570E+01  0.21578090712E+02  0.21810323239E+02  0.51100000000E-03 0. -1.
        -11    1    3    3    0    0 -0.88861852771E+01 -0.57205117921E+01  0.11999266088E+02  0.15989713283E+02  0.51100000000E-03 0.  1.
         12    1    3    3    0    0 -0.17280601131E+01 -0.87969924421E+01  0.44013096768E+01  0.99872315810E+01  0.00000000000E+00 0. -1.
</event>
<event>
 7    1  0.4723144E-009  0.4778727E+02  0.7816164E-02  0.1312668E+00
        -11   -1    0    0    0    0  0.00000000000E+00  0.00000000000E+00  0.45593999997E+02  0.45594000000E+02  0.51100000000E-03 0.  1.
         11   -1    0    0    0    0 -0.00000000000E+00 -0.00000000000E+00 -0.45593999997E+02  0.45594000000E+02  0.51100000000E-03 0. -1.
    9900012    2    1    2    0    0  0.30715279202E+02 -0.16658902843E+02  0.25742496503E+02  0.47787267902E+02  0.19999985674E+02 0.  0.
         12    1    1    2    0    0 -0.30715279202E+02  0.16658902843E+02 -0.25742496503E+02  0.43400732098E+02  0.00000000000E+00 0. -1.
         11    1    3    3    0    0  0.66387262199E+01  0.35985170526E+01  0.34976927365E+01  0.83220109072E+01  0.51100000000E-03 0. -1.
        -11    1    3    3    0    0  0.10795510984E+02 -0.13288436288E+02  0.15200317707E+02  0.22894873991E+02  0.51100000000E-03 0.  1.
         12    1    3    3    0    0  0.13281041998E+02 -0.69689836071E+01  0.70444860598E+01  0.16570383004E+02  0.00000000000E+00 0. -1.
</event>
<event>
 7    1  0.4723144E-009  0.4778727E+02  0.7816164E-02  0.1312668E+00
        -11   -1    0    0    0    0  0.00000000000E+00  0.00000000000E+00  0.45593999997E+02  0.45594000000E+02  0.51100000000E-03 0.  1.
         11   -1    0    0    0    0 -0.00000000000E+00 -0.00000000000E+00 -0.45593999997E+02  0.45594000000E+02  0.51100000000E-03 0. -1.
    9900012    2    1    2    0    0  0.18906331036E+02  0.25508487261E+02  0.29588699373E+02  0.47787269520E+02  0.19999993050E+02 0.  0.
         12    1    1    2    0    0 -0.18906331036E+02 -0.25508487261E+02 -0.29588699373E+02  0.43400730480E+02  0.00000000000E+00 0. -1.
         11    1    3    3    0    0  0.16728297346E+02  0.13962757543E+02  0.14904651903E+02  0.26399681416E+02  0.51100000000E-03 0. -1.
        -11    1    3    3    0    0 -0.12034061960E+01  0.82131425369E+01  0.14412685381E+02  0.16632179561E+02  0.51100000000E-03 0.  1.
        -12    1    3    3    0    0  0.33814398863E+01  0.33325871814E+01  0.27136208983E+00  0.47554085430E+01  0.00000000000E+00 0.  1.
</event>
<event>
 7    1  0.4723144E-009  0.4778727E+02  0.7816164E-02  0.1312668E+00
        -11   -1    0    0    0    0  0.00000000000E+00  0.00000000000E+00  0.45593999997E+02  0.45594000000E+02  0.51100000000E-03 0.  1.
         11   -1    0    0    0    0 -0.00000000000E+00 -0.00000000000E+00 -0.45593999997E+02  0.45594000000E+02  0.51100000000E-03 0. -1.
    9900012    2    1    2    0    0 -0.98297537673E+01  0.40175943987E+02  0.13148861869E+02  0.47787273015E+02  0.20000008986E+02 0.  0.
         12    1    1    2    0    0  0.98297537673E+01 -0.40175943987E+02 -0.13148861869E+02  0.43400726985E+02  0.00000000000E+00 0. -1.
         11    1    3    3    0    0  0.28700704554E+01  0.57699132533E+01  0.47951058059E+01  0.80325738914E+01  0.51100000000E-03 0. -1.
        -11    1    3    3    0    0 -0.82887992420E+01  0.32724883760E+02  0.91291838177E+01  0.34970905156E+02  0.51100000000E-03 0.  1.
        -12    1    3    3    0    0 -0.44110249807E+01  0.16811469734E+01 -0.77542775449E+00  0.47837939681E+01  0.00000000000E+00 0.  1.
</event>
<event>
 7    1  0.4723144E-009  0.4778727E+02  0.7816164E-02  0.1312668E+00
        -11   -1    0    0    0    0  0.00000000000E+00  0.00000000000E+00  0.45593999997E+02  0.45594000000E+02  0.51100000000E-03 0.  1.
         11   -1    0    0    0    0 -0.00000000000E+00 -0.00000000000E+00 -0.45593999997E+02  0.45594000000E+02  0.51100000000E-03 0. -1.
    9900012    2    1    2    0    0  0.28996578762E+02  0.32193179931E+02 -0.25339559606E+01  0.47787270205E+02  0.19999996172E+02 0.  0.
         12    1    1    2    0    0 -0.28996578762E+02 -0.32193179931E+02  0.25339559606E+01  0.43400729795E+02  0.00000000000E+00 0. -1.
         11    1    3    3    0    0  0.17900602334E+02  0.12679091713E+02 -0.76617346457E+01  0.23235600028E+02  0.51100000000E-03 0.  1.
        -11    1    3    3    0    0  0.72216908130E+01  0.12663922453E+02  0.74155961904E+01  0.16356002483E+02  0.51100000000E-03 0. -1.
        -12    1    3    3    0    0  0.38742856144E+01  0.68501657641E+01 -0.22878175053E+01  0.81956676943E+01  0.00000000000E+00 0.  1.
</event>
<event>
 7    1  0.4723144E-009  0.4778727E+02  0.7816164E-02  0.1312668E+00
        -11   -1    0    0    0    0  0.00000000000E+00  0.00000000000E+00  0.45593999997E+02  0.45594000000E+02  0.51100000000E-03 0.  1.
         11   -1    0    0    0    0 -0.00000000000E+00 -0.00000000000E+00 -0.45593999997E+02  0.45594000000E+02  0.51100000000E-03 0. -1.
    9900012    2    1    2    0    0 -0.57118420536E+01  0.16717412444E+02  0.39642482227E+02  0.47787269412E+02  0.19999992555E+02 0.  0.
         12    1    1    2    0    0  0.57118420536E+01 -0.16717412444E+02 -0.39642482227E+02  0.43400730588E+02  0.00000000000E+00 0. -1.
         11    1    3    3    0    0  0.18099858369E-01  0.38413942099E+01 -0.11487332723E+01  0.40095168628E+01  0.51100000000E-03 0. -1.
        -11    1    3    3    0    0 -0.23881179841E+01  0.11418777016E+02  0.35374296607E+02  0.37248254144E+02  0.51100000000E-03 0.  1.
         12    1    3    3    0    0 -0.33418239278E+01  0.14572412176E+01  0.54169188928E+01  0.65294984051E+01  0.00000000000E+00 0. -1.
</event>
<event>
 7    1  0.4723144E-009  0.4778729E+02  0.7816164E-02  0.1312668E+00
        -11   -1    0    0    0    0  0.00000000000E+00  0.00000000000E+00  0.45593999997E+02  0.45594000000E+02  0.51100000000E-03 0. -1.
         11   -1    0    0    0    0 -0.00000000000E+00 -0.00000000000E+00 -0.45593999997E+02  0.45594000000E+02  0.51100000000E-03 0.  1.
    9900012    2    1    2    0    0  0.38084023674E+02  0.90403951986E+00 -0.20794510601E+02  0.47787287819E+02  0.20000076483E+02 0.  0.
         12    1    1    2    0    0 -0.38084023674E+02 -0.90403951986E+00  0.20794510601E+02  0.43400712181E+02  0.00000000000E+00 0. -1.
         11    1    3    3    0    0  0.10423804205E+02 -0.45368421143E+01  0.87168189031E+00  0.11401686720E+02  0.51100000000E-03 0. -1.
        -11    1    3    3    0    0  0.15974215250E+02  0.69481277375E+01 -0.13714362321E+02  0.22170605901E+02  0.51100000000E-03 0.  1.
         12    1    3    3    0    0  0.11686004219E+02 -0.15072461033E+01 -0.79518301706E+01  0.14214995198E+02  0.00000000000E+00 0. -1.
</event>
<event>
 7    1  0.4723144E-009  0.4778727E+02  0.7816164E-02  0.1312668E+00
        -11   -1    0    0    0    0  0.00000000000E+00  0.00000000000E+00  0.45593999997E+02  0.45594000000E+02  0.51100000000E-03 0.  1.
         11   -1    0    0    0    0 -0.00000000000E+00 -0.00000000000E+00 -0.45593999997E+02  0.45594000000E+02  0.51100000000E-03 0. -1.
    9900012    2    1    2    0    0  0.21976509508E+02  0.19853343891E+00  0.37424815637E+02  0.47787271768E+02  0.20000003298E+02 0.  0.
         12    1    1    2    0    0 -0.21976509508E+02 -0.19853343891E+00 -0.37424815637E+02  0.43400728232E+02  0.00000000000E+00 0. -1.
         11    1    3    3    0    0  0.13150588351E+02 -0.18580412161E+01  0.30471538045E+02  0.33240110142E+02  0.51100000000E-03 0. -1.
        -11    1    3    3    0    0 -0.12846823290E+01  0.19357459551E+01  0.27420332859E+01  0.35939209634E+01  0.51100000000E-03 0.  1.
         12    1    3    3    0    0  0.10110603485E+02  0.12082869990E+00  0.42112443058E+01  0.10953240663E+02  0.00000000000E+00 0. -1.
</event>
<event>
 7    1  0.4723144E-009  0.4778727E+02  0.7816164E-02  0.1312668E+00
        -11   -1    0    0    0    0  0.00000000000E+00  0.00000000000E+00  0.45593999997E+02  0.45594000000E+02  0.51100000000E-03 0. -1.
         11   -1    0    0    0    0 -0.00000000000E+00 -0.00000000000E+00 -0.45593999997E+02  0.45594000000E+02  0.51100000000E-03 0.  1.
    9900012    2    1    2    0    0  0.28779442926E+02  0.32029644254E+02 -0.54285129501E+01  0.47787271906E+02  0.20000003930E+02 0.  0.
         12    1    1    2    0    0 -0.28779442926E+02 -0.32029644254E+02  0.54285129501E+01  0.43400728094E+02  0.00000000000E+00 0. -1.
         11    1    3    3    0    0  0.78462231985E+01  0.31333882891E+01  0.48306153731E+01  0.97322240929E+01  0.51100000000E-03 0. -1.
        -11    1    3    3    0    0  0.16019052709E+02  0.26006964645E+02 -0.10632367190E+02  0.32342224599E+02  0.51100000000E-03 0.  1.
         12    1    3    3    0    0  0.49141670187E+01  0.28892913207E+01  0.37323886644E+00  0.57128232141E+01  0.00000000000E+00 0. -1.
</event>
<event>
 7    1  0.4723144E-009  0.4778727E+02  0.7816164E-02  0.1312668E+00
        -11   -1    0    0    0    0  0.00000000000E+00  0.00000000000E+00  0.45593999997E+02  0.45594000000E+02  0.51100000000E-03 0.  1.
         11   -1    0    0    0    0 -0.00000000000E+00 -0.00000000000E+00 -0.45593999997E+02  0.45594000000E+02  0.51100000000E-03 0. -1.
    9900012    2    1    2    0    0 -0.37309912093E+02 -0.15573273279E+02 -0.15781847121E+02  0.47787273283E+02  0.20000010208E+02 0.  0.
         12    1    1    2    0    0  0.37309912093E+02  0.15573273279E+02  0.15781847121E+02  0.43400726717E+02  0.00000000000E+00 0. -1.
         11    1    3    3    0    0 -0.23579194328E+02 -0.71152218517E+01 -0.16060257902E+02  0.29403004460E+02  0.51100000000E-03 0. -1.
        -11    1    3    3    0    0 -0.14749856856E+02 -0.68187961285E+01  0.10989596829E+01  0.16286864970E+02  0.51100000000E-03 0.  1.
        -12    1    3    3    0    0  0.10191390912E+01 -0.16392552983E+01 -0.82054890185E+00  0.20974038526E+01  0.00000000000E+00 0.  1.
</event>
<event>
 7    1  0.4723144E-009  0.4778727E+02  0.7816164E-02  0.1312668E+00
        -11   -1    0    0    0    0  0.00000000000E+00  0.00000000000E+00  0.45593999997E+02  0.45594000000E+02  0.51100000000E-03 0. -1.
         11   -1    0    0    0    0 -0.00000000000E+00 -0.00000000000E+00 -0.45593999997E+02  0.45594000000E+02  0.51100000000E-03 0.  1.
    9900012    2    1    2    0    0  0.12396998536E+02 -0.41084061722E+02  0.64836768561E+01  0.47787265377E+02  0.19999974158E+02 0.  0.
         12    1    1    2    0    0 -0.12396998536E+02  0.41084061722E+02 -0.64836768561E+01  0.43400734623E+02  0.00000000000E+00 0. -1.
         11    1    3    3    0    0 -0.11198038065E+01 -0.17463759224E+02  0.95742647544E+01  0.19947515952E+02  0.51100000000E-03 0. -1.
        -11    1    3    3    0    0  0.12113124376E+02 -0.19176204118E+02 -0.92439821407E+00  0.22700420675E+02  0.51100000000E-03 0.  1.
        -12    1    3    3    0    0  0.14036779667E+01 -0.44440983806E+01 -0.21661896842E+01  0.51393287498E+01  0.00000000000E+00 0.  1.
</event>
<event>
 7    1  0.4723144E-009  0.4778727E+02  0.7816164E-02  0.1312668E+00
        -11   -1    0    0    0    0  0.00000000000E+00  0.00000000000E+00  0.45593999997E+02  0.45594000000E+02  0.51100000000E-03 0.  1.
         11   -1    0    0    0    0 -0.00000000000E+00 -0.00000000000E+00 -0.45593999997E+02  0.45594000000E+02  0.51100000000E-03 0. -1.
    9900012    2    1    2    0    0 -0.11656008406E+02 -0.41747472638E+02  0.22157041593E+01  0.47787270185E+02  0.19999996079E+02 0.  0.
         12    1    1    2    0    0  0.11656008406E+02  0.41747472638E+02 -0.22157041593E+01  0.43400729815E+02  0.00000000000E+00 0. -1.
         11    1    3    3    0    0 -0.50840302515E+00 -0.95134935339E+01 -0.49959795119E+01  0.10757548252E+02  0.51100000000E-03 0. -1.
        -11    1    3    3    0    0 -0.13667584561E+02 -0.29930046974E+02  0.66764951826E+01  0.33573593310E+02  0.51100000000E-03 0.  1.
        -12    1    3    3    0    0  0.25199791808E+01 -0.23039321301E+01  0.53518848856E+00  0.34561286218E+01  0.00000000000E+00 0.  1.
</event>
<event>
 7    1  0.4723144E-009  0.4778727E+02  0.7816164E-02  0.1312668E+00
        -11   -1    0    0    0    0  0.00000000000E+00  0.00000000000E+00  0.45593999997E+02  0.45594000000E+02  0.51100000000E-03 0. -1.
         11   -1    0    0    0    0 -0.00000000000E+00 -0.00000000000E+00 -0.45593999997E+02  0.45594000000E+02  0.51100000000E-03 0.  1.
    9900012    2    1    2    0    0 -0.29105857389E+02  0.24518715390E+02 -0.20863960490E+02  0.47787272056E+02  0.20000004612E+02 0.  0.
         12    1    1    2    0    0  0.29105857389E+02 -0.24518715390E+02  0.20863960490E+02  0.43400727944E+02  0.00000000000E+00 0. -1.
         11    1    3    3    0    0 -0.69478167385E+01  0.14226439284E+02 -0.57881100524E+01  0.16857222499E+02  0.51100000000E-03 0. -1.
        -11    1    3    3    0    0 -0.18927373834E+02  0.75858915220E+01 -0.16756693329E+02  0.26392764199E+02  0.51100000000E-03 0.  1.
        -12    1    3    3    0    0 -0.32306668166E+01  0.27063845843E+01  0.16808428919E+01  0.45372853586E+01  0.00000000000E+00 0.  1.
</event>
<event>
 7    1  0.4723144E-009  0.4778727E+02  0.7816164E-02  0.1312668E+00
        -11   -1    0    0    0    0  0.00000000000E+00  0.00000000000E+00  0.45593999997E+02  0.45594000000E+02  0.51100000000E-03 0.  1.
         11   -1    0    0    0    0 -0.00000000000E+00 -0.00000000000E+00 -0.45593999997E+02  0.45594000000E+02  0.51100000000E-03 0. -1.
    9900012    2    1    2    0    0  0.14308975811E+02 -0.29890088794E+02 -0.28026045978E+02  0.47787269015E+02  0.19999990748E+02 0.  0.
         12    1    1    2    0    0 -0.14308975811E+02  0.29890088794E+02  0.28026045978E+02  0.43400730985E+02  0.00000000000E+00 0. -1.
         11    1    3    3    0    0  0.34986790361E+01  0.32363471031E+00 -0.87935246547E+01  0.94695074073E+01  0.51100000000E-03 0. -1.
        -11    1    3    3    0    0  0.12065198180E+02 -0.25274368466E+02 -0.15586530706E+02  0.32051562336E+02  0.51100000000E-03 0.  1.
        -12    1    3    3    0    0 -0.12549014056E+01 -0.49393550389E+01 -0.36459906165E+01  0.62661992717E+01  0.00000000000E+00 0.  1.
</event>
<event>
 7    1  0.4723144E-009  0.4778729E+02  0.7816164E-02  0.1312668E+00
        -11   -1    0    0    0    0  0.00000000000E+00  0.00000000000E+00  0.45593999997E+02  0.45594000000E+02  0.51100000000E-03 0.  1.
         11   -1    0    0    0    0 -0.00000000000E+00 -0.00000000000E+00 -0.45593999997E+02  0.45594000000E+02  0.51100000000E-03 0. -1.
    9900012    2    1    2    0    0  0.19496416503E+02  0.36391535458E+01  0.38603984306E+02  0.47787293792E+02  0.20000103717E+02 0.  0.
         12    1    1    2    0    0 -0.19496416503E+02 -0.36391535458E+01 -0.38603984306E+02  0.43400706208E+02  0.00000000000E+00 0. -1.
         11    1    3    3    0    0  0.16237477614E+02 -0.95444313189E+00  0.20800652005E+02  0.26405184435E+02  0.51100000000E-03 0.  1.
        -11    1    3    3    0    0  0.66378270871E+01  0.14863168610E+01  0.13367374012E+02  0.14998552413E+02  0.51100000000E-03 0. -1.
         12    1    3    3    0    0 -0.33788881982E+01  0.31072798167E+01  0.44359582895E+01  0.63835569443E+01  0.00000000000E+00 0. -1.
</event>
<event>
 7    1  0.4723144E-009  0.4778727E+02  0.7816164E-02  0.1312668E+00
        -11   -1    0    0    0    0  0.00000000000E+00  0.00000000000E+00  0.45593999997E+02  0.45594000000E+02  0.51100000000E-03 0. -1.
         11   -1    0    0    0    0 -0.00000000000E+00 -0.00000000000E+00 -0.45593999997E+02  0.45594000000E+02  0.51100000000E-03 0.  1.
    9900012    2    1    2    0    0  0.38652859406E+02  0.35552987103E+01 -0.19414940571E+02  0.47787267212E+02  0.19999982526E+02 0.  0.
         12    1    1    2    0    0 -0.38652859406E+02 -0.35552987103E+01  0.19414940571E+02  0.43400732788E+02  0.00000000000E+00 0. -1.
         11    1    3    3    0    0 -0.74049348930E+00  0.95830328677E+00  0.66269186284E+00  0.13805203958E+01  0.51100000000E-03 0. -1.
        -11    1    3    3    0    0  0.31910359114E+02  0.55329112068E+01 -0.20547468895E+02  0.38354694673E+02  0.51100000000E-03 0.  1.
        -12    1    3    3    0    0  0.74829937809E+01 -0.29359157832E+01  0.46983646127E+00  0.80520521429E+01  0.00000000000E+00 0.  1.
</event>
<event>
 7    1  0.4723144E-009  0.4778727E+02  0.7816164E-02  0.1312668E+00
        -11   -1    0    0    0    0  0.00000000000E+00  0.00000000000E+00  0.45593999997E+02  0.45594000000E+02  0.51100000000E-03 0. -1.
         11   -1    0    0    0    0 -0.00000000000E+00 -0.00000000000E+00 -0.45593999997E+02  0.45594000000E+02  0.51100000000E-03 0.  1.
    9900012    2    1    2    0    0  0.39194329580E+02  0.10788057142E+02  0.15200190083E+02  0.47787269284E+02  0.19999991972E+02 0.  0.
         12    1    1    2    0    0 -0.39194329580E+02 -0.10788057142E+02 -0.15200190083E+02  0.43400730716E+02  0.00000000000E+00 0. -1.
         11    1    3    3    0    0  0.35272806632E+02  0.29314911283E+01  0.15382618421E+02  0.38592609107E+02  0.51100000000E-03 0. -1.
        -11    1    3    3    0    0  0.41709047745E+01  0.72005212385E+01  0.32652687875E+00  0.83276991305E+01  0.51100000000E-03 0.  1.
         12    1    3    3    0    0 -0.24938182646E+00  0.65604477524E+00 -0.50895521696E+00  0.86696104605E+00  0.00000000000E+00 0. -1.
</event>
<event>
 7    1  0.4723144E-009  0.4778727E+02  0.7816164E-02  0.1312668E+00
        -11   -1    0    0    0    0  0.00000000000E+00  0.00000000000E+00  0.45593999997E+02  0.45594000000E+02  0.51100000000E-03 0.  1.
         11   -1    0    0    0    0 -0.00000000000E+00 -0.00000000000E+00 -0.45593999997E+02  0.45594000000E+02  0.51100000000E-03 0. -1.
    9900012    2    1    2    0    0 -0.33174136894E+02  0.23863314676E+02  0.14616494861E+02  0.47787273417E+02  0.20000010816E+02 0.  0.
         12    1    1    2    0    0  0.33174136894E+02 -0.23863314676E+02 -0.14616494861E+02  0.43400726583E+02  0.00000000000E+00 0. -1.
         11    1    3    3    0    0  0.42815003137E+00  0.29869093912E+01  0.57655528327E+01  0.65074219080E+01  0.51100000000E-03 0. -1.
        -11    1    3    3    0    0 -0.32197503115E+02  0.21342869389E+02  0.76625482381E+01  0.39381619144E+02  0.51100000000E-03 0.  1.
         12    1    3    3    0    0 -0.14047838095E+01 -0.46646410441E+00  0.11883937898E+01  0.18982323651E+01  0.00000000000E+00 0. -1.
</event>
<event>
 7    1  0.4723144E-009  0.4778727E+02  0.7816164E-02  0.1312668E+00
        -11   -1    0    0    0    0  0.00000000000E+00  0.00000000000E+00  0.45593999997E+02  0.45594000000E+02  0.51100000000E-03 0.  1.
         11   -1    0    0    0    0 -0.00000000000E+00 -0.00000000000E+00 -0.45593999997E+02  0.45594000000E+02  0.51100000000E-03 0. -1.
    9900012    2    1    2    0    0 -0.18348958864E+02 -0.38115487352E+02  0.97030257234E+01  0.47787269872E+02  0.19999994654E+02 0.  0.
         12    1    1    2    0    0  0.18348958864E+02  0.38115487352E+02 -0.97030257234E+01  0.43400730128E+02  0.00000000000E+00 0. -1.
         11    1    3    3    0    0 -0.29052124994E+01 -0.94884507124E+01  0.64571563515E+01  0.11839164877E+02  0.51100000000E-03 0. -1.
        -11    1    3    3    0    0 -0.85307520811E+01 -0.12007398057E+02 -0.57665961937E+01  0.15817868728E+02  0.51100000000E-03 0.  1.
        -12    1    3    3    0    0 -0.69129942835E+01 -0.16619638582E+02  0.90124655656E+01  0.20130236266E+02  0.00000000000E+00 0.  1.
</event>
<event>
 7    1  0.4723144E-009  0.4778728E+02  0.7816164E-02  0.1312668E+00
        -11   -1    0    0    0    0  0.00000000000E+00  0.00000000000E+00  0.45593999997E+02  0.45594000000E+02  0.51100000000E-03 0.  1.
         11   -1    0    0    0    0 -0.00000000000E+00 -0.00000000000E+00 -0.45593999997E+02  0.45594000000E+02  0.51100000000E-03 0. -1.
    9900012    2    1    2    0    0  0.11873486370E+02 -0.10800892179E+02  0.40323480946E+02  0.47787284959E+02  0.20000063441E+02 0.  0.
         12    1    1    2    0    0 -0.11873486370E+02  0.10800892179E+02 -0.40323480946E+02  0.43400715041E+02  0.00000000000E+00 0. -1.
         11    1    3    3    0    0  0.70141668742E+01  0.21485794307E+01  0.28992422169E+01  0.78879995058E+01  0.51100000000E-03 0. -1.
        -11    1    3    3    0    0  0.35820734028E+01 -0.92809032706E+01  0.27154453088E+02  0.28919383433E+02  0.51100000000E-03 0.  1.
         12    1    3    3    0    0  0.12772460930E+01 -0.36685683396E+01  0.10269785642E+02  0.10979902020E+02  0.00000000000E+00 0. -1.
</event>
<event>
 7    1  0.4723144E-009  0.4778727E+02  0.7816164E-02  0.1312668E+00
        -11   -1    0    0    0    0  0.00000000000E+00  0.00000000000E+00  0.45593999997E+02  0.45594000000E+02  0.51100000000E-03 0. -1.
         11   -1    0    0    0    0 -0.00000000000E+00 -0.00000000000E+00 -0.45593999997E+02  0.45594000000E+02  0.51100000000E-03 0.  1.
    9900012    2    1    2    0    0 -0.13772983291E+02  0.30042234706E+02 -0.28131695422E+02  0.47787271640E+02  0.20000002715E+02 0.  0.
         12    1    1    2    0    0  0.13772983291E+02 -0.30042234706E+02  0.28131695422E+02  0.43400728360E+02  0.00000000000E+00 0. -1.
         11    1    3    3    0    0 -0.27223985814E+01  0.17635186115E+01  0.24439043203E+01  0.40612954235E+01  0.51100000000E-03 0. -1.
        -11    1    3    3    0    0 -0.44713661257E+01  0.16524288369E+02 -0.12563889635E+02  0.21234324669E+02  0.51100000000E-03 0.  1.
         12    1    3    3    0    0 -0.65792185834E+01  0.11754427725E+02 -0.18011710107E+02  0.22491651547E+02  0.00000000000E+00 0. -1.
</event>
<event>
 7    1  0.4723144E-009  0.4778729E+02  0.7816164E-02  0.1312668E+00
        -11   -1    0    0    0    0  0.00000000000E+00  0.00000000000E+00  0.45593999997E+02  0.45594000000E+02  0.51100000000E-03 0.  1.
         11   -1    0    0    0    0 -0.00000000000E+00 -0.00000000000E+00 -0.45593999997E+02  0.45594000000E+02  0.51100000000E-03 0. -1.
    9900012    2    1    2    0    0  0.88574208747E+01 -0.57663616544E+01  0.42094138449E+02  0.47787293519E+02  0.20000102469E+02 0.  0.
         12    1    1    2    0    0 -0.88574208747E+01  0.57663616544E+01 -0.42094138449E+02  0.43400706481E+02  0.00000000000E+00 0. -1.
         11    1    3    3    0    0 -0.21521202948E+01 -0.25751201548E+00  0.93970190256E+00  0.23624085439E+01  0.51100000000E-03 0. -1.
        -11    1    3    3    0    0  0.10999286468E+02 -0.12578761304E+01  0.13562343502E+02  0.17507247547E+02  0.51100000000E-03 0.  1.
        -12    1    3    3    0    0  0.10254701861E-01 -0.42509735085E+01  0.27592093045E+02  0.27917637428E+02  0.00000000000E+00 0.  1.
</event>
<event>
 7    1  0.4723144E-009  0.4778726E+02  0.7816164E-02  0.1312668E+00
        -11   -1    0    0    0    0  0.00000000000E+00  0.00000000000E+00  0.45593999997E+02  0.45594000000E+02  0.51100000000E-03 0. -1.
         11   -1    0    0    0    0 -0.00000000000E+00 -0.00000000000E+00 -0.45593999997E+02  0.45594000000E+02  0.51100000000E-03 0.  1.
    9900012    2    1    2    0    0  0.43273261131E+02 -0.71701928662E+00  0.32457721024E+01  0.47787259429E+02  0.19999947039E+02 0.  0.
         12    1    1    2    0    0 -0.43273261131E+02  0.71701928662E+00 -0.32457721024E+01  0.43400740571E+02  0.00000000000E+00 0. -1.
         11    1    3    3    0    0  0.10103703989E+02 -0.53623609242E+01 -0.17210528092E+00  0.11439815098E+02  0.51100000000E-03 0. -1.
        -11    1    3    3    0    0  0.99683404172E+01  0.79295779228E+01  0.68312581897E+00  0.12755887968E+02  0.51100000000E-03 0.  1.
        -12    1    3    3    0    0  0.23201216725E+02 -0.32842362852E+01  0.27347515644E+01  0.23591556363E+02  0.00000000000E+00 0.  1.
</event>
<event>
 7    1  0.4723144E-009  0.4778728E+02  0.7816164E-02  0.1312668E+00
        -11   -1    0    0    0    0  0.00000000000E+00  0.00000000000E+00  0.45593999997E+02  0.45594000000E+02  0.51100000000E-03 0.  1.
         11   -1    0    0    0    0 -0.00000000000E+00 -0.00000000000E+00 -0.45593999997E+02  0.45594000000E+02  0.51100000000E-03 0. -1.
    9900012    2    1    2    0    0 -0.12530320899E+02 -0.24329112220E+02  0.33685428215E+02  0.47787277457E+02  0.20000029237E+02 0.  0.
         12    1    1    2    0    0  0.12530320899E+02  0.24329112220E+02 -0.33685428215E+02  0.43400722543E+02  0.00000000000E+00 0. -1.
         11    1    3    3    0    0 -0.57052424298E+01  0.13911696773E+01  0.34848652345E+01  0.68285745377E+01  0.51100000000E-03 0. -1.
        -11    1    3    3    0    0 -0.66272418958E+01 -0.17354605752E+02  0.24850457728E+02  0.31026568059E+02  0.51100000000E-03 0.  1.
         12    1    3    3    0    0 -0.19783657324E+00 -0.83656761452E+01  0.53501052525E+01  0.99321348606E+01  0.00000000000E+00 0. -1.
</event>
<event>
 7    1  0.4723144E-009  0.4778727E+02  0.7816164E-02  0.1312668E+00
        -11   -1    0    0    0    0  0.00000000000E+00  0.00000000000E+00  0.45593999997E+02  0.45594000000E+02  0.51100000000E-03 0.  1.
         11   -1    0    0    0    0 -0.00000000000E+00 -0.00000000000E+00 -0.45593999997E+02  0.45594000000E+02  0.51100000000E-03 0. -1.
    9900012    2    1    2    0    0  0.18411894086E+02 -0.32696298264E+02  0.21807739590E+02  0.47787271089E+02  0.20000000204E+02 0.  0.
         12    1    1    2    0    0 -0.18411894086E+02  0.32696298264E+02 -0.21807739590E+02  0.43400728911E+02  0.00000000000E+00 0. -1.
         11    1    3    3    0    0  0.13309826043E+02 -0.65716859891E+01  0.72908023179E+01  0.16537663823E+02  0.51100000000E-03 0. -1.
        -11    1    3    3    0    0  0.64565871994E+01 -0.17941920993E+02  0.79022471388E+01  0.20640871040E+02  0.51100000000E-03 0.  1.
         12    1    3    3    0    0 -0.13545191563E+01 -0.81826912814E+01  0.66146901329E+01  0.10608736226E+02  0.00000000000E+00 0. -1.
</event>
<event>
 7    1  0.4723144E-009  0.4778727E+02  0.7816164E-02  0.1312668E+00
        -11   -1    0    0    0    0  0.00000000000E+00  0.00000000000E+00  0.45593999997E+02  0.45594000000E+02  0.51100000000E-03 0.  1.
         11   -1    0    0    0    0 -0.00000000000E+00 -0.00000000000E+00 -0.45593999997E+02  0.45594000000E+02  0.51100000000E-03 0. -1.
    9900012    2    1    2    0    0 -0.41729446057E+02 -0.18318948069E+01  0.11786454794E+02  0.47787273930E+02  0.20000013157E+02 0.  0.
         12    1    1    2    0    0  0.41729446057E+02  0.18318948069E+01 -0.11786454794E+02  0.43400726070E+02  0.00000000000E+00 0. -1.
         11    1    3    3    0    0 -0.29703391999E+02 -0.55208228827E+00  0.11784562877E+02  0.31960478932E+02  0.51100000000E-03 0.  1.
        -11    1    3    3    0    0 -0.42771101281E+01 -0.51328849168E+01  0.19422307138E+01  0.69579047869E+01  0.51100000000E-03 0. -1.
         12    1    3    3    0    0 -0.77489439297E+01  0.38530723981E+01 -0.19403387970E+01  0.88688902112E+01  0.00000000000E+00 0. -1.
</event>
<event>
 7    1  0.4723144E-009  0.4778727E+02  0.7816164E-02  0.1312668E+00
        -11   -1    0    0    0    0  0.00000000000E+00  0.00000000000E+00  0.45593999997E+02  0.45594000000E+02  0.51100000000E-03 0.  1.
         11   -1    0    0    0    0 -0.00000000000E+00 -0.00000000000E+00 -0.45593999997E+02  0.45594000000E+02  0.51100000000E-03 0. -1.
    9900012    2    1    2    0    0  0.89288554539E+01 -0.24256436319E+02  0.34864366951E+02  0.47787271371E+02  0.20000001491E+02 0.  0.
         12    1    1    2    0    0 -0.89288554539E+01  0.24256436319E+02 -0.34864366951E+02  0.43400728629E+02  0.00000000000E+00 0. -1.
         11    1    3    3    0    0  0.68560697630E+01 -0.87883112309E+01  0.42102198490E+01  0.11914951042E+02  0.51100000000E-03 0. -1.
        -11    1    3    3    0    0 -0.70061074494E+00 -0.15802639327E+02  0.26627123344E+02  0.30971244130E+02  0.51100000000E-03 0.  1.
        -12    1    3    3    0    0  0.27733964359E+01  0.33451423973E+00  0.40270237578E+01  0.49010761995E+01  0.00000000000E+00 0.  1.
</event>
<event>
 7    1  0.4723144E-009  0.4778728E+02  0.7816164E-02  0.1312668E+00
        -11   -1    0    0    0    0  0.00000000000E+00  0.00000000000E+00  0.45593999997E+02  0.45594000000E+02  0.51100000000E-03 0.  1.
         11   -1    0    0    0    0 -0.00000000000E+00 -0.00000000000E+00 -0.45593999997E+02  0.45594000000E+02  0.51100000000E-03 0. -1.
    9900012    2    1    2    0    0 -0.68533564433E+01 -0.37144272132E+02 -0.21376556891E+02  0.47787278448E+02  0.20000033754E+02 0.  0.
         12    1    1    2    0    0  0.68533564433E+01  0.37144272132E+02  0.21376556891E+02  0.43400721552E+02  0.00000000000E+00 0. -1.
         11    1    3    3    0    0 -0.13270230125E+01 -0.14899364518E+02 -0.12975208738E+02  0.19801719500E+02  0.51100000000E-03 0. -1.
        -11    1    3    3    0    0 -0.57463397595E+01 -0.63906265948E+01  0.22505463309E+01  0.88840017984E+01  0.51100000000E-03 0.  1.
        -12    1    3    3    0    0  0.22000632867E+00 -0.15854281019E+02 -0.10651894484E+02  0.19101557149E+02  0.00000000000E+00 0.  1.
</event>
<event>
 7    1  0.4723144E-009  0.4778727E+02  0.7816164E-02  0.1312668E+00
        -11   -1    0    0    0    0  0.00000000000E+00  0.00000000000E+00  0.45593999997E+02  0.45594000000E+02  0.51100000000E-03 0.  1.
         11   -1    0    0    0    0 -0.00000000000E+00 -0.00000000000E+00 -0.45593999997E+02  0.45594000000E+02  0.51100000000E-03 0. -1.
    9900012    2    1    2    0    0  0.29845773282E+02 -0.14294664219E+02  0.28080528048E+02  0.47787266557E+02  0.19999979539E+02 0.  0.
         12    1    1    2    0    0 -0.29845773282E+02  0.14294664219E+02 -0.28080528048E+02  0.43400733443E+02  0.00000000000E+00 0. -1.
         11    1    3    3    0    0  0.96064091922E+01 -0.60080051678E+01  0.12911899264E+01  0.11403788640E+02  0.51100000000E-03 0. -1.
        -11    1    3    3    0    0  0.12349754591E+02 -0.10111753699E+02  0.21230339205E+02  0.26561086279E+02  0.51100000000E-03 0.  1.
        -12    1    3    3    0    0  0.78896094990E+01  0.18250946474E+01  0.55589989170E+01  0.98223916374E+01  0.00000000000E+00 0.  1.
</event>
<event>
 7    1  0.4723144E-009  0.4778727E+02  0.7816164E-02  0.1312668E+00
        -11   -1    0    0    0    0  0.00000000000E+00  0.00000000000E+00  0.45593999997E+02  0.45594000000E+02  0.51100000000E-03 0.  1.
         11   -1    0    0    0    0 -0.00000000000E+00 -0.00000000000E+00 -0.45593999997E+02  0.45594000000E+02  0.51100000000E-03 0. -1.
    9900012    2    1    2    0    0 -0.34477107398E+02  0.25475181878E+02 -0.67799433591E+01  0.47787268921E+02  0.19999990319E+02 0.  0.
         12    1    1    2    0    0  0.34477107398E+02 -0.25475181878E+02  0.67799433591E+01  0.43400731079E+02  0.00000000000E+00 0. -1.
         11    1    3    3    0    0 -0.12749248815E+02 -0.56617751047E+00 -0.43963080797E+00  0.12769384395E+02  0.51100000000E-03 0. -1.
        -11    1    3    3    0    0 -0.55082431112E+01  0.32473157962E+01 -0.20516604128E+01  0.67152894773E+01  0.51100000000E-03 0.  1.
         12    1    3    3    0    0 -0.16219615472E+02  0.22794043592E+02 -0.42886521383E+01  0.28302595048E+02  0.00000000000E+00 0. -1.
</event>
<event>
 7    1  0.4723144E-009  0.4778727E+02  0.7816164E-02  0.1312668E+00
        -11   -1    0    0    0    0  0.00000000000E+00  0.00000000000E+00  0.45593999997E+02  0.45594000000E+02  0.51100000000E-03 0.  1.
         11   -1    0    0    0    0 -0.00000000000E+00 -0.00000000000E+00 -0.45593999997E+02  0.45594000000E+02  0.51100000000E-03 0. -1.
    9900012    2    1    2    0    0  0.26568485278E+00  0.85479337855E+01  0.42549799500E+02  0.47787271920E+02  0.20000003991E+02 0.  0.
         12    1    1    2    0    0 -0.26568485278E+00 -0.85479337855E+01 -0.42549799500E+02  0.43400728080E+02  0.00000000000E+00 0. -1.
         11    1    3    3    0    0  0.88667846288E+01  0.55243335085E+01  0.21681859846E+02  0.24067429796E+02  0.51100000000E-03 0. -1.
        -11    1    3    3    0    0 -0.78623947890E+01  0.42882461219E+01  0.13451074411E+02  0.16159755868E+02  0.51100000000E-03 0.  1.
         12    1    3    3    0    0 -0.73870498698E+00 -0.12646458449E+01  0.74168652427E+01  0.75600862560E+01  0.00000000000E+00 0. -1.
</event>
<event>
 7    1  0.4723144E-009  0.4778728E+02  0.7816164E-02  0.1312668E+00
        -11   -1    0    0    0    0  0.00000000000E+00  0.00000000000E+00  0.45593999997E+02  0.45594000000E+02  0.51100000000E-03 0.  1.
         11   -1    0    0    0    0 -0.00000000000E+00 -0.00000000000E+00 -0.45593999997E+02  0.45594000000E+02  0.51100000000E-03 0. -1.
    9900012    2    1    2    0    0 -0.39608915519E+01 -0.14472014091E+02  0.40724624026E+02  0.47787275861E+02  0.20000021961E+02 0.  0.
         12    1    1    2    0    0  0.39608915519E+01  0.14472014091E+02 -0.40724624026E+02  0.43400724139E+02  0.00000000000E+00 0. -1.
         11    1    3    3    0    0 -0.42835802625E+01 -0.13758676859E+01  0.54530920202E+01  0.70695321342E+01  0.51100000000E-03 0. -1.
        -11    1    3    3    0    0 -0.35945779539E+01 -0.12147307179E+02  0.13253868378E+02  0.18334205454E+02  0.51100000000E-03 0.  1.
         12    1    3    3    0    0  0.39172666645E+01 -0.94883922544E+00  0.22017663627E+02  0.22383538273E+02  0.00000000000E+00 0. -1.
</event>
<event>
 7    1  0.4723144E-009  0.4778727E+02  0.7816164E-02  0.1312668E+00
        -11   -1    0    0    0    0  0.00000000000E+00  0.00000000000E+00  0.45593999997E+02  0.45594000000E+02  0.51100000000E-03 0.  1.
         11   -1    0    0    0    0 -0.00000000000E+00 -0.00000000000E+00 -0.45593999997E+02  0.45594000000E+02  0.51100000000E-03 0. -1.
    9900012    2    1    2    0    0  0.17294613413E+02 -0.38685487807E+02  0.93783131033E+01  0.47787269861E+02  0.19999994604E+02 0.  0.
         12    1    1    2    0    0 -0.17294613413E+02  0.38685487807E+02 -0.93783131033E+01  0.43400730139E+02  0.00000000000E+00 0. -1.
         11    1    3    3    0    0 -0.74274765020E+00 -0.44821410306E+01  0.22582385927E+01  0.50735494570E+01  0.51100000000E-03 0. -1.
        -11    1    3    3    0    0  0.11645811958E+02 -0.29569641930E+02  0.11363762945E+02  0.33750907670E+02  0.51100000000E-03 0.  1.
        -12    1    3    3    0    0  0.63915491057E+01 -0.46337048460E+01 -0.42436884347E+01  0.89628127338E+01  0.00000000000E+00 0.  1.
</event>
<event>
 7    1  0.4723144E-009  0.4778727E+02  0.7816164E-02  0.1312668E+00
        -11   -1    0    0    0    0  0.00000000000E+00  0.00000000000E+00  0.45593999997E+02  0.45594000000E+02  0.51100000000E-03 0.  1.
         11   -1    0    0    0    0 -0.00000000000E+00 -0.00000000000E+00 -0.45593999997E+02  0.45594000000E+02  0.51100000000E-03 0. -1.
    9900012    2    1    2    0    0  0.31533496641E+02 -0.93453955540E-01 -0.29820344151E+02  0.47787273401E+02  0.20000010744E+02 0.  0.
         12    1    1    2    0    0 -0.31533496641E+02  0.93453955540E-01  0.29820344151E+02  0.43400726599E+02  0.00000000000E+00 0. -1.
         11    1    3    3    0    0  0.29968617917E+01 -0.59560339361E+01 -0.52028270585E+01  0.84572413060E+01  0.51100000000E-03 0. -1.
        -11    1    3    3    0    0  0.26266486794E+02  0.61595473162E+01 -0.25253208299E+02  0.36953929173E+02  0.51100000000E-03 0.  1.
        -12    1    3    3    0    0  0.22701480545E+01 -0.29696733565E+00  0.63569120604E+00  0.23761029223E+01  0.00000000000E+00 0.  1.
</event>
<event>
 7    1  0.4723144E-009  0.4778727E+02  0.7816164E-02  0.1312668E+00
        -11   -1    0    0    0    0  0.00000000000E+00  0.00000000000E+00  0.45593999997E+02  0.45594000000E+02  0.51100000000E-03 0.  1.
         11   -1    0    0    0    0 -0.00000000000E+00 -0.00000000000E+00 -0.45593999997E+02  0.45594000000E+02  0.51100000000E-03 0. -1.
    9900012    2    1    2    0    0  0.21176359733E+02  0.37286728290E+02 -0.66996360596E+01  0.47787269114E+02  0.19999991197E+02 0.  0.
         12    1    1    2    0    0 -0.21176359733E+02 -0.37286728290E+02  0.66996360596E+01  0.43400730886E+02  0.00000000000E+00 0. -1.
         11    1    3    3    0    0  0.16047850287E+00 -0.38132303572E+00  0.22889002636E+01  0.23259890982E+01  0.51100000000E-03 0. -1.
        -11    1    3    3    0    0  0.11525309783E+02  0.26830185225E+02 -0.10374015424E+02  0.30988898029E+02  0.51100000000E-03 0.  1.
         12    1    3    3    0    0  0.94905714468E+01  0.10837866101E+02  0.13854791008E+01  0.14472381986E+02  0.00000000000E+00 0. -1.
</event>
<event>
 7    1  0.4723144E-009  0.4778727E+02  0.7816164E-02  0.1312668E+00
        -11   -1    0    0    0    0  0.00000000000E+00  0.00000000000E+00  0.45593999997E+02  0.45594000000E+02  0.51100000000E-03 0.  1.
         11   -1    0    0    0    0 -0.00000000000E+00 -0.00000000000E+00 -0.45593999997E+02  0.45594000000E+02  0.51100000000E-03 0. -1.
    9900012    2    1    2    0    0 -0.15130164355E+02  0.40677862594E+02 -0.11260756801E+00  0.47787273519E+02  0.20000011283E+02 0.  0.
         12    1    1    2    0    0  0.15130164355E+02 -0.40677862594E+02  0.11260756801E+00  0.43400726481E+02  0.00000000000E+00 0. -1.
         11    1    3    3    0    0 -0.69433079520E+01  0.13768271144E+02 -0.32338572208E+01  0.15755400610E+02  0.51100000000E-03 0. -1.
        -11    1    3    3    0    0 -0.59637823678E+01  0.25997634848E+02  0.69026697285E+01  0.27551598274E+02  0.51100000000E-03 0.  1.
        -12    1    3    3    0    0 -0.22230740353E+01  0.91195660166E+00 -0.37814200757E+01  0.44802746343E+01  0.00000000000E+00 0.  1.
</event>
<event>
 7    1  0.4723144E-009  0.4778727E+02  0.7816164E-02  0.1312668E+00
        -11   -1    0    0    0    0  0.00000000000E+00  0.00000000000E+00  0.45593999997E+02  0.45594000000E+02  0.51100000000E-03 0.  1.
         11   -1    0    0    0    0 -0.00000000000E+00 -0.00000000000E+00 -0.45593999997E+02  0.45594000000E+02  0.51100000000E-03 0. -1.
    9900012    2    1    2    0    0 -0.45374815877E+01  0.42799151209E+02 -0.55916833579E+01  0.47787274129E+02  0.20000014065E+02 0.  0.
         12    1    1    2    0    0  0.45374815877E+01 -0.42799151209E+02  0.55916833579E+01  0.43400725871E+02  0.00000000000E+00 0. -1.
         11    1    3    3    0    0 -0.55653175199E+01  0.21053717851E+02  0.32882253939E+01  0.22023719508E+02  0.51100000000E-03 0. -1.
        -11    1    3    3    0    0  0.64710182119E+00  0.65838034807E+01 -0.82624544539E+01  0.10584581376E+02  0.51100000000E-03 0.  1.
        -12    1    3    3    0    0  0.38073411105E+00  0.15161629877E+02 -0.61745429791E+00  0.15178973245E+02  0.00000000000E+00 0.  1.
</event>
<event>
 7    1  0.4723144E-009  0.4778727E+02  0.7816164E-02  0.1312668E+00
        -11   -1    0    0    0    0  0.00000000000E+00  0.00000000000E+00  0.45593999997E+02  0.45594000000E+02  0.51100000000E-03 0.  1.
         11   -1    0    0    0    0 -0.00000000000E+00 -0.00000000000E+00 -0.45593999997E+02  0.45594000000E+02  0.51100000000E-03 0. -1.
    9900012    2    1    2    0    0 -0.41891752136E+02 -0.45814551863E+00  0.11335528581E+02  0.47787274170E+02  0.20000014251E+02 0.  0.
         12    1    1    2    0    0  0.41891752136E+02  0.45814551863E+00 -0.11335528581E+02  0.43400725830E+02  0.00000000000E+00 0. -1.
         11    1    3    3    0    0 -0.28360751299E+02 -0.11269258024E+01  0.41504849211E+01  0.28684990872E+02  0.51100000000E-03 0.  1.
        -11    1    3    3    0    0 -0.25360341636E+01 -0.47438133043E+01  0.29575688889E+01  0.61386030935E+01  0.51100000000E-03 0. -1.
         12    1    3    3    0    0 -0.10994966674E+02  0.54125935881E+01  0.42274747705E+01  0.12963680205E+02  0.00000000000E+00 0. -1.
</event>
<event>
 7    1  0.4723144E-009  0.4778727E+02  0.7816164E-02  0.1312668E+00
        -11   -1    0    0    0    0  0.00000000000E+00  0.00000000000E+00  0.45593999997E+02  0.45594000000E+02  0.51100000000E-03 0.  1.
         11   -1    0    0    0    0 -0.00000000000E+00 -0.00000000000E+00 -0.45593999997E+02  0.45594000000E+02  0.51100000000E-03 0. -1.
    9900012    2    1    2    0    0 -0.25257848006E+02 -0.32853061002E+02  0.12897314004E+02  0.47787271762E+02  0.20000003270E+02 0.  0.
         12    1    1    2    0    0  0.25257848006E+02  0.32853061002E+02 -0.12897314004E+02  0.43400728238E+02  0.00000000000E+00 0. -1.
         11    1    3    3    0    0 -0.21320559335E+01 -0.25968225618E+01 -0.42045667929E+01  0.53821493939E+01  0.51100000000E-03 0. -1.
        -11    1    3    3    0    0 -0.87477455114E+01 -0.15574314486E+02  0.10960381850E+02  0.20957392342E+02  0.51100000000E-03 0.  1.
         12    1    3    3    0    0 -0.14378046562E+02 -0.14681923954E+02  0.61414989469E+01  0.21447730025E+02  0.00000000000E+00 0. -1.
</event>
<event>
 7    1  0.4723144E-009  0.4778727E+02  0.7816164E-02  0.1312668E+00
        -11   -1    0    0    0    0  0.00000000000E+00  0.00000000000E+00  0.45593999997E+02  0.45594000000E+02  0.51100000000E-03 0.  1.
         11   -1    0    0    0    0 -0.00000000000E+00 -0.00000000000E+00 -0.45593999997E+02  0.45594000000E+02  0.51100000000E-03 0. -1.
    9900012    2    1    2    0    0  0.34441941280E+01  0.27091795408E+01  0.43178944841E+02  0.47787269538E+02  0.19999993134E+02 0.  0.
         12    1    1    2    0    0 -0.34441941280E+01 -0.27091795408E+01 -0.43178944841E+02  0.43400730462E+02  0.00000000000E+00 0. -1.
         11    1    3    3    0    0 -0.59415820382E-01 -0.10747649016E+01  0.27908249361E+00  0.11119969122E+01  0.51100000000E-03 0. -1.
        -11    1    3    3    0    0 -0.38198109502E+01  0.31165620581E+01  0.23452336862E+01  0.54593072877E+01  0.51100000000E-03 0.  1.
        -12    1    3    3    0    0  0.73234208986E+01  0.66738238429E+00  0.40554628662E+02  0.41215965339E+02  0.00000000000E+00 0.  1.
</event>
<event>
 7    1  0.4723144E-009  0.4778727E+02  0.7816164E-02  0.1312668E+00
        -11   -1    0    0    0    0  0.00000000000E+00  0.00000000000E+00  0.45593999997E+02  0.45594000000E+02  0.51100000000E-03 0.  1.
         11   -1    0    0    0    0 -0.00000000000E+00 -0.00000000000E+00 -0.45593999997E+02  0.45594000000E+02  0.51100000000E-03 0. -1.
    9900012    2    1    2    0    0 -0.26086748128E+02 -0.26473333967E+02  0.22411320004E+02  0.47787273006E+02  0.20000008946E+02 0.  0.
         12    1    1    2    0    0  0.26086748128E+02  0.26473333967E+02 -0.22411320004E+02  0.43400726994E+02  0.00000000000E+00 0. -1.
         11    1    3    3    0    0 -0.12272262066E+02 -0.66666585411E+01  0.73401502117E+01  0.15777533322E+02  0.51100000000E-03 0. -1.
        -11    1    3    3    0    0 -0.32871702673E+01 -0.10439845564E+02 -0.56656547054E+00  0.10959783778E+02  0.51100000000E-03 0.  1.
        -12    1    3    3    0    0 -0.10527315795E+02 -0.93668298611E+01  0.15637735263E+02  0.21049955906E+02  0.00000000000E+00 0.  1.
</event>
<event>
 7    1  0.4723144E-009  0.4778727E+02  0.7816164E-02  0.1312668E+00
        -11   -1    0    0    0    0  0.00000000000E+00  0.00000000000E+00  0.45593999997E+02  0.45594000000E+02  0.51100000000E-03 0.  1.
         11   -1    0    0    0    0 -0.00000000000E+00 -0.00000000000E+00 -0.45593999997E+02  0.45594000000E+02  0.51100000000E-03 0. -1.
    9900012    2    1    2    0    0 -0.24933500708E+02  0.23145305930E+02  0.26948821547E+02  0.47787266977E+02  0.19999981456E+02 0.  0.
         12    1    1    2    0    0  0.24933500708E+02 -0.23145305930E+02 -0.26948821547E+02  0.43400733023E+02  0.00000000000E+00 0. -1.
         11    1    3    3    0    0 -0.43779038360E+01 -0.35215719702E+01  0.38337368026E+01  0.68018416088E+01  0.51100000000E-03 0. -1.
        -11    1    3    3    0    0 -0.90175336449E+01  0.13542206123E+02  0.12721394826E+02  0.20652872592E+02  0.51100000000E-03 0.  1.
         12    1    3    3    0    0 -0.11538063227E+02  0.13124671777E+02  0.10393689918E+02  0.20332552776E+02  0.00000000000E+00 0. -1.
</event>
<event>
 7    1  0.4723144E-009  0.4778727E+02  0.7816164E-02  0.1312668E+00
        -11   -1    0    0    0    0  0.00000000000E+00  0.00000000000E+00  0.45593999997E+02  0.45594000000E+02  0.51100000000E-03 0. -1.
         11   -1    0    0    0    0 -0.00000000000E+00 -0.00000000000E+00 -0.45593999997E+02  0.45594000000E+02  0.51100000000E-03 0.  1.
    9900012    2    1    2    0    0 -0.93100098935E+01  0.42370093817E+02  0.13122868075E+01  0.47787271539E+02  0.20000002254E+02 0.  0.
         12    1    1    2    0    0  0.93100098935E+01 -0.42370093817E+02 -0.13122868075E+01  0.43400728461E+02  0.00000000000E+00 0. -1.
         11    1    3    3    0    0 -0.61020792939E+00  0.24427687346E+02  0.13489463618E+01  0.24472513548E+02  0.51100000000E-03 0.  1.
        -11    1    3    3    0    0 -0.37681933464E+01 -0.86764077461E+00 -0.12385555261E+00  0.38687752673E+01  0.51100000000E-03 0. -1.
         12    1    3    3    0    0 -0.49316086177E+01  0.18810047246E+02  0.87195998277E-01  0.19445982724E+02  0.00000000000E+00 0. -1.
</event>
<event>
 7    1  0.4723144E-009  0.4778727E+02  0.7816164E-02  0.1312668E+00
        -11   -1    0    0    0    0  0.00000000000E+00  0.00000000000E+00  0.45593999997E+02  0.45594000000E+02  0.51100000000E-03 0.  1.
         11   -1    0    0    0    0 -0.00000000000E+00 -0.00000000000E+00 -0.45593999997E+02  0.45594000000E+02  0.51100000000E-03 0. -1.
    9900012    2    1    2    0    0 -0.23637329387E+02  0.23734155779E+02  0.27596913878E+02  0.47787272510E+02  0.20000006681E+02 0.  0.
         12    1    1    2    0    0  0.23637329387E+02 -0.23734155779E+02 -0.27596913878E+02  0.43400727490E+02  0.00000000000E+00 0. -1.
         11    1    3    3    0    0  0.23408983578E+01  0.17728151040E+01  0.63200316767E+01  0.69688936834E+01  0.51100000000E-03 0. -1.
        -11    1    3    3    0    0 -0.19824404558E+02  0.12608538378E+02  0.16115398679E+02  0.28490144453E+02  0.51100000000E-03 0.  1.
         12    1    3    3    0    0 -0.61538231867E+01  0.93528022970E+01  0.51614835226E+01  0.12328234374E+02  0.00000000000E+00 0. -1.
</event>
<event>
 7    1  0.4723144E-009  0.4778727E+02  0.7816164E-02  0.1312668E+00
        -11   -1    0    0    0    0  0.00000000000E+00  0.00000000000E+00  0.45593999997E+02  0.45594000000E+02  0.51100000000E-03 0. -1.
         11   -1    0    0    0    0 -0.00000000000E+00 -0.00000000000E+00 -0.45593999997E+02  0.45594000000E+02  0.51100000000E-03 0.  1.
    9900012    2    1    2    0    0 -0.99093260186E+01  0.20793175103E+02 -0.36784134450E+02  0.47787269358E+02  0.19999992311E+02 0.  0.
         12    1    1    2    0    0  0.99093260186E+01 -0.20793175103E+02  0.36784134450E+02  0.43400730642E+02  0.00000000000E+00 0. -1.
         11    1    3    3    0    0  0.10992285144E+01 -0.69634553497E+00  0.15687933590E+01  0.20382132605E+01  0.51100000000E-03 0. -1.
        -11    1    3    3    0    0 -0.81001593833E+01  0.10241913319E+02 -0.16951812504E+02  0.21397974622E+02  0.51100000000E-03 0.  1.
         12    1    3    3    0    0 -0.29083951496E+01  0.11247607319E+02 -0.21401115305E+02  0.24351081476E+02  0.00000000000E+00 0. -1.
</event>
<event>
 7    1  0.4723144E-009  0.4778727E+02  0.7816164E-02  0.1312668E+00
        -11   -1    0    0    0    0  0.00000000000E+00  0.00000000000E+00  0.45593999997E+02  0.45594000000E+02  0.51100000000E-03 0.  1.
         11   -1    0    0    0    0 -0.00000000000E+00 -0.00000000000E+00 -0.45593999997E+02  0.45594000000E+02  0.51100000000E-03 0. -1.
    9900012    2    1    2    0    0  0.12539805700E+02 -0.18416739889E+02  0.37245139326E+02  0.47787269147E+02  0.19999991351E+02 0.  0.
         12    1    1    2    0    0 -0.12539805700E+02  0.18416739889E+02 -0.37245139326E+02  0.43400730853E+02  0.00000000000E+00 0. -1.
         11    1    3    3    0    0 -0.22143967163E+01 -0.46911596120E+01  0.18096922345E+02  0.18825757088E+02  0.51100000000E-03 0. -1.
        -11    1    3    3    0    0  0.97990297175E+01 -0.47651118683E+01  0.13213214854E+02  0.17126480128E+02  0.51100000000E-03 0.  1.
        -12    1    3    3    0    0  0.49551726987E+01 -0.89604684084E+01  0.59350021268E+01  0.11835031931E+02  0.00000000000E+00 0.  1.
</event>
<event>
 7    1  0.4723144E-009  0.4778727E+02  0.7816164E-02  0.1312668E+00
        -11   -1    0    0    0    0  0.00000000000E+00  0.00000000000E+00  0.45593999997E+02  0.45594000000E+02  0.51100000000E-03 0.  1.
         11   -1    0    0    0    0 -0.00000000000E+00 -0.00000000000E+00 -0.45593999997E+02  0.45594000000E+02  0.51100000000E-03 0. -1.
    9900012    2    1    2    0    0 -0.36687767869E+02 -0.41882253605E+01  0.22805472547E+02  0.47787272806E+02  0.20000008030E+02 0.  0.
         12    1    1    2    0    0  0.36687767869E+02  0.41882253605E+01 -0.22805472547E+02  0.43400727194E+02  0.00000000000E+00 0. -1.
         11    1    3    3    0    0 -0.15282356334E+01  0.38374773036E+00 -0.11502611510E+01  0.19508632572E+01  0.51100000000E-03 0. -1.
        -11    1    3    3    0    0 -0.19643777430E+02 -0.33411218516E+01  0.36593205111E+01  0.20259114339E+02  0.51100000000E-03 0.  1.
        -12    1    3    3    0    0 -0.15515754806E+02 -0.12308512392E+01  0.20296413187E+02  0.25577295209E+02  0.00000000000E+00 0.  1.
</event>
<event>
 7    1  0.4723144E-009  0.4778727E+02  0.7816164E-02  0.1312668E+00
        -11   -1    0    0    0    0  0.00000000000E+00  0.00000000000E+00  0.45593999997E+02  0.45594000000E+02  0.51100000000E-03 0.  1.
         11   -1    0    0    0    0 -0.00000000000E+00 -0.00000000000E+00 -0.45593999997E+02  0.45594000000E+02  0.51100000000E-03 0. -1.
    9900012    2    1    2    0    0  0.32175140254E+02  0.29076615212E+02 -0.17129183761E+01  0.47787270837E+02  0.19999999052E+02 0.  0.
         12    1    1    2    0    0 -0.32175140254E+02 -0.29076615212E+02  0.17129183761E+01  0.43400729163E+02  0.00000000000E+00 0. -1.
         11    1    3    3    0    0  0.22230898762E+02  0.12872145819E+02 -0.50168628993E+01  0.26173916622E+02  0.51100000000E-03 0. -1.
        -11    1    3    3    0    0  0.55318808401E+01  0.84301528109E+01 -0.31772457495E+01  0.10571852858E+02  0.51100000000E-03 0.  1.
         12    1    3    3    0    0  0.44123606522E+01  0.77743165822E+01  0.64811902727E+01  0.11041501356E+02  0.00000000000E+00 0. -1.
</event>
<event>
 7    1  0.4723144E-009  0.4778728E+02  0.7816164E-02  0.1312668E+00
        -11   -1    0    0    0    0  0.00000000000E+00  0.00000000000E+00  0.45593999997E+02  0.45594000000E+02  0.51100000000E-03 0.  1.
         11   -1    0    0    0    0 -0.00000000000E+00 -0.00000000000E+00 -0.45593999997E+02  0.45594000000E+02  0.51100000000E-03 0. -1.
    9900012    2    1    2    0    0  0.35654818235E+02 -0.70585764174E+01  0.23717781891E+02  0.47787277169E+02  0.20000027925E+02 0.  0.
         12    1    1    2    0    0 -0.35654818235E+02  0.70585764174E+01 -0.23717781891E+02  0.43400722831E+02  0.00000000000E+00 0. -1.
         11    1    3    3    0    0  0.77516997103E-01 -0.17570857167E+01  0.64989839858E+01  0.67327670545E+01  0.51100000000E-03 0. -1.
        -11    1    3    3    0    0  0.25784371278E+02 -0.23969054546E+00  0.14929137868E+02  0.29795476360E+02  0.51100000000E-03 0.  1.
         12    1    3    3    0    0  0.97929299597E+01 -0.50618001552E+01  0.22896600372E+01  0.11259033755E+02  0.00000000000E+00 0. -1.
</event>
<event>
 7    1  0.4723144E-009  0.4778727E+02  0.7816164E-02  0.1312668E+00
        -11   -1    0    0    0    0  0.00000000000E+00  0.00000000000E+00  0.45593999997E+02  0.45594000000E+02  0.51100000000E-03 0.  1.
         11   -1    0    0    0    0 -0.00000000000E+00 -0.00000000000E+00 -0.45593999997E+02  0.45594000000E+02  0.51100000000E-03 0. -1.
    9900012    2    1    2    0    0  0.35918319817E+01 -0.33311240452E+02  0.27587735338E+02  0.47787272603E+02  0.20000007108E+02 0.  0.
         12    1    1    2    0    0 -0.35918319817E+01  0.33311240452E+02 -0.27587735338E+02  0.43400727397E+02  0.00000000000E+00 0. -1.
         11    1    3    3    0    0 -0.56551507820E+01 -0.31107132856E+01  0.35215093680E+01  0.73524346989E+01  0.51100000000E-03 0. -1.
        -11    1    3    3    0    0  0.52955124782E+01 -0.19651388000E+02  0.10831854419E+02  0.23055337194E+02  0.51100000000E-03 0.  1.
         12    1    3    3    0    0  0.39514702855E+01 -0.10549139167E+02  0.13234371551E+02  0.17379500710E+02  0.00000000000E+00 0. -1.
</event>
<event>
 7    1  0.4723144E-009  0.4778727E+02  0.7816164E-02  0.1312668E+00
        -11   -1    0    0    0    0  0.00000000000E+00  0.00000000000E+00  0.45593999997E+02  0.45594000000E+02  0.51100000000E-03 0. -1.
         11   -1    0    0    0    0 -0.00000000000E+00 -0.00000000000E+00 -0.45593999997E+02  0.45594000000E+02  0.51100000000E-03 0.  1.
    9900012    2    1    2    0    0  0.24105147072E+02 -0.72801916945E+01 -0.35349167633E+02  0.47787274675E+02  0.20000016551E+02 0.  0.
         12    1    1    2    0    0 -0.24105147072E+02  0.72801916945E+01  0.35349167633E+02  0.43400725325E+02  0.00000000000E+00 0. -1.
         11    1    3    3    0    0  0.27584799045E+01 -0.18585303528E+01 -0.21062162594E+01  0.39369396297E+01  0.51100000000E-03 0. -1.
        -11    1    3    3    0    0  0.20248308475E+02 -0.20014270027E+01 -0.34492769033E+02  0.40046857829E+02  0.51100000000E-03 0.  1.
        -12    1    3    3    0    0  0.10983586920E+01 -0.34202343391E+01  0.12498176596E+01  0.38034772161E+01  0.00000000000E+00 0.  1.
</event>
<event>
 7    1  0.4723144E-009  0.4778727E+02  0.7816164E-02  0.1312668E+00
        -11   -1    0    0    0    0  0.00000000000E+00  0.00000000000E+00  0.45593999997E+02  0.45594000000E+02  0.51100000000E-03 0.  1.
         11   -1    0    0    0    0 -0.00000000000E+00 -0.00000000000E+00 -0.45593999997E+02  0.45594000000E+02  0.51100000000E-03 0. -1.
    9900012    2    1    2    0    0 -0.24490203392E+02 -0.23557907047E+02  0.26997749362E+02  0.47787268241E+02  0.19999987216E+02 0.  0.
         12    1    1    2    0    0  0.24490203392E+02  0.23557907047E+02 -0.26997749362E+02  0.43400731759E+02  0.00000000000E+00 0. -1.
         11    1    3    3    0    0 -0.24392015017E+01  0.14853139656E+01  0.22300460536E+01  0.36233916714E+01  0.51100000000E-03 0. -1.
        -11    1    3    3    0    0 -0.64853300627E+01 -0.10753404719E+02  0.13623463792E+01  0.12631358082E+02  0.51100000000E-03 0.  1.
        -12    1    3    3    0    0 -0.15565671827E+02 -0.14289816294E+02  0.23405356930E+02  0.31532518487E+02  0.00000000000E+00 0.  1.
</event>
<event>
 7    1  0.4723144E-009  0.4778727E+02  0.7816164E-02  0.1312668E+00
        -11   -1    0    0    0    0  0.00000000000E+00  0.00000000000E+00  0.45593999997E+02  0.45594000000E+02  0.51100000000E-03 0. -1.
         11   -1    0    0    0    0 -0.00000000000E+00 -0.00000000000E+00 -0.45593999997E+02  0.45594000000E+02  0.51100000000E-03 0.  1.
    9900012    2    1    2    0    0 -0.19646160090E+02 -0.15471270832E+02 -0.35472405237E+02  0.47787270043E+02  0.19999995435E+02 0.  0.
         12    1    1    2    0    0  0.19646160090E+02  0.15471270832E+02  0.35472405237E+02  0.43400729957E+02  0.00000000000E+00 0. -1.
         11    1    3    3    0    0 -0.13487283005E+02 -0.71822624971E+00 -0.24563515035E+02  0.28031926851E+02  0.51100000000E-03 0. -1.
        -11    1    3    3    0    0 -0.63334402168E+01 -0.11250768254E+02 -0.79106647177E+01  0.15141693031E+02  0.51100000000E-03 0.  1.
         12    1    3    3    0    0  0.17456313112E+00 -0.35022763278E+01 -0.29982254843E+01  0.46136501621E+01  0.00000000000E+00 0. -1.
</event>
<event>
 7    1  0.4723144E-009  0.4778727E+02  0.7816164E-02  0.1312668E+00
        -11   -1    0    0    0    0  0.00000000000E+00  0.00000000000E+00  0.45593999997E+02  0.45594000000E+02  0.51100000000E-03 0. -1.
         11   -1    0    0    0    0 -0.00000000000E+00 -0.00000000000E+00 -0.45593999997E+02  0.45594000000E+02  0.51100000000E-03 0.  1.
    9900012    2    1    2    0    0  0.79492888078E+01 -0.38215479292E+02  0.18973912283E+02  0.47787269622E+02  0.19999993512E+02 0.  0.
         12    1    1    2    0    0 -0.79492888078E+01  0.38215479292E+02 -0.18973912283E+02  0.43400730378E+02  0.00000000000E+00 0. -1.
         11    1    3    3    0    0 -0.15537408227E+01 -0.18032554957E+01  0.37635926441E+01  0.44531416752E+01  0.51100000000E-03 0. -1.
        -11    1    3    3    0    0  0.47708766317E+01 -0.33720781073E+02  0.16340806629E+02  0.37773989749E+02  0.51100000000E-03 0.  1.
        -12    1    3    3    0    0  0.47321529988E+01 -0.26914427235E+01 -0.11304869907E+01  0.55601381974E+01  0.00000000000E+00 0.  1.
</event>
<event>
 7    1  0.4723144E-009  0.4778727E+02  0.7816164E-02  0.1312668E+00
        -11   -1    0    0    0    0  0.00000000000E+00  0.00000000000E+00  0.45593999997E+02  0.45594000000E+02  0.51100000000E-03 0.  1.
         11   -1    0    0    0    0 -0.00000000000E+00 -0.00000000000E+00 -0.45593999997E+02  0.45594000000E+02  0.51100000000E-03 0. -1.
    9900012    2    1    2    0    0 -0.15091999507E+02 -0.10310826779E+02  0.39364220004E+02  0.47787269424E+02  0.19999992613E+02 0.  0.
         12    1    1    2    0    0  0.15091999507E+02  0.10310826779E+02 -0.39364220004E+02  0.43400730576E+02  0.00000000000E+00 0. -1.
         11    1    3    3    0    0  0.13534195231E+01 -0.33845278815E+01  0.53010613380E+01  0.64333525441E+01  0.51100000000E-03 0. -1.
        -11    1    3    3    0    0 -0.16432309214E+02 -0.19583340421E+01  0.17602769217E+02  0.24160160237E+02  0.51100000000E-03 0.  1.
        -12    1    3    3    0    0 -0.13109816055E-01 -0.49679648557E+01  0.16460389449E+02  0.17193756643E+02  0.00000000000E+00 0.  1.
</event>
<event>
 7    1  0.4723144E-009  0.4778727E+02  0.7816164E-02  0.1312668E+00
        -11   -1    0    0    0    0  0.00000000000E+00  0.00000000000E+00  0.45593999997E+02  0.45594000000E+02  0.51100000000E-03 0.  1.
         11   -1    0    0    0    0 -0.00000000000E+00 -0.00000000000E+00 -0.45593999997E+02  0.45594000000E+02  0.51100000000E-03 0. -1.
    9900012    2    1    2    0    0  0.22387291910E+02  0.54275388972E+01  0.36782795841E+02  0.47787273192E+02  0.20000009793E+02 0.  0.
         12    1    1    2    0    0 -0.22387291910E+02 -0.54275388972E+01 -0.36782795841E+02  0.43400726808E+02  0.00000000000E+00 0. -1.
         11    1    3    3    0    0 -0.85659892052E+00  0.53514964586E+01  0.47583479797E+01  0.72120837360E+01  0.51100000000E-03 0. -1.
        -11    1    3    3    0    0  0.18247476349E+02 -0.47072627511E+00  0.30081498524E+02  0.35186482207E+02  0.51100000000E-03 0.  1.
         12    1    3    3    0    0  0.49964144813E+01  0.54676871369E+00  0.19429493371E+01  0.53887072496E+01  0.00000000000E+00 0. -1.
</event>
<event>
 7    1  0.4723144E-009  0.4778728E+02  0.7816164E-02  0.1312668E+00
        -11   -1    0    0    0    0  0.00000000000E+00  0.00000000000E+00  0.45593999997E+02  0.45594000000E+02  0.51100000000E-03 0.  1.
         11   -1    0    0    0    0 -0.00000000000E+00 -0.00000000000E+00 -0.45593999997E+02  0.45594000000E+02  0.51100000000E-03 0. -1.
    9900012    2    1    2    0    0  0.28027576004E+02 -0.29249294350E+02  0.15574226735E+02  0.47787276791E+02  0.20000026201E+02 0.  0.
         12    1    1    2    0    0 -0.28027576004E+02  0.29249294350E+02 -0.15574226735E+02  0.43400723209E+02  0.00000000000E+00 0. -1.
         11    1    3    3    0    0  0.21233958695E+01  0.73543873584E+00  0.59285735374E+01  0.63401628214E+01  0.51100000000E-03 0. -1.
        -11    1    3    3    0    0  0.19044299145E+02 -0.25474486967E+02  0.96481262197E+01  0.33237345802E+02  0.51100000000E-03 0.  1.
         12    1    3    3    0    0  0.68598809895E+01 -0.45102461190E+01 -0.24730222142E-02  0.82097681673E+01  0.00000000000E+00 0. -1.
</event>
<event>
 7    1  0.4723144E-009  0.4778727E+02  0.7816164E-02  0.1312668E+00
        -11   -1    0    0    0    0  0.00000000000E+00  0.00000000000E+00  0.45593999997E+02  0.45594000000E+02  0.51100000000E-03 0.  1.
         11   -1    0    0    0    0 -0.00000000000E+00 -0.00000000000E+00 -0.45593999997E+02  0.45594000000E+02  0.51100000000E-03 0. -1.
    9900012    2    1    2    0    0  0.29469705745E+02  0.14448203655E+02  0.28397342935E+02  0.47787271535E+02  0.20000002235E+02 0.  0.
         12    1    1    2    0    0 -0.29469705745E+02 -0.14448203655E+02 -0.28397342935E+02  0.43400728465E+02  0.00000000000E+00 0. -1.
         11    1    3    3    0    0  0.23893856798E+01 -0.35238549753E+01  0.30445194519E+01  0.52341013334E+01  0.51100000000E-03 0. -1.
        -11    1    3    3    0    0  0.21975720057E+02  0.17035090869E+02  0.16617439823E+02  0.32392374095E+02  0.51100000000E-03 0.  1.
        -12    1    3    3    0    0  0.51046000078E+01  0.93696776110E+00  0.87353836605E+01  0.10160796107E+02  0.00000000000E+00 0.  1.
</event>
<event>
 7    1  0.4723144E-009  0.4778727E+02  0.7816164E-02  0.1312668E+00
        -11   -1    0    0    0    0  0.00000000000E+00  0.00000000000E+00  0.45593999997E+02  0.45594000000E+02  0.51100000000E-03 0.  1.
         11   -1    0    0    0    0 -0.00000000000E+00 -0.00000000000E+00 -0.45593999997E+02  0.45594000000E+02  0.51100000000E-03 0. -1.
    9900012    2    1    2    0    0 -0.18673178203E+02 -0.87504911904E+01  0.38188538921E+02  0.47787272066E+02  0.20000004656E+02 0.  0.
         12    1    1    2    0    0  0.18673178203E+02  0.87504911904E+01 -0.38188538921E+02  0.43400727934E+02  0.00000000000E+00 0. -1.
         11    1    3    3    0    0 -0.66898991677E+01 -0.29949394173E+01  0.33104877338E+01  0.80426203618E+01  0.51100000000E-03 0. -1.
        -11    1    3    3    0    0 -0.62021458607E+01  0.28432386568E+01  0.22959694265E+02  0.23951997419E+02  0.51100000000E-03 0.  1.
        -12    1    3    3    0    0 -0.57811331746E+01 -0.85987904299E+01  0.11918356922E+02  0.15792654285E+02  0.00000000000E+00 0.  1.
</event>
<event>
 7    1  0.4723144E-009  0.4778726E+02  0.7816164E-02  0.1312668E+00
        -11   -1    0    0    0    0  0.00000000000E+00  0.00000000000E+00  0.45593999997E+02  0.45594000000E+02  0.51100000000E-03 0.  1.
         11   -1    0    0    0    0 -0.00000000000E+00 -0.00000000000E+00 -0.45593999997E+02  0.45594000000E+02  0.51100000000E-03 0. -1.
    9900012    2    1    2    0    0  0.32962498004E+02  0.20735701800E+02  0.19160592535E+02  0.47787263715E+02  0.19999966581E+02 0.  0.
         12    1    1    2    0    0 -0.32962498004E+02 -0.20735701800E+02 -0.19160592535E+02  0.43400736285E+02  0.00000000000E+00 0. -1.
         11    1    3    3    0    0  0.16580782963E+02  0.54176409103E+01  0.10401010397E+01  0.17474410065E+02  0.51100000000E-03 0. -1.
        -11    1    3    3    0    0  0.42775662693E+01  0.10249471773E+02  0.94704999535E+01  0.14595876625E+02  0.51100000000E-03 0.  1.
         12    1    3    3    0    0  0.12104148772E+02  0.50685891166E+01  0.86499915418E+01  0.15716977025E+02  0.00000000000E+00 0. -1.
</event>
<event>
 7    1  0.4723144E-009  0.4778727E+02  0.7816164E-02  0.1312668E+00
        -11   -1    0    0    0    0  0.00000000000E+00  0.00000000000E+00  0.45593999997E+02  0.45594000000E+02  0.51100000000E-03 0. -1.
         11   -1    0    0    0    0 -0.00000000000E+00 -0.00000000000E+00 -0.45593999997E+02  0.45594000000E+02  0.51100000000E-03 0.  1.
    9900012    2    1    2    0    0  0.37149539002E+02  0.22379795893E+02  0.16369422024E+01  0.47787273139E+02  0.20000009549E+02 0.  0.
         12    1    1    2    0    0 -0.37149539002E+02 -0.22379795893E+02 -0.16369422024E+01  0.43400726861E+02  0.00000000000E+00 0. -1.
         11    1    3    3    0    0  0.15678191092E+02  0.29134568966E+01 -0.76860265172E-01  0.15946780702E+02  0.51100000000E-03 0. -1.
        -11    1    3    3    0    0  0.11777871352E+02  0.15766002004E+02 -0.38718044629E+01  0.20056817864E+02  0.51100000000E-03 0.  1.
        -12    1    3    3    0    0  0.96934765587E+01  0.37003369931E+01  0.55856069305E+01  0.11783674573E+02  0.00000000000E+00 0.  1.
</event>
<event>
 7    1  0.4723144E-009  0.4778727E+02  0.7816164E-02  0.1312668E+00
        -11   -1    0    0    0    0  0.00000000000E+00  0.00000000000E+00  0.45593999997E+02  0.45594000000E+02  0.51100000000E-03 0.  1.
         11   -1    0    0    0    0 -0.00000000000E+00 -0.00000000000E+00 -0.45593999997E+02  0.45594000000E+02  0.51100000000E-03 0. -1.
    9900012    2    1    2    0    0  0.13778614256E+01  0.42951963943E+02  0.60707120940E+01  0.47787271273E+02  0.20000001042E+02 0.  0.
         12    1    1    2    0    0 -0.13778614256E+01 -0.42951963943E+02 -0.60707120940E+01  0.43400728727E+02  0.00000000000E+00 0. -1.
         11    1    3    3    0    0 -0.85609747862E+00  0.80184498968E+01 -0.66367832891E+01  0.10443913746E+02  0.51100000000E-03 0. -1.
        -11    1    3    3    0    0  0.16443431629E+01  0.33119603704E+02  0.11560787648E+02  0.35117856217E+02  0.51100000000E-03 0.  1.
         12    1    3    3    0    0  0.58961574137E+00  0.18139103425E+01  0.11467077354E+01  0.22255013106E+01  0.00000000000E+00 0. -1.
</event>
<event>
 7    1  0.4723144E-009  0.4778727E+02  0.7816164E-02  0.1312668E+00
        -11   -1    0    0    0    0  0.00000000000E+00  0.00000000000E+00  0.45593999997E+02  0.45594000000E+02  0.51100000000E-03 0. -1.
         11   -1    0    0    0    0 -0.00000000000E+00 -0.00000000000E+00 -0.45593999997E+02  0.45594000000E+02  0.51100000000E-03 0.  1.
    9900012    2    1    2    0    0 -0.11554585478E+02 -0.24434062053E+02 -0.33957195204E+02  0.47787274890E+02  0.20000017532E+02 0.  0.
         12    1    1    2    0    0  0.11554585478E+02  0.24434062053E+02  0.33957195204E+02  0.43400725110E+02  0.00000000000E+00 0. -1.
         11    1    3    3    0    0 -0.38904779650E+01 -0.16082847378E+02 -0.24482222219E+02  0.29549500903E+02  0.51100000000E-03 0. -1.
        -11    1    3    3    0    0  0.18732157036E+01 -0.48392664517E+01 -0.47295581742E+01  0.70211222498E+01  0.51100000000E-03 0.  1.
         12    1    3    3    0    0 -0.95373232166E+01 -0.35119482237E+01 -0.47454148106E+01  0.11216651737E+02  0.00000000000E+00 0. -1.
</event>
<event>
 7    1  0.4723144E-009  0.4778727E+02  0.7816164E-02  0.1312668E+00
        -11   -1    0    0    0    0  0.00000000000E+00  0.00000000000E+00  0.45593999997E+02  0.45594000000E+02  0.51100000000E-03 0. -1.
         11   -1    0    0    0    0 -0.00000000000E+00 -0.00000000000E+00 -0.45593999997E+02  0.45594000000E+02  0.51100000000E-03 0.  1.
    9900012    2    1    2    0    0  0.30174130213E+02 -0.74368020565E+01 -0.30295860726E+02  0.47787270327E+02  0.19999996731E+02 0.  0.
         12    1    1    2    0    0 -0.30174130213E+02  0.74368020565E+01  0.30295860726E+02  0.43400729673E+02  0.00000000000E+00 0. -1.
         11    1    3    3    0    0  0.17504210555E+02 -0.93945523239E+01 -0.22327737897E+02  0.29886165368E+02  0.51100000000E-03 0.  1.
        -11    1    3    3    0    0  0.12620832778E+02 -0.60780383843E+00 -0.85672562402E+01  0.15266064498E+02  0.51100000000E-03 0. -1.
         12    1    3    3    0    0  0.49086880786E-01  0.25655541059E+01  0.59913341082E+00  0.26350404619E+01  0.00000000000E+00 0. -1.
</event>
<event>
 7    1  0.4723144E-009  0.4778727E+02  0.7816164E-02  0.1312668E+00
        -11   -1    0    0    0    0  0.00000000000E+00  0.00000000000E+00  0.45593999997E+02  0.45594000000E+02  0.51100000000E-03 0. -1.
         11   -1    0    0    0    0 -0.00000000000E+00 -0.00000000000E+00 -0.45593999997E+02  0.45594000000E+02  0.51100000000E-03 0.  1.
    9900012    2    1    2    0    0 -0.30765014291E+01  0.42454142851E+02 -0.84737212880E+01  0.47787273523E+02  0.20000011302E+02 0.  0.
         12    1    1    2    0    0  0.30765014291E+01 -0.42454142851E+02  0.84737212880E+01  0.43400726477E+02  0.00000000000E+00 0. -1.
         11    1    3    3    0    0 -0.15726702655E+01 -0.48258892681E+00 -0.16650037528E+01  0.23406028271E+01  0.51100000000E-03 0. -1.
        -11    1    3    3    0    0 -0.30264091557E+01  0.42557830445E+02 -0.80844220165E+01  0.43424485767E+02  0.51100000000E-03 0.  1.
        -12    1    3    3    0    0  0.15225779921E+01  0.37890133264E+00  0.12757044813E+01  0.20221849286E+01  0.00000000000E+00 0.  1.
</event>
<event>
 7    1  0.4723144E-009  0.4778727E+02  0.7816164E-02  0.1312668E+00
        -11   -1    0    0    0    0  0.00000000000E+00  0.00000000000E+00  0.45593999997E+02  0.45594000000E+02  0.51100000000E-03 0. -1.
         11   -1    0    0    0    0 -0.00000000000E+00 -0.00000000000E+00 -0.45593999997E+02  0.45594000000E+02  0.51100000000E-03 0.  1.
    9900012    2    1    2    0    0 -0.27522054732E+02  0.27811550381E+02 -0.18779704857E+02  0.47787272520E+02  0.20000006729E+02 0.  0.
         12    1    1    2    0    0  0.27522054732E+02 -0.27811550381E+02  0.18779704857E+02  0.43400727480E+02  0.00000000000E+00 0. -1.
         11    1    3    3    0    0 -0.84675864850E+01  0.15101960365E+01 -0.10019734476E+02  0.13205142641E+02  0.51100000000E-03 0. -1.
        -11    1    3    3    0    0 -0.10041293157E+02  0.19856092061E+02 -0.72335673267E+01  0.23396932635E+02  0.51100000000E-03 0.  1.
        -12    1    3    3    0    0 -0.90131750899E+01  0.64452622834E+01 -0.15264030541E+01  0.11185197244E+02  0.00000000000E+00 0.  1.
</event>
<event>
 7    1  0.4723144E-009  0.4778727E+02  0.7816164E-02  0.1312668E+00
        -11   -1    0    0    0    0  0.00000000000E+00  0.00000000000E+00  0.45593999997E+02  0.45594000000E+02  0.51100000000E-03 0. -1.
         11   -1    0    0    0    0 -0.00000000000E+00 -0.00000000000E+00 -0.45593999997E+02  0.45594000000E+02  0.51100000000E-03 0.  1.
    9900012    2    1    2    0    0 -0.20673812310E+02  0.51390539997E+01 -0.37812782813E+02  0.47787274943E+02  0.20000017776E+02 0.  0.
         12    1    1    2    0    0  0.20673812310E+02 -0.51390539997E+01  0.37812782813E+02  0.43400725057E+02  0.00000000000E+00 0. -1.
         11    1    3    3    0    0 -0.15758437247E+01  0.28552345158E+01 -0.22291469240E+01  0.39502840220E+01  0.51100000000E-03 0. -1.
        -11    1    3    3    0    0 -0.12955792665E+02  0.94662613618E+01 -0.24283183946E+02  0.29105595520E+02  0.51100000000E-03 0.  1.
        -12    1    3    3    0    0 -0.61421759195E+01 -0.71824418779E+01 -0.11300451943E+02  0.14731395401E+02  0.00000000000E+00 0.  1.
</event>
<event>
 7    1  0.5222584E-009  0.4778727E+02  0.7816164E-02  0.1312668E+00
        -11   -1    0    0    0    0  0.00000000000E+00  0.00000000000E+00  0.45593999997E+02  0.45594000000E+02  0.51100000000E-03 0. -1.
         11   -1    0    0    0    0 -0.00000000000E+00 -0.00000000000E+00 -0.45593999997E+02  0.45594000000E+02  0.51100000000E-03 0.  1.
    9900012    2    1    2    0    0 -0.11172680282E+02 -0.37640695315E+02 -0.18492502586E+02  0.47787269818E+02  0.19999994407E+02 0.  0.
         12    1    1    2    0    0  0.11172680282E+02  0.37640695315E+02  0.18492502586E+02  0.43400730182E+02  0.00000000000E+00 0. -1.
         11    1    3    3    0    0 -0.26975482392E+00 -0.11825276583E+02  0.22476087353E+01  0.12040003290E+02  0.51100000000E-03 0. -1.
        -11    1    3    3    0    0 -0.61887421767E+01 -0.71812805819E+01 -0.97812545389E+01  0.13621463253E+02  0.51100000000E-03 0.  1.
        -12    1    3    3    0    0 -0.47141832814E+01 -0.18634138150E+02 -0.10958856783E+02  0.22125803275E+02  0.00000000000E+00 0.  1.
</event>
<event>
 7    1  0.4723144E-009  0.4778727E+02  0.7816164E-02  0.1312668E+00
        -11   -1    0    0    0    0  0.00000000000E+00  0.00000000000E+00  0.45593999997E+02  0.45594000000E+02  0.51100000000E-03 0.  1.
         11   -1    0    0    0    0 -0.00000000000E+00 -0.00000000000E+00 -0.45593999997E+02  0.45594000000E+02  0.51100000000E-03 0. -1.
    9900012    2    1    2    0    0  0.15373578269E+02 -0.28248024583E+02  0.29143191770E+02  0.47787269266E+02  0.19999991893E+02 0.  0.
         12    1    1    2    0    0 -0.15373578269E+02  0.28248024583E+02 -0.29143191770E+02  0.43400730734E+02  0.00000000000E+00 0. -1.
         11    1    3    3    0    0 -0.22593504273E+01 -0.13708561961E+02  0.16249815264E+02  0.21379565752E+02  0.51100000000E-03 0. -1.
        -11    1    3    3    0    0  0.11266470454E+02 -0.79807047968E+01  0.65492037675E+01  0.15281265517E+02  0.51100000000E-03 0.  1.
        -12    1    3    3    0    0  0.63664582427E+01 -0.65587578253E+01  0.63441727389E+01  0.11126437997E+02  0.00000000000E+00 0.  1.
</event>
<event>
 7    1  0.4723144E-009  0.4778726E+02  0.7816164E-02  0.1312668E+00
        -11   -1    0    0    0    0  0.00000000000E+00  0.00000000000E+00  0.45593999997E+02  0.45594000000E+02  0.51100000000E-03 0.  1.
         11   -1    0    0    0    0 -0.00000000000E+00 -0.00000000000E+00 -0.45593999997E+02  0.45594000000E+02  0.51100000000E-03 0. -1.
    9900012    2    1    2    0    0  0.35334303915E+02 -0.13208483479E+02  0.21462685540E+02  0.47787263376E+02  0.19999965035E+02 0.  0.
         12    1    1    2    0    0 -0.35334303915E+02  0.13208483479E+02 -0.21462685540E+02  0.43400736624E+02  0.00000000000E+00 0. -1.
         11    1    3    3    0    0  0.11243707623E+02  0.26386964373E+01  0.11098636716E+02  0.16017597111E+02  0.51100000000E-03 0. -1.
        -11    1    3    3    0    0  0.90506972575E+01 -0.92528090197E+01  0.12901252811E+01  0.13007460133E+02  0.51100000000E-03 0.  1.
        -12    1    3    3    0    0  0.15039899035E+02 -0.65943708966E+01  0.90739235430E+01  0.18762206132E+02  0.00000000000E+00 0.  1.
</event>
<event>
 7    1  0.4723144E-009  0.4778727E+02  0.7816164E-02  0.1312668E+00
        -11   -1    0    0    0    0  0.00000000000E+00  0.00000000000E+00  0.45593999997E+02  0.45594000000E+02  0.51100000000E-03 0.  1.
         11   -1    0    0    0    0 -0.00000000000E+00 -0.00000000000E+00 -0.45593999997E+02  0.45594000000E+02  0.51100000000E-03 0. -1.
    9900012    2    1    2    0    0  0.40640344110E+02  0.13850023869E+02 -0.63373904482E+01  0.47787271340E+02  0.20000001347E+02 0.  0.
         12    1    1    2    0    0 -0.40640344110E+02 -0.13850023869E+02  0.63373904482E+01  0.43400728660E+02  0.00000000000E+00 0. -1.
         11    1    3    3    0    0  0.13970407754E+02  0.75622065542E+01 -0.10699348757E+02  0.19152945592E+02  0.51100000000E-03 0. -1.
        -11    1    3    3    0    0  0.16746344608E+02  0.13325574442E+01  0.49895508211E+01  0.17524593711E+02  0.51100000000E-03 0.  1.
        -12    1    3    3    0    0  0.99235917479E+01  0.49552598705E+01 -0.62759251260E+00  0.11109732037E+02  0.00000000000E+00 0.  1.
</event>
<event>
 7    1  0.4723144E-009  0.4778727E+02  0.7816164E-02  0.1312668E+00
        -11   -1    0    0    0    0  0.00000000000E+00  0.00000000000E+00  0.45593999997E+02  0.45594000000E+02  0.51100000000E-03 0. -1.
         11   -1    0    0    0    0 -0.00000000000E+00 -0.00000000000E+00 -0.45593999997E+02  0.45594000000E+02  0.51100000000E-03 0.  1.
    9900012    2    1    2    0    0 -0.11951132918E+00 -0.40163520824E+02 -0.16446906987E+02  0.47787269161E+02  0.19999991412E+02 0.  0.
         12    1    1    2    0    0  0.11951132918E+00  0.40163520824E+02  0.16446906987E+02  0.43400730839E+02  0.00000000000E+00 0. -1.
         11    1    3    3    0    0  0.45830139925E+01 -0.25171010759E+02 -0.44866032489E+01  0.25975246079E+02  0.51100000000E-03 0. -1.
        -11    1    3    3    0    0 -0.27471873768E+01 -0.13279454856E+02 -0.13206743785E+02  0.18929052839E+02  0.51100000000E-03 0.  1.
         12    1    3    3    0    0 -0.19553379448E+01 -0.17130552090E+01  0.12464400468E+01  0.28829702423E+01  0.00000000000E+00 0. -1.
</event>
<event>
 7    1  0.4723144E-009  0.4778727E+02  0.7816164E-02  0.1312668E+00
        -11   -1    0    0    0    0  0.00000000000E+00  0.00000000000E+00  0.45593999997E+02  0.45594000000E+02  0.51100000000E-03 0. -1.
         11   -1    0    0    0    0 -0.00000000000E+00 -0.00000000000E+00 -0.45593999997E+02  0.45594000000E+02  0.51100000000E-03 0.  1.
    9900012    2    1    2    0    0 -0.34411262657E+02  0.57127970385E+01 -0.25823480047E+02  0.47787272248E+02  0.20000005489E+02 0.  0.
         12    1    1    2    0    0  0.34411262657E+02 -0.57127970385E+01  0.25823480047E+02  0.43400727752E+02  0.00000000000E+00 0. -1.
         11    1    3    3    0    0 -0.90209028823E+00  0.62142126328E+01 -0.36975982502E+01  0.72871420059E+01  0.51100000000E-03 0. -1.
        -11    1    3    3    0    0 -0.17958142280E+02 -0.25518848279E+01 -0.10327432243E+02  0.20872538114E+02  0.51100000000E-03 0.  1.
        -12    1    3    3    0    0 -0.15551030088E+02  0.20504692336E+01 -0.11798449554E+02  0.19627592128E+02  0.00000000000E+00 0.  1.
</event>
<event>
 7    1  0.4723144E-009  0.4778727E+02  0.7816164E-02  0.1312668E+00
        -11   -1    0    0    0    0  0.00000000000E+00  0.00000000000E+00  0.45593999997E+02  0.45594000000E+02  0.51100000000E-03 0.  1.
         11   -1    0    0    0    0 -0.00000000000E+00 -0.00000000000E+00 -0.45593999997E+02  0.45594000000E+02  0.51100000000E-03 0. -1.
    9900012    2    1    2    0    0  0.11480364159E+02 -0.35397761323E+02 -0.22334346381E+02  0.47787270787E+02  0.19999998827E+02 0.  0.
         12    1    1    2    0    0 -0.11480364159E+02  0.35397761323E+02  0.22334346381E+02  0.43400729213E+02  0.00000000000E+00 0. -1.
         11    1    3    3    0    0  0.62173937687E+01 -0.12291312415E+01 -0.44273834416E+01  0.77310072619E+01  0.51100000000E-03 0. -1.
        -11    1    3    3    0    0  0.71664935545E+01 -0.22308947535E+02 -0.14560841412E+02  0.27587422367E+02  0.51100000000E-03 0.  1.
         12    1    3    3    0    0 -0.19035231637E+01 -0.11859682547E+02 -0.33461215276E+01  0.12468841158E+02  0.00000000000E+00 0. -1.
</event>
<event>
 7    1  0.4723144E-009  0.4778727E+02  0.7816164E-02  0.1312668E+00
        -11   -1    0    0    0    0  0.00000000000E+00  0.00000000000E+00  0.45593999997E+02  0.45594000000E+02  0.51100000000E-03 0.  1.
         11   -1    0    0    0    0 -0.00000000000E+00 -0.00000000000E+00 -0.45593999997E+02  0.45594000000E+02  0.51100000000E-03 0. -1.
    9900012    2    1    2    0    0 -0.19051969499E+02 -0.25490332903E+02  0.29510820589E+02  0.47787272527E+02  0.20000006761E+02 0.  0.
         12    1    1    2    0    0  0.19051969499E+02  0.25490332903E+02 -0.29510820589E+02  0.43400727473E+02  0.00000000000E+00 0. -1.
         11    1    3    3    0    0 -0.81652170076E+01 -0.94561806656E+01  0.20221462944E+02  0.23769679961E+02  0.51100000000E-03 0. -1.
        -11    1    3    3    0    0 -0.86377141849E+01 -0.16311038981E+02  0.10713683137E+02  0.21341113036E+02  0.51100000000E-03 0.  1.
         12    1    3    3    0    0 -0.22490383064E+01  0.27688674389E+00 -0.14243254915E+01  0.26764795307E+01  0.00000000000E+00 0. -1.
</event>
<event>
 7    1  0.4723144E-009  0.4778728E+02  0.7816164E-02  0.1312668E+00
        -11   -1    0    0    0    0  0.00000000000E+00  0.00000000000E+00  0.45593999997E+02  0.45594000000E+02  0.51100000000E-03 0.  1.
         11   -1    0    0    0    0 -0.00000000000E+00 -0.00000000000E+00 -0.45593999997E+02  0.45594000000E+02  0.51100000000E-03 0. -1.
    9900012    2    1    2    0    0 -0.32835645504E+02 -0.25647455902E+02  0.12151169476E+02  0.47787279620E+02  0.20000039097E+02 0.  0.
         12    1    1    2    0    0  0.32835645504E+02  0.25647455902E+02 -0.12151169476E+02  0.43400720380E+02  0.00000000000E+00 0. -1.
         11    1    3    3    0    0 -0.41654161941E+01 -0.64656565807E+01 -0.91345507070E+00  0.77453087425E+01  0.51100000000E-03 0. -1.
        -11    1    3    3    0    0 -0.13889254500E+02 -0.17543484451E+02  0.11296203908E+02  0.25065702867E+02  0.51100000000E-03 0.  1.
        -12    1    3    3    0    0 -0.14780974810E+02 -0.16383148707E+01  0.17684206384E+01  0.14976268010E+02  0.00000000000E+00 0.  1.
</event>
<event>
 7    1  0.4723144E-009  0.4778726E+02  0.7816164E-02  0.1312668E+00
        -11   -1    0    0    0    0  0.00000000000E+00  0.00000000000E+00  0.45593999997E+02  0.45594000000E+02  0.51100000000E-03 0.  1.
         11   -1    0    0    0    0 -0.00000000000E+00 -0.00000000000E+00 -0.45593999997E+02  0.45594000000E+02  0.51100000000E-03 0. -1.
    9900012    2    1    2    0    0  0.14208105145E+02 -0.17984785506E+02  0.36855138062E+02  0.47787263104E+02  0.19999963797E+02 0.  0.
         12    1    1    2    0    0 -0.14208105145E+02  0.17984785506E+02 -0.36855138062E+02  0.43400736896E+02  0.00000000000E+00 0. -1.
         11    1    3    3    0    0 -0.12137571414E+01  0.26541231775E+00 -0.59807607632E+00  0.13788927989E+01  0.51100000000E-03 0. -1.
        -11    1    3    3    0    0  0.15533012920E+02 -0.88285514425E+01  0.26495552723E+02  0.31956722694E+02  0.51100000000E-03 0.  1.
        -12    1    3    3    0    0 -0.11115063369E+00 -0.94216463813E+01  0.10957661415E+02  0.14451647611E+02  0.00000000000E+00 0.  1.
</event>
<event>
 7    1  0.4723144E-009  0.4778727E+02  0.7816164E-02  0.1312668E+00
        -11   -1    0    0    0    0  0.00000000000E+00  0.00000000000E+00  0.45593999997E+02  0.45594000000E+02  0.51100000000E-03 0.  1.
         11   -1    0    0    0    0 -0.00000000000E+00 -0.00000000000E+00 -0.45593999997E+02  0.45594000000E+02  0.51100000000E-03 0. -1.
    9900012    2    1    2    0    0 -0.27407577993E+01  0.42814613129E+02  0.65590228471E+01  0.47787266925E+02  0.19999981219E+02 0.  0.
         12    1    1    2    0    0  0.27407577993E+01 -0.42814613129E+02 -0.65590228471E+01  0.43400733075E+02  0.00000000000E+00 0. -1.
         11    1    3    3    0    0  0.62935523607E+01  0.14509269302E+02  0.41958183391E+01  0.16362536136E+02  0.51100000000E-03 0.  1.
        -11    1    3    3    0    0  0.70489222864E+00  0.50396164931E+01  0.35017251399E+01  0.61771098961E+01  0.51100000000E-03 0. -1.
         12    1    3    3    0    0 -0.97392023886E+01  0.23265727334E+02 -0.11385206318E+01  0.25247620893E+02  0.00000000000E+00 0. -1.
</event>
<event>
 7    1  0.4723144E-009  0.4778727E+02  0.7816164E-02  0.1312668E+00
        -11   -1    0    0    0    0  0.00000000000E+00  0.00000000000E+00  0.45593999997E+02  0.45594000000E+02  0.51100000000E-03 0. -1.
         11   -1    0    0    0    0 -0.00000000000E+00 -0.00000000000E+00 -0.45593999997E+02  0.45594000000E+02  0.51100000000E-03 0.  1.
    9900012    2    1    2    0    0 -0.41619280971E+02 -0.10717831060E+02 -0.60486977116E+01  0.47787271951E+02  0.20000004132E+02 0.  0.
         12    1    1    2    0    0  0.41619280971E+02  0.10717831060E+02  0.60486977116E+01  0.43400728049E+02  0.00000000000E+00 0. -1.
         11    1    3    3    0    0 -0.38492818973E+01 -0.78859202795E+01 -0.35665997618E+01  0.94723462722E+01  0.51100000000E-03 0. -1.
        -11    1    3    3    0    0 -0.19536257973E+02 -0.24430092900E+01 -0.37133072647E+01  0.20035526474E+02  0.51100000000E-03 0.  1.
         12    1    3    3    0    0 -0.18233741101E+02 -0.38890149053E+00  0.12312093149E+01  0.18279399205E+02  0.00000000000E+00 0. -1.
</event>
<event>
 7    1  0.4723144E-009  0.4778727E+02  0.7816164E-02  0.1312668E+00
        -11   -1    0    0    0    0  0.00000000000E+00  0.00000000000E+00  0.45593999997E+02  0.45594000000E+02  0.51100000000E-03 0.  1.
         11   -1    0    0    0    0 -0.00000000000E+00 -0.00000000000E+00 -0.45593999997E+02  0.45594000000E+02  0.51100000000E-03 0. -1.
    9900012    2    1    2    0    0  0.28005988006E+02  0.30232035853E+02  0.13612929681E+02  0.47787271774E+02  0.20000003329E+02 0.  0.
         12    1    1    2    0    0 -0.28005988006E+02 -0.30232035853E+02 -0.13612929681E+02  0.43400728226E+02  0.00000000000E+00 0. -1.
         11    1    3    3    0    0  0.78375046935E+01  0.15078612190E+01 -0.10967248801E+01  0.80562355353E+01  0.51100000000E-03 0. -1.
        -11    1    3    3    0    0  0.13802867744E+02  0.25846371555E+02  0.88370878328E+01  0.30604708824E+02  0.51100000000E-03 0.  1.
        -12    1    3    3    0    0  0.63656155682E+01  0.28778030785E+01  0.58725667281E+01  0.91263274156E+01  0.00000000000E+00 0.  1.
</event>
<event>
 7    1  0.4723144E-009  0.4778727E+02  0.7816164E-02  0.1312668E+00
        -11   -1    0    0    0    0  0.00000000000E+00  0.00000000000E+00  0.45593999997E+02  0.45594000000E+02  0.51100000000E-03 0.  1.
         11   -1    0    0    0    0 -0.00000000000E+00 -0.00000000000E+00 -0.45593999997E+02  0.45594000000E+02  0.51100000000E-03 0. -1.
    9900012    2    1    2    0    0  0.23853647123E+02 -0.51611786065E+01  0.35888562222E+02  0.47787272541E+02  0.20000006821E+02 0.  0.
         12    1    1    2    0    0 -0.23853647123E+02  0.51611786065E+01 -0.35888562222E+02  0.43400727459E+02  0.00000000000E+00 0. -1.
         11    1    3    3    0    0  0.26280860988E+01  0.43145496467E+01  0.14209479974E+01  0.52479775789E+01  0.51100000000E-03 0. -1.
        -11    1    3    3    0    0  0.16237666210E+02 -0.11114390610E+02  0.26891965775E+02  0.33322204400E+02  0.51100000000E-03 0.  1.
        -12    1    3    3    0    0  0.49878948146E+01  0.16386623564E+01  0.75756484493E+01  0.92170905619E+01  0.00000000000E+00 0.  1.
</event>
<event>
 7    1  0.4723144E-009  0.4778727E+02  0.7816164E-02  0.1312668E+00
        -11   -1    0    0    0    0  0.00000000000E+00  0.00000000000E+00  0.45593999997E+02  0.45594000000E+02  0.51100000000E-03 0.  1.
         11   -1    0    0    0    0 -0.00000000000E+00 -0.00000000000E+00 -0.45593999997E+02  0.45594000000E+02  0.51100000000E-03 0. -1.
    9900012    2    1    2    0    0  0.17450645155E+02 -0.17890693403E+02  0.35482694328E+02  0.47787268168E+02  0.19999986887E+02 0.  0.
         12    1    1    2    0    0 -0.17450645155E+02  0.17890693403E+02 -0.35482694328E+02  0.43400731832E+02  0.00000000000E+00 0. -1.
         11    1    3    3    0    0  0.46245886413E+00  0.44357704851E+00  0.27074229466E+00  0.69565109805E+00  0.51100000000E-03 0. -1.
        -11    1    3    3    0    0 -0.21672374001E+01 -0.10153613591E+02  0.10391302213E+02  0.14689177951E+02  0.51100000000E-03 0.  1.
        -12    1    3    3    0    0  0.19155423691E+02 -0.81806568600E+01  0.24820649820E+02  0.32402439120E+02  0.00000000000E+00 0.  1.
</event>
<event>
 7    1  0.4723144E-009  0.4778728E+02  0.7816164E-02  0.1312668E+00
        -11   -1    0    0    0    0  0.00000000000E+00  0.00000000000E+00  0.45593999997E+02  0.45594000000E+02  0.51100000000E-03 0. -1.
         11   -1    0    0    0    0 -0.00000000000E+00 -0.00000000000E+00 -0.45593999997E+02  0.45594000000E+02  0.51100000000E-03 0.  1.
    9900012    2    1    2    0    0  0.57008359145E+01  0.36987370658E+02 -0.21978571475E+02  0.47787277398E+02  0.20000028969E+02 0.  0.
         12    1    1    2    0    0 -0.57008359145E+01 -0.36987370658E+02  0.21978571475E+02  0.43400722602E+02  0.00000000000E+00 0. -1.
         11    1    3    3    0    0 -0.19286368924E+01  0.78584700400E+01 -0.21940495763E+01  0.83838562391E+01  0.51100000000E-03 0. -1.
        -11    1    3    3    0    0 -0.26414655690E+00  0.22921381139E+02 -0.18130093411E+02  0.29226011943E+02  0.51100000000E-03 0.  1.
        -12    1    3    3    0    0  0.78936193638E+01  0.62075194785E+01 -0.16544284880E+01  0.10177409216E+02  0.00000000000E+00 0.  1.
</event>
<event>
 7    1  0.4723144E-009  0.4778728E+02  0.7816164E-02  0.1312668E+00
        -11   -1    0    0    0    0  0.00000000000E+00  0.00000000000E+00  0.45593999997E+02  0.45594000000E+02  0.51100000000E-03 0.  1.
         11   -1    0    0    0    0 -0.00000000000E+00 -0.00000000000E+00 -0.45593999997E+02  0.45594000000E+02  0.51100000000E-03 0. -1.
    9900012    2    1    2    0    0 -0.26787751487E+02  0.29106405166E+02  0.17856551563E+02  0.47787275523E+02  0.20000020417E+02 0.  0.
         12    1    1    2    0    0  0.26787751487E+02 -0.29106405166E+02 -0.17856551563E+02  0.43400724477E+02  0.00000000000E+00 0. -1.
         11    1    3    3    0    0 -0.24505219468E+02  0.17754685165E+02  0.62774665669E+01  0.30905358973E+02  0.51100000000E-03 0. -1.
        -11    1    3    3    0    0 -0.46782785574E+00  0.99211958722E+01  0.88210765531E+01  0.13283839138E+02  0.51100000000E-03 0.  1.
         12    1    3    3    0    0 -0.18147041636E+01  0.14305241289E+01  0.27580084432E+01  0.35980774112E+01  0.00000000000E+00 0. -1.
</event>
<event>
 7    1  0.4723144E-009  0.4778727E+02  0.7816164E-02  0.1312668E+00
        -11   -1    0    0    0    0  0.00000000000E+00  0.00000000000E+00  0.45593999997E+02  0.45594000000E+02  0.51100000000E-03 0.  1.
         11   -1    0    0    0    0 -0.00000000000E+00 -0.00000000000E+00 -0.45593999997E+02  0.45594000000E+02  0.51100000000E-03 0. -1.
    9900012    2    1    2    0    0 -0.38973229681E+02 -0.21931261102E+01  0.18971063758E+02  0.47787266204E+02  0.19999977932E+02 0.  0.
         12    1    1    2    0    0  0.38973229681E+02  0.21931261102E+01 -0.18971063758E+02  0.43400733796E+02  0.00000000000E+00 0. -1.
         11    1    3    3    0    0 -0.28251383722E+01 -0.47337012379E+01  0.12602078591E+01  0.56548614785E+01  0.51100000000E-03 0. -1.
        -11    1    3    3    0    0 -0.23377648229E+02  0.72057126610E+01  0.94573368834E+01  0.26227427493E+02  0.51100000000E-03 0.  1.
         12    1    3    3    0    0 -0.12770443079E+02 -0.46651375333E+01  0.82535190159E+01  0.15904977233E+02  0.00000000000E+00 0. -1.
</event>
<event>
 7    1  0.4723144E-009  0.4778728E+02  0.7816164E-02  0.1312668E+00
        -11   -1    0    0    0    0  0.00000000000E+00  0.00000000000E+00  0.45593999997E+02  0.45594000000E+02  0.51100000000E-03 0.  1.
         11   -1    0    0    0    0 -0.00000000000E+00 -0.00000000000E+00 -0.45593999997E+02  0.45594000000E+02  0.51100000000E-03 0. -1.
    9900012    2    1    2    0    0 -0.37292532178E+02 -0.16267526479E+01  0.22141440053E+02  0.47787278255E+02  0.20000032874E+02 0.  0.
         12    1    1    2    0    0  0.37292532178E+02  0.16267526479E+01 -0.22141440053E+02  0.43400721745E+02  0.00000000000E+00 0. -1.
         11    1    3    3    0    0 -0.48687794569E+01 -0.67936628639E+01  0.98121423305E+00  0.84155600016E+01  0.51100000000E-03 0. -1.
        -11    1    3    3    0    0 -0.27027045047E+02  0.45403941587E+01  0.19682681449E+02  0.33741432873E+02  0.51100000000E-03 0.  1.
         12    1    3    3    0    0 -0.53967076741E+01  0.62651605732E+00  0.14775443714E+01  0.56302853799E+01  0.00000000000E+00 0. -1.
</event>
<event>
 7    1  0.4723144E-009  0.4778727E+02  0.7816164E-02  0.1312668E+00
        -11   -1    0    0    0    0  0.00000000000E+00  0.00000000000E+00  0.45593999997E+02  0.45594000000E+02  0.51100000000E-03 0.  1.
         11   -1    0    0    0    0 -0.00000000000E+00 -0.00000000000E+00 -0.45593999997E+02  0.45594000000E+02  0.51100000000E-03 0. -1.
    9900012    2    1    2    0    0  0.18250519171E+02 -0.39206809714E+02 -0.36562310316E+01  0.47787269553E+02  0.19999993200E+02 0.  0.
         12    1    1    2    0    0 -0.18250519171E+02  0.39206809714E+02  0.36562310316E+01  0.43400730447E+02  0.00000000000E+00 0. -1.
         11    1    3    3    0    0  0.14819691236E+02 -0.16649886604E+02 -0.76567189517E+01  0.23568354156E+02  0.51100000000E-03 0. -1.
        -11    1    3    3    0    0  0.42627834407E+01 -0.22250711835E+02  0.29535819388E+01  0.22847081791E+02  0.51100000000E-03 0.  1.
         12    1    3    3    0    0 -0.83195550603E+00 -0.30621127536E+00  0.10469059813E+01  0.13718336061E+01  0.00000000000E+00 0. -1.
</event>
<event>
 7    1  0.4723144E-009  0.4778727E+02  0.7816164E-02  0.1312668E+00
        -11   -1    0    0    0    0  0.00000000000E+00  0.00000000000E+00  0.45593999997E+02  0.45594000000E+02  0.51100000000E-03 0.  1.
         11   -1    0    0    0    0 -0.00000000000E+00 -0.00000000000E+00 -0.45593999997E+02  0.45594000000E+02  0.51100000000E-03 0. -1.
    9900012    2    1    2    0    0  0.30416018849E+02  0.30728218146E+02  0.37769740553E+01  0.47787272747E+02  0.20000007764E+02 0.  0.
         12    1    1    2    0    0 -0.30416018849E+02 -0.30728218146E+02 -0.37769740553E+01  0.43400727253E+02  0.00000000000E+00 0. -1.
         11    1    3    3    0    0  0.65130124073E+01  0.13760310576E+02  0.72789349822E+01  0.16874488807E+02  0.51100000000E-03 0. -1.
        -11    1    3    3    0    0  0.22272746844E+02  0.17472569646E+02 -0.15944338332E+01  0.28353274264E+02  0.51100000000E-03 0.  1.
         12    1    3    3    0    0  0.16302595984E+01 -0.50466207619E+00 -0.19075270937E+01  0.25595096762E+01  0.00000000000E+00 0. -1.
</event>
<event>
 7    1  0.4723144E-009  0.4778727E+02  0.7816164E-02  0.1312668E+00
        -11   -1    0    0    0    0  0.00000000000E+00  0.00000000000E+00  0.45593999997E+02  0.45594000000E+02  0.51100000000E-03 0.  1.
         11   -1    0    0    0    0 -0.00000000000E+00 -0.00000000000E+00 -0.45593999997E+02  0.45594000000E+02  0.51100000000E-03 0. -1.
    9900012    2    1    2    0    0  0.35504558947E+01  0.17579803690E+02  0.39521740558E+02  0.47787271762E+02  0.20000003271E+02 0.  0.
         12    1    1    2    0    0 -0.35504558947E+01 -0.17579803690E+02 -0.39521740558E+02  0.43400728238E+02  0.00000000000E+00 0. -1.
         11    1    3    3    0    0 -0.49228969458E+01  0.29373358799E+01  0.40651175013E+01  0.70276622693E+01  0.51100000000E-03 0. -1.
        -11    1    3    3    0    0  0.37688224548E+01  0.13790741594E+02  0.31354291809E+02  0.34459834468E+02  0.51100000000E-03 0.  1.
        -12    1    3    3    0    0  0.47045303858E+01  0.85172621614E+00  0.41023312478E+01  0.62997750249E+01  0.00000000000E+00 0.  1.
</event>
<event>
 7    1  0.4723144E-009  0.4778726E+02  0.7816164E-02  0.1312668E+00
        -11   -1    0    0    0    0  0.00000000000E+00  0.00000000000E+00  0.45593999997E+02  0.45594000000E+02  0.51100000000E-03 0.  1.
         11   -1    0    0    0    0 -0.00000000000E+00 -0.00000000000E+00 -0.45593999997E+02  0.45594000000E+02  0.51100000000E-03 0. -1.
    9900012    2    1    2    0    0 -0.17233738012E+02 -0.39819473603E+02 -0.10160417843E+01  0.47787256403E+02  0.19999933243E+02 0.  0.
         12    1    1    2    0    0  0.17233738012E+02  0.39819473603E+02  0.10160417843E+01  0.43400743597E+02  0.00000000000E+00 0. -1.
         11    1    3    3    0    0 -0.19639095573E+01  0.12002722021E+01  0.88826174558E+00  0.24671042333E+01  0.51100000000E-03 0. -1.
        -11    1    3    3    0    0 -0.15956192174E+02 -0.38561576904E+02  0.61085853160E+00  0.41736895313E+02  0.51100000000E-03 0.  1.
         12    1    3    3    0    0  0.68636371901E+00 -0.24581689012E+01 -0.25151620615E+01  0.35832568562E+01  0.00000000000E+00 0. -1.
</event>
<event>
 7    1  0.4723144E-009  0.4778727E+02  0.7816164E-02  0.1312668E+00
        -11   -1    0    0    0    0  0.00000000000E+00  0.00000000000E+00  0.45593999997E+02  0.45594000000E+02  0.51100000000E-03 0. -1.
         11   -1    0    0    0    0 -0.00000000000E+00 -0.00000000000E+00 -0.45593999997E+02  0.45594000000E+02  0.51100000000E-03 0.  1.
    9900012    2    1    2    0    0 -0.27105981621E+02  0.66835933896E+01 -0.33229782666E+02  0.47787272860E+02  0.20000008279E+02 0.  0.
         12    1    1    2    0    0  0.27105981621E+02 -0.66835933896E+01  0.33229782666E+02  0.43400727140E+02  0.00000000000E+00 0. -1.
         11    1    3    3    0    0 -0.28857447930E+01  0.77417511731E+00  0.21953172398E+01  0.37075987063E+01  0.51100000000E-03 0. -1.
        -11    1    3    3    0    0 -0.49042274480E+01  0.28726588569E+01 -0.13804069392E+02  0.14928360520E+02  0.51100000000E-03 0.  1.
         12    1    3    3    0    0 -0.19316009380E+02  0.30367594154E+01 -0.21621030514E+02  0.29151313634E+02  0.00000000000E+00 0. -1.
</event>
<event>
 7    1  0.4723144E-009  0.4778727E+02  0.7816164E-02  0.1312668E+00
        -11   -1    0    0    0    0  0.00000000000E+00  0.00000000000E+00  0.45593999997E+02  0.45594000000E+02  0.51100000000E-03 0. -1.
         11   -1    0    0    0    0 -0.00000000000E+00 -0.00000000000E+00 -0.45593999997E+02  0.45594000000E+02  0.51100000000E-03 0.  1.
    9900012    2    1    2    0    0 -0.29218822632E+02  0.28364366968E+02  0.15011540754E+02  0.47787271143E+02  0.20000000449E+02 0.  0.
         12    1    1    2    0    0  0.29218822632E+02 -0.28364366968E+02 -0.15011540754E+02  0.43400728857E+02  0.00000000000E+00 0. -1.
         11    1    3    3    0    0 -0.64437408018E+01  0.31638826662E+01  0.25038045015E+01  0.76026959882E+01  0.51100000000E-03 0. -1.
        -11    1    3    3    0    0 -0.22969902256E+02  0.21027673230E+02  0.15749076557E+02  0.34897175584E+02  0.51100000000E-03 0.  1.
        -12    1    3    3    0    0  0.19482042534E+00  0.41728110726E+01 -0.32413403050E+01  0.52873995705E+01  0.00000000000E+00 0.  1.
</event>
<event>
 7    1  0.4723144E-009  0.4778727E+02  0.7816164E-02  0.1312668E+00
        -11   -1    0    0    0    0  0.00000000000E+00  0.00000000000E+00  0.45593999997E+02  0.45594000000E+02  0.51100000000E-03 0.  1.
         11   -1    0    0    0    0 -0.00000000000E+00 -0.00000000000E+00 -0.45593999997E+02  0.45594000000E+02  0.51100000000E-03 0. -1.
    9900012    2    1    2    0    0  0.35712608460E+02  0.23270388309E+02 -0.81683418657E+01  0.47787272081E+02  0.20000004728E+02 0.  0.
         12    1    1    2    0    0 -0.35712608460E+02 -0.23270388309E+02  0.81683418657E+01  0.43400727919E+02  0.00000000000E+00 0. -1.
         11    1    3    3    0    0  0.30335241536E+02  0.17065152462E+02 -0.45931265839E+01  0.35107593476E+02  0.51100000000E-03 0. -1.
        -11    1    3    3    0    0  0.66573879307E+01  0.15959360494E+01 -0.39106052179E+01  0.78842031535E+01  0.51100000000E-03 0.  1.
         12    1    3    3    0    0 -0.12800210069E+01  0.46092997979E+01  0.33538993608E+00  0.47954754524E+01  0.00000000000E+00 0. -1.
</event>
<event>
 7    1  0.4723144E-009  0.4778728E+02  0.7816164E-02  0.1312668E+00
        -11   -1    0    0    0    0  0.00000000000E+00  0.00000000000E+00  0.45593999997E+02  0.45594000000E+02  0.51100000000E-03 0.  1.
         11   -1    0    0    0    0 -0.00000000000E+00 -0.00000000000E+00 -0.45593999997E+02  0.45594000000E+02  0.51100000000E-03 0. -1.
    9900012    2    1    2    0    0 -0.19858102027E+02 -0.18320559789E+02  0.33965210004E+02  0.47787278604E+02  0.20000034466E+02 0.  0.
         12    1    1    2    0    0  0.19858102027E+02  0.18320559789E+02 -0.33965210004E+02  0.43400721396E+02  0.00000000000E+00 0. -1.
         11    1    3    3    0    0  0.13282564292E+00 -0.81398734823E+00  0.83398512842E+01  0.83805332621E+01  0.51100000000E-03 0. -1.
        -11    1    3    3    0    0 -0.21001227493E+02 -0.16582937206E+02  0.19448557095E+02  0.33080080652E+02  0.51100000000E-03 0.  1.
        -12    1    3    3    0    0  0.10102998235E+01 -0.92363523451E+00  0.61768016250E+01  0.63266646896E+01  0.00000000000E+00 0.  1.
</event>
<event>
 7    1  0.4723144E-009  0.4778727E+02  0.7816164E-02  0.1312668E+00
        -11   -1    0    0    0    0  0.00000000000E+00  0.00000000000E+00  0.45593999997E+02  0.45594000000E+02  0.51100000000E-03 0. -1.
         11   -1    0    0    0    0 -0.00000000000E+00 -0.00000000000E+00 -0.45593999997E+02  0.45594000000E+02  0.51100000000E-03 0.  1.
    9900012    2    1    2    0    0  0.31179098078E-01 -0.30290127954E+02 -0.31082639112E+02  0.47787271000E+02  0.19999999797E+02 0.  0.
         12    1    1    2    0    0 -0.31179098078E-01  0.30290127954E+02  0.31082639112E+02  0.43400729000E+02  0.00000000000E+00 0. -1.
         11    1    3    3    0    0  0.32590643310E+01 -0.35359731828E+01 -0.10751220756E+02  0.11777663379E+02  0.51100000000E-03 0. -1.
        -11    1    3    3    0    0 -0.81159000818E+00 -0.16313981068E+02 -0.45899976208E+01  0.16966812755E+02  0.51100000000E-03 0.  1.
        -12    1    3    3    0    0 -0.24162952247E+01 -0.10440173703E+02 -0.15741420735E+02  0.19042794866E+02  0.00000000000E+00 0.  1.
</event>
<event>
 7    1  0.4723144E-009  0.4778727E+02  0.7816164E-02  0.1312668E+00
        -11   -1    0    0    0    0  0.00000000000E+00  0.00000000000E+00  0.45593999997E+02  0.45594000000E+02  0.51100000000E-03 0.  1.
         11   -1    0    0    0    0 -0.00000000000E+00 -0.00000000000E+00 -0.45593999997E+02  0.45594000000E+02  0.51100000000E-03 0. -1.
    9900012    2    1    2    0    0  0.24901050358E+01  0.28750978640E+02  0.32416100468E+02  0.47787274599E+02  0.20000016206E+02 0.  0.
         12    1    1    2    0    0 -0.24901050358E+01 -0.28750978640E+02 -0.32416100468E+02  0.43400725401E+02  0.00000000000E+00 0. -1.
         11    1    3    3    0    0  0.39382919453E+01  0.31434410994E+01  0.99935100670E+01  0.11192033288E+02  0.51100000000E-03 0.  1.
        -11    1    3    3    0    0 -0.48157606695E+01  0.24815367878E+02  0.18265143674E+02  0.31186687984E+02  0.51100000000E-03 0. -1.
         12    1    3    3    0    0  0.33675737600E+01  0.79216966236E+00  0.41574467270E+01  0.54085533270E+01  0.00000000000E+00 0. -1.
</event>
<event>
 7    1  0.4723144E-009  0.4778727E+02  0.7816164E-02  0.1312668E+00
        -11   -1    0    0    0    0  0.00000000000E+00  0.00000000000E+00  0.45593999997E+02  0.45594000000E+02  0.51100000000E-03 0.  1.
         11   -1    0    0    0    0 -0.00000000000E+00 -0.00000000000E+00 -0.45593999997E+02  0.45594000000E+02  0.51100000000E-03 0. -1.
    9900012    2    1    2    0    0  0.86220953319E+01 -0.34563768848E+02  0.24791703901E+02  0.47787271583E+02  0.20000002453E+02 0.  0.
         12    1    1    2    0    0 -0.86220953319E+01  0.34563768848E+02 -0.24791703901E+02  0.43400728417E+02  0.00000000000E+00 0. -1.
         11    1    3    3    0    0 -0.18920644786E+01 -0.23888568981E+01 -0.26849817153E+01  0.40614864697E+01  0.51100000000E-03 0. -1.
        -11    1    3    3    0    0  0.62334888274E+01 -0.21445310265E+02  0.16268639171E+02  0.27630170757E+02  0.51100000000E-03 0.  1.
         12    1    3    3    0    0  0.42806709831E+01 -0.10729601684E+02  0.11208046445E+02  0.16095614356E+02  0.00000000000E+00 0. -1.
</event>
<event>
 7    1  0.4723144E-009  0.4778727E+02  0.7816164E-02  0.1312668E+00
        -11   -1    0    0    0    0  0.00000000000E+00  0.00000000000E+00  0.45593999997E+02  0.45594000000E+02  0.51100000000E-03 0.  1.
         11   -1    0    0    0    0 -0.00000000000E+00 -0.00000000000E+00 -0.45593999997E+02  0.45594000000E+02  0.51100000000E-03 0. -1.
    9900012    2    1    2    0    0  0.39671817557E+02 -0.30640751851E+01  0.17331512145E+02  0.47787274450E+02  0.20000015528E+02 0.  0.
         12    1    1    2    0    0 -0.39671817557E+02  0.30640751851E+01 -0.17331512145E+02  0.43400725550E+02  0.00000000000E+00 0. -1.
         11    1    3    3    0    0  0.31781638132E+01 -0.17299402463E+01 -0.86149300091E+00  0.37196221489E+01  0.51100000000E-03 0. -1.
        -11    1    3    3    0    0  0.19440612703E+02 -0.49217475871E+01  0.17865257209E+01  0.20133372693E+02  0.51100000000E-03 0.  1.
        -12    1    3    3    0    0  0.17053041041E+02  0.35876126482E+01  0.16406479425E+02  0.23934279609E+02  0.00000000000E+00 0.  1.
</event>
<event>
 7    1  0.4723144E-009  0.4778727E+02  0.7816164E-02  0.1312668E+00
        -11   -1    0    0    0    0  0.00000000000E+00  0.00000000000E+00  0.45593999997E+02  0.45594000000E+02  0.51100000000E-03 0. -1.
         11   -1    0    0    0    0 -0.00000000000E+00 -0.00000000000E+00 -0.45593999997E+02  0.45594000000E+02  0.51100000000E-03 0.  1.
    9900012    2    1    2    0    0 -0.31655034329E+02 -0.40839083672E+01 -0.29409250456E+02  0.47787268229E+02  0.19999987163E+02 0.  0.
         12    1    1    2    0    0  0.31655034329E+02  0.40839083672E+01  0.29409250456E+02  0.43400731771E+02  0.00000000000E+00 0. -1.
         11    1    3    3    0    0 -0.80690122379E+00 -0.18992305237E+00  0.11085859066E+00  0.83633141698E+00  0.51100000000E-03 0. -1.
        -11    1    3    3    0    0  0.61889771341E+00 -0.76390402015E+00  0.20459956393E+01  0.22699520147E+01  0.51100000000E-03 0.  1.
        -12    1    3    3    0    0 -0.31467030818E+02 -0.31300812946E+01 -0.31566104686E+02  0.44680984797E+02  0.00000000000E+00 0.  1.
</event>
<event>
 7    1  0.4723144E-009  0.4778727E+02  0.7816164E-02  0.1312668E+00
        -11   -1    0    0    0    0  0.00000000000E+00  0.00000000000E+00  0.45593999997E+02  0.45594000000E+02  0.51100000000E-03 0.  1.
         11   -1    0    0    0    0 -0.00000000000E+00 -0.00000000000E+00 -0.45593999997E+02  0.45594000000E+02  0.51100000000E-03 0. -1.
    9900012    2    1    2    0    0 -0.28550810747E+01 -0.60682097145E+01  0.42879465695E+02  0.47787271488E+02  0.20000002024E+02 0.  0.
         12    1    1    2    0    0  0.28550810747E+01  0.60682097145E+01 -0.42879465695E+02  0.43400728512E+02  0.00000000000E+00 0. -1.
         11    1    3    3    0    0 -0.79702266515E+01  0.98343389916E+00  0.14855793331E+02  0.16887458390E+02  0.51100000000E-03 0. -1.
        -11    1    3    3    0    0  0.43597357515E+01  0.12902034414E+01  0.81348270855E+01  0.93191916342E+01  0.51100000000E-03 0.  1.
         12    1    3    3    0    0  0.75540982528E+00 -0.83418470551E+01  0.19888845278E+02  0.21580621464E+02  0.00000000000E+00 0. -1.
</event>
<event>
 7    1  0.4723144E-009  0.4778723E+02  0.7816164E-02  0.1312668E+00
        -11   -1    0    0    0    0  0.00000000000E+00  0.00000000000E+00  0.45593999997E+02  0.45594000000E+02  0.51100000000E-03 0.  1.
         11   -1    0    0    0    0 -0.00000000000E+00 -0.00000000000E+00 -0.45593999997E+02  0.45594000000E+02  0.51100000000E-03 0. -1.
    9900012    2    1    2    0    0  0.18127569734E+01  0.61949176798E+01  0.42918101412E+02  0.47787233628E+02  0.19999829401E+02 0.  0.
         12    1    1    2    0    0 -0.18127569734E+01 -0.61949176798E+01 -0.42918101412E+02  0.43400766372E+02  0.00000000000E+00 0. -1.
         11    1    3    3    0    0  0.82335776327E+01  0.38004437892E+00  0.15218487173E+02  0.17307183089E+02  0.51100000000E-03 0. -1.
        -11    1    3    3    0    0 -0.35775899501E+01  0.59704120541E+01  0.81215867294E+01  0.10696033901E+02  0.51100000000E-03 0.  1.
        -12    1    3    3    0    0 -0.28432307093E+01 -0.15553875322E+00  0.19578027509E+02  0.19784016638E+02  0.00000000000E+00 0.  1.
</event>
<event>
 7    1  0.4723144E-009  0.4778727E+02  0.7816164E-02  0.1312668E+00
        -11   -1    0    0    0    0  0.00000000000E+00  0.00000000000E+00  0.45593999997E+02  0.45594000000E+02  0.51100000000E-03 0.  1.
         11   -1    0    0    0    0 -0.00000000000E+00 -0.00000000000E+00 -0.45593999997E+02  0.45594000000E+02  0.51100000000E-03 0. -1.
    9900012    2    1    2    0    0 -0.21460346224E+02 -0.34535342158E+02  0.15178508871E+02  0.47787269021E+02  0.19999990772E+02 0.  0.
         12    1    1    2    0    0  0.21460346224E+02  0.34535342158E+02 -0.15178508871E+02  0.43400730979E+02  0.00000000000E+00 0. -1.
         11    1    3    3    0    0  0.12048981364E+01 -0.40399203440E+01  0.69145872221E+01  0.80984104995E+01  0.51100000000E-03 0. -1.
        -11    1    3    3    0    0 -0.49481299901E+01 -0.12190134809E+02  0.46758301610E+01  0.13962333795E+02  0.51100000000E-03 0.  1.
         12    1    3    3    0    0 -0.17717114370E+02 -0.18305287005E+02  0.35880914878E+01  0.25726524726E+02  0.00000000000E+00 0. -1.
</event>
<event>
 7    1  0.4723144E-009  0.4778728E+02  0.7816164E-02  0.1312668E+00
        -11   -1    0    0    0    0  0.00000000000E+00  0.00000000000E+00  0.45593999997E+02  0.45594000000E+02  0.51100000000E-03 0.  1.
         11   -1    0    0    0    0 -0.00000000000E+00 -0.00000000000E+00 -0.45593999997E+02  0.45594000000E+02  0.51100000000E-03 0. -1.
    9900012    2    1    2    0    0 -0.36334857104E+02  0.13954019101E+02 -0.19201203340E+02  0.47787277661E+02  0.20000030169E+02 0.  0.
         12    1    1    2    0    0  0.36334857104E+02 -0.13954019101E+02  0.19201203340E+02  0.43400722339E+02  0.00000000000E+00 0. -1.
         11    1    3    3    0    0 -0.49756036484E+01  0.85493160116E+01 -0.11028817317E+02  0.14814933264E+02  0.51100000000E-03 0. -1.
        -11    1    3    3    0    0 -0.21086235195E+02  0.46528118634E+01 -0.63870711760E+01  0.22518273722E+02  0.51100000000E-03 0.  1.
         12    1    3    3    0    0 -0.10273018260E+02  0.75189122594E+00 -0.17853148463E+01  0.10454070676E+02  0.00000000000E+00 0. -1.
</event>
<event>
 7    1  0.4723144E-009  0.4778730E+02  0.7816164E-02  0.1312668E+00
        -11   -1    0    0    0    0  0.00000000000E+00  0.00000000000E+00  0.45593999997E+02  0.45594000000E+02  0.51100000000E-03 0. -1.
         11   -1    0    0    0    0 -0.00000000000E+00 -0.00000000000E+00 -0.45593999997E+02  0.45594000000E+02  0.51100000000E-03 0.  1.
    9900012    2    1    2    0    0  0.30966301017E+02  0.57023703700E+01 -0.29869583988E+02  0.47787298691E+02  0.20000126050E+02 0.  0.
         12    1    1    2    0    0 -0.30966301017E+02 -0.57023703700E+01  0.29869583988E+02  0.43400701309E+02  0.00000000000E+00 0. -1.
         11    1    3    3    0    0  0.27630023833E+02 -0.43086787464E+00 -0.25265773471E+02  0.37442798686E+02  0.51100000000E-03 0. -1.
        -11    1    3    3    0    0  0.16730536344E+01  0.51837966200E+01 -0.97337866010E-01  0.54479657472E+01  0.51100000000E-03 0.  1.
        -12    1    3    3    0    0  0.16632235496E+01  0.94944162459E+00 -0.45064726513E+01  0.48965342571E+01  0.00000000000E+00 0.  1.
</event>
<event>
 7    1  0.4723144E-009  0.4778728E+02  0.7816164E-02  0.1312668E+00
        -11   -1    0    0    0    0  0.00000000000E+00  0.00000000000E+00  0.45593999997E+02  0.45594000000E+02  0.51100000000E-03 0.  1.
         11   -1    0    0    0    0 -0.00000000000E+00 -0.00000000000E+00 -0.45593999997E+02  0.45594000000E+02  0.51100000000E-03 0. -1.
    9900012    2    1    2    0    0 -0.13259533631E+02 -0.39017238182E+02  0.13618465862E+02  0.47787277426E+02  0.20000029098E+02 0.  0.
         12    1    1    2    0    0  0.13259533631E+02  0.39017238182E+02 -0.13618465862E+02  0.43400722574E+02  0.00000000000E+00 0. -1.
         11    1    3    3    0    0  0.18465052595E+01  0.81179327697E+00 -0.42937693205E+00  0.20622693347E+01  0.51100000000E-03 0. -1.
        -11    1    3    3    0    0 -0.77650231044E+01 -0.20138695326E+02  0.11778565922E+02  0.24588559305E+02  0.51100000000E-03 0.  1.
        -12    1    3    3    0    0 -0.73410157862E+01 -0.19690336133E+02  0.22692768728E+01  0.21136448787E+02  0.00000000000E+00 0.  1.
</event>
<event>
 7    1  0.4723144E-009  0.4778726E+02  0.7816164E-02  0.1312668E+00
        -11   -1    0    0    0    0  0.00000000000E+00  0.00000000000E+00  0.45593999997E+02  0.45594000000E+02  0.51100000000E-03 0.  1.
         11   -1    0    0    0    0 -0.00000000000E+00 -0.00000000000E+00 -0.45593999997E+02  0.45594000000E+02  0.51100000000E-03 0. -1.
    9900012    2    1    2    0    0 -0.11272471155E+02 -0.12471928338E+02  0.40012586173E+02  0.47787255138E+02  0.19999927474E+02 0.  0.
         12    1    1    2    0    0  0.11272471155E+02  0.12471928338E+02 -0.40012586173E+02  0.43400744862E+02  0.00000000000E+00 0. -1.
         11    1    3    3    0    0 -0.20569678929E+01  0.37358298732E+01  0.23875952801E+01  0.48875508423E+01  0.51100000000E-03 0. -1.
        -11    1    3    3    0    0 -0.63738248069E+00 -0.98206099956E+01  0.16231252085E+02  0.18981680158E+02  0.51100000000E-03 0.  1.
         12    1    3    3    0    0 -0.85781207814E+01 -0.63871482154E+01  0.21393738808E+02  0.23918024138E+02  0.00000000000E+00 0. -1.
</event>
<event>
 7    1  0.4723144E-009  0.4778727E+02  0.7816164E-02  0.1312668E+00
        -11   -1    0    0    0    0  0.00000000000E+00  0.00000000000E+00  0.45593999997E+02  0.45594000000E+02  0.51100000000E-03 0.  1.
         11   -1    0    0    0    0 -0.00000000000E+00 -0.00000000000E+00 -0.45593999997E+02  0.45594000000E+02  0.51100000000E-03 0. -1.
    9900012    2    1    2    0    0  0.34575191493E+02 -0.20183215683E+02  0.16757596328E+02  0.47787273085E+02  0.20000009302E+02 0.  0.
         12    1    1    2    0    0 -0.34575191493E+02  0.20183215683E+02 -0.16757596328E+02  0.43400726915E+02  0.00000000000E+00 0. -1.
         11    1    3    3    0    0  0.10661579768E+02 -0.10344881088E+02 -0.27676312756E+01  0.15111109523E+02  0.51100000000E-03 0. -1.
        -11    1    3    3    0    0  0.13803466010E+02 -0.75186313924E+01  0.13209550916E+02  0.20531871020E+02  0.51100000000E-03 0.  1.
         12    1    3    3    0    0  0.10110145715E+02 -0.23197032030E+01  0.63156766871E+01  0.12144292542E+02  0.00000000000E+00 0. -1.
</event>
<event>
 7    1  0.4723144E-009  0.4778727E+02  0.7816164E-02  0.1312668E+00
        -11   -1    0    0    0    0  0.00000000000E+00  0.00000000000E+00  0.45593999997E+02  0.45594000000E+02  0.51100000000E-03 0.  1.
         11   -1    0    0    0    0 -0.00000000000E+00 -0.00000000000E+00 -0.45593999997E+02  0.45594000000E+02  0.51100000000E-03 0. -1.
    9900012    2    1    2    0    0  0.24854383813E+02 -0.17157941640E+02  0.31168701416E+02  0.47787270698E+02  0.19999998419E+02 0.  0.
         12    1    1    2    0    0 -0.24854383813E+02  0.17157941640E+02 -0.31168701416E+02  0.43400729302E+02  0.00000000000E+00 0. -1.
         11    1    3    3    0    0  0.10866656445E+01 -0.31013463391E+01  0.99008206980E+01  0.10431943352E+02  0.51100000000E-03 0. -1.
        -11    1    3    3    0    0  0.23327118805E+02 -0.13450184136E+02  0.23035206618E+02  0.35435613008E+02  0.51100000000E-03 0.  1.
        -12    1    3    3    0    0  0.44059936295E+00 -0.60641116487E+00 -0.17673259008E+01  0.19197143379E+01  0.00000000000E+00 0.  1.
</event>
<event>
 7    1  0.4723144E-009  0.4778727E+02  0.7816164E-02  0.1312668E+00
        -11   -1    0    0    0    0  0.00000000000E+00  0.00000000000E+00  0.45593999997E+02  0.45594000000E+02  0.51100000000E-03 0. -1.
         11   -1    0    0    0    0 -0.00000000000E+00 -0.00000000000E+00 -0.45593999997E+02  0.45594000000E+02  0.51100000000E-03 0.  1.
    9900012    2    1    2    0    0  0.33496860204E+02  0.17577718699E+02 -0.21274570155E+02  0.47787272200E+02  0.20000005271E+02 0.  0.
         12    1    1    2    0    0 -0.33496860204E+02 -0.17577718699E+02  0.21274570155E+02  0.43400727800E+02  0.00000000000E+00 0. -1.
         11    1    3    3    0    0  0.14066929045E+02  0.45765706941E+01 -0.18966432717E+02  0.24053046841E+02  0.51100000000E-03 0. -1.
        -11    1    3    3    0    0  0.89937190552E+01  0.78218435439E+01 -0.38211462492E+00  0.11925360821E+02  0.51100000000E-03 0.  1.
         12    1    3    3    0    0  0.10436212105E+02  0.51793044614E+01 -0.19260228130E+01  0.11808864538E+02  0.00000000000E+00 0. -1.
</event>
<event>
 7    1  0.4723144E-009  0.4778727E+02  0.7816164E-02  0.1312668E+00
        -11   -1    0    0    0    0  0.00000000000E+00  0.00000000000E+00  0.45593999997E+02  0.45594000000E+02  0.51100000000E-03 0. -1.
         11   -1    0    0    0    0 -0.00000000000E+00 -0.00000000000E+00 -0.45593999997E+02  0.45594000000E+02  0.51100000000E-03 0.  1.
    9900012    2    1    2    0    0 -0.16475678058E+01 -0.43368774956E+02  0.24139292910E+00  0.47787269691E+02  0.19999993829E+02 0.  0.
         12    1    1    2    0    0  0.16475678058E+01  0.43368774956E+02 -0.24139292910E+00  0.43400730309E+02  0.00000000000E+00 0. -1.
         11    1    3    3    0    0  0.35038711199E+01 -0.22544207882E+01  0.35701620565E+01  0.54868555007E+01  0.51100000000E-03 0. -1.
        -11    1    3    3    0    0 -0.61724032581E+01 -0.20375308634E+02 -0.12179852996E+00  0.21290058691E+02  0.51100000000E-03 0.  1.
        -12    1    3    3    0    0  0.10209643325E+01 -0.20739045533E+02 -0.32069705974E+01  0.21010355499E+02  0.00000000000E+00 0.  1.
</event>
<event>
 7    1  0.4723144E-009  0.4778727E+02  0.7816164E-02  0.1312668E+00
        -11   -1    0    0    0    0  0.00000000000E+00  0.00000000000E+00  0.45593999997E+02  0.45594000000E+02  0.51100000000E-03 0.  1.
         11   -1    0    0    0    0 -0.00000000000E+00 -0.00000000000E+00 -0.45593999997E+02  0.45594000000E+02  0.51100000000E-03 0. -1.
    9900012    2    1    2    0    0 -0.40920905580E+02 -0.14391319745E+02 -0.14117816283E+01  0.47787265849E+02  0.19999976311E+02 0.  0.
         12    1    1    2    0    0  0.40920905580E+02  0.14391319745E+02  0.14117816283E+01  0.43400734151E+02  0.00000000000E+00 0. -1.
         11    1    3    3    0    0 -0.33411796587E+02 -0.88315847299E+01  0.14010570688E+01  0.34587685687E+02  0.51100000000E-03 0. -1.
        -11    1    3    3    0    0 -0.21251129492E+01 -0.68023778106E+01 -0.30922197406E+00  0.71333069061E+01  0.51100000000E-03 0.  1.
         12    1    3    3    0    0 -0.53839960442E+01  0.12426427959E+01 -0.25036167231E+01  0.60662732562E+01  0.00000000000E+00 0. -1.
</event>
<event>
 7    1  0.4723144E-009  0.4778727E+02  0.7816164E-02  0.1312668E+00
        -11   -1    0    0    0    0  0.00000000000E+00  0.00000000000E+00  0.45593999997E+02  0.45594000000E+02  0.51100000000E-03 0.  1.
         11   -1    0    0    0    0 -0.00000000000E+00 -0.00000000000E+00 -0.45593999997E+02  0.45594000000E+02  0.51100000000E-03 0. -1.
    9900012    2    1    2    0    0  0.10434196994E+02 -0.25223958176E+02  0.33741707073E+02  0.47787270408E+02  0.19999997097E+02 0.  0.
         12    1    1    2    0    0 -0.10434196994E+02  0.25223958176E+02 -0.33741707073E+02  0.43400729592E+02  0.00000000000E+00 0. -1.
         11    1    3    3    0    0 -0.16487585917E+01 -0.54926600520E+01  0.76307292211E+00  0.57853262558E+01  0.51100000000E-03 0. -1.
        -11    1    3    3    0    0  0.85818204891E+01 -0.37158043640E+01  0.14952263170E+02  0.17635901427E+02  0.51100000000E-03 0.  1.
        -12    1    3    3    0    0  0.35011350965E+01 -0.16015493760E+02  0.18026370980E+02  0.24366042724E+02  0.00000000000E+00 0.  1.
</event>
<event>
 7    1  0.4723144E-009  0.4778727E+02  0.7816164E-02  0.1312668E+00
        -11   -1    0    0    0    0  0.00000000000E+00  0.00000000000E+00  0.45593999997E+02  0.45594000000E+02  0.51100000000E-03 0.  1.
         11   -1    0    0    0    0 -0.00000000000E+00 -0.00000000000E+00 -0.45593999997E+02  0.45594000000E+02  0.51100000000E-03 0. -1.
    9900012    2    1    2    0    0 -0.21664131171E+02 -0.11150526179E+02  0.35915931310E+02  0.47787274945E+02  0.20000017784E+02 0.  0.
         12    1    1    2    0    0  0.21664131171E+02  0.11150526179E+02 -0.35915931310E+02  0.43400725055E+02  0.00000000000E+00 0. -1.
         11    1    3    3    0    0 -0.13083008259E+01  0.41048850131E+01  0.71796178450E+01  0.83730905097E+01  0.51100000000E-03 0. -1.
        -11    1    3    3    0    0 -0.11284759434E+02 -0.91514531316E+01  0.97260951862E+01  0.17484044662E+02  0.51100000000E-03 0.  1.
        -12    1    3    3    0    0 -0.90710709107E+01 -0.61039580609E+01  0.19010218278E+02  0.21930139773E+02  0.00000000000E+00 0.  1.
</event>
<event>
 7    1  0.4723144E-009  0.4778727E+02  0.7816164E-02  0.1312668E+00
        -11   -1    0    0    0    0  0.00000000000E+00  0.00000000000E+00  0.45593999997E+02  0.45594000000E+02  0.51100000000E-03 0. -1.
         11   -1    0    0    0    0 -0.00000000000E+00 -0.00000000000E+00 -0.45593999997E+02  0.45594000000E+02  0.51100000000E-03 0.  1.
    9900012    2    1    2    0    0  0.90777544061E+01  0.41396093989E+02 -0.93584615349E+01  0.47787273913E+02  0.20000013077E+02 0.  0.
         12    1    1    2    0    0 -0.90777544061E+01 -0.41396093989E+02  0.93584615349E+01  0.43400726087E+02  0.00000000000E+00 0. -1.
         11    1    3    3    0    0  0.38429604674E+01  0.50752002613E+01 -0.28017513330E+01  0.69552723627E+01  0.51100000000E-03 0. -1.
        -11    1    3    3    0    0  0.10191669924E+02  0.32364614397E+02 -0.49602982154E+01  0.34292024722E+02  0.51100000000E-03 0.  1.
        -12    1    3    3    0    0 -0.49568759853E+01  0.39562793310E+01 -0.15964119865E+01  0.65399768279E+01  0.00000000000E+00 0.  1.
</event>
<event>
 7    1  0.4723144E-009  0.4778726E+02  0.7816164E-02  0.1312668E+00
        -11   -1    0    0    0    0  0.00000000000E+00  0.00000000000E+00  0.45593999997E+02  0.45594000000E+02  0.51100000000E-03 0.  1.
         11   -1    0    0    0    0 -0.00000000000E+00 -0.00000000000E+00 -0.45593999997E+02  0.45594000000E+02  0.51100000000E-03 0. -1.
    9900012    2    1    2    0    0  0.27069091728E+01  0.33590440534E+02  0.27349201764E+02  0.47787263950E+02  0.19999967655E+02 0.  0.
         12    1    1    2    0    0 -0.27069091728E+01 -0.33590440534E+02 -0.27349201764E+02  0.43400736050E+02  0.00000000000E+00 0. -1.
         11    1    3    3    0    0  0.15153066702E+00  0.38898354344E+01 -0.24279358490E+01  0.45878812100E+01  0.51100000000E-03 0. -1.
        -11    1    3    3    0    0 -0.11581467781E+01  0.23955109716E+02  0.19790437681E+02  0.31094211830E+02  0.51100000000E-03 0.  1.
         12    1    3    3    0    0  0.37135252838E+01  0.57454953834E+01  0.99866999321E+01  0.12105170910E+02  0.00000000000E+00 0. -1.
</event>
<event>
 7    1  0.4723144E-009  0.4778727E+02  0.7816164E-02  0.1312668E+00
        -11   -1    0    0    0    0  0.00000000000E+00  0.00000000000E+00  0.45593999997E+02  0.45594000000E+02  0.51100000000E-03 0.  1.
         11   -1    0    0    0    0 -0.00000000000E+00 -0.00000000000E+00 -0.45593999997E+02  0.45594000000E+02  0.51100000000E-03 0. -1.
    9900012    2    1    2    0    0 -0.53014911551E+01 -0.38659238179E+02 -0.18999500600E+02  0.47787268116E+02  0.19999986648E+02 0.  0.
         12    1    1    2    0    0  0.53014911551E+01  0.38659238179E+02  0.18999500600E+02  0.43400731884E+02  0.00000000000E+00 0. -1.
         11    1    3    3    0    0  0.70510184465E+01 -0.11812874885E+02 -0.55133780947E+01  0.14820870840E+02  0.51100000000E-03 0. -1.
        -11    1    3    3    0    0 -0.11712211638E+02 -0.25275182937E+02 -0.10986127447E+02  0.29945045842E+02  0.51100000000E-03 0.  1.
         12    1    3    3    0    0 -0.64029796344E+00 -0.15711803566E+01 -0.24999950577E+01  0.30213514333E+01  0.00000000000E+00 0. -1.
</event>
<event>
 7    1  0.4723144E-009  0.4778727E+02  0.7816164E-02  0.1312668E+00
        -11   -1    0    0    0    0  0.00000000000E+00  0.00000000000E+00  0.45593999997E+02  0.45594000000E+02  0.51100000000E-03 0. -1.
         11   -1    0    0    0    0 -0.00000000000E+00 -0.00000000000E+00 -0.45593999997E+02  0.45594000000E+02  0.51100000000E-03 0.  1.
    9900012    2    1    2    0    0 -0.40398436345E+02 -0.15838348168E+02 -0.85808573230E+00  0.47787271401E+02  0.20000001624E+02 0.  0.
         12    1    1    2    0    0  0.40398436345E+02  0.15838348168E+02  0.85808573230E+00  0.43400728599E+02  0.00000000000E+00 0. -1.
         11    1    3    3    0    0 -0.94224080934E+01 -0.91158625083E+01 -0.60507615158E+01  0.14439267250E+02  0.51100000000E-03 0.  1.
        -11    1    3    3    0    0 -0.12691721886E+02 -0.28195121676E+01 -0.23059752779E+01  0.13204051482E+02  0.51100000000E-03 0. -1.
         12    1    3    3    0    0 -0.18284306366E+02 -0.39029734924E+01  0.74986510614E+01  0.20143952668E+02  0.00000000000E+00 0. -1.
</event>
<event>
 7    1  0.4723144E-009  0.4778727E+02  0.7816164E-02  0.1312668E+00
        -11   -1    0    0    0    0  0.00000000000E+00  0.00000000000E+00  0.45593999997E+02  0.45594000000E+02  0.51100000000E-03 0. -1.
         11   -1    0    0    0    0 -0.00000000000E+00 -0.00000000000E+00 -0.45593999997E+02  0.45594000000E+02  0.51100000000E-03 0.  1.
    9900012    2    1    2    0    0  0.42918182627E+02  0.64453837627E+01 -0.33186836348E+00  0.47787268342E+02  0.19999987679E+02 0.  0.
         12    1    1    2    0    0 -0.42918182627E+02 -0.64453837627E+01  0.33186836348E+00  0.43400731658E+02  0.00000000000E+00 0. -1.
         11    1    3    3    0    0  0.10917602921E+01  0.17119438794E+01  0.36488786417E+01  0.41757643593E+01  0.51100000000E-03 0. -1.
        -11    1    3    3    0    0  0.40431548507E+02  0.64852566879E+01 -0.47962880451E+01  0.41228303970E+02  0.51100000000E-03 0.  1.
        -12    1    3    3    0    0  0.13948738275E+01 -0.17518168046E+01  0.81554103995E+00  0.23832000125E+01  0.00000000000E+00 0.  1.
</event>
<event>
 7    1  0.4723144E-009  0.4778726E+02  0.7816164E-02  0.1312668E+00
        -11   -1    0    0    0    0  0.00000000000E+00  0.00000000000E+00  0.45593999997E+02  0.45594000000E+02  0.51100000000E-03 0.  1.
         11   -1    0    0    0    0 -0.00000000000E+00 -0.00000000000E+00 -0.45593999997E+02  0.45594000000E+02  0.51100000000E-03 0. -1.
    9900012    2    1    2    0    0  0.13862357517E+02  0.30161500535E+02  0.27959669256E+02  0.47787260659E+02  0.19999952649E+02 0.  0.
         12    1    1    2    0    0 -0.13862357517E+02 -0.30161500535E+02 -0.27959669256E+02  0.43400739341E+02  0.00000000000E+00 0. -1.
         11    1    3    3    0    0  0.78140387290E+00  0.36288739608E+01  0.75825588434E+01  0.84424236514E+01  0.51100000000E-03 0. -1.
        -11    1    3    3    0    0 -0.22679562905E+01  0.26213519075E+00 -0.63375203628E+00  0.23693844134E+01  0.51100000000E-03 0.  1.
        -12    1    3    3    0    0  0.15348909934E+02  0.26270491384E+02  0.21010862449E+02  0.36975452594E+02  0.00000000000E+00 0.  1.
</event>
<event>
 7    1  0.4723144E-009  0.4778727E+02  0.7816164E-02  0.1312668E+00
        -11   -1    0    0    0    0  0.00000000000E+00  0.00000000000E+00  0.45593999997E+02  0.45594000000E+02  0.51100000000E-03 0.  1.
         11   -1    0    0    0    0 -0.00000000000E+00 -0.00000000000E+00 -0.45593999997E+02  0.45594000000E+02  0.51100000000E-03 0. -1.
    9900012    2    1    2    0    0 -0.90022204801E+01 -0.18582522623E+01  0.42416151662E+02  0.47787274236E+02  0.20000014550E+02 0.  0.
         12    1    1    2    0    0  0.90022204801E+01  0.18582522623E+01 -0.42416151662E+02  0.43400725764E+02  0.00000000000E+00 0. -1.
         11    1    3    3    0    0 -0.88050732611E+00 -0.39813009639E+01  0.24893034189E+01  0.47773091055E+01  0.51100000000E-03 0. -1.
        -11    1    3    3    0    0 -0.29576005693E+01 -0.52984096016E+01  0.95377314122E+01  0.11304373764E+02  0.51100000000E-03 0.  1.
         12    1    3    3    0    0 -0.51641125847E+01  0.74214583033E+01  0.30389116831E+02  0.31705591367E+02  0.00000000000E+00 0. -1.
</event>
<event>
 7    1  0.4723144E-009  0.4778727E+02  0.7816164E-02  0.1312668E+00
        -11   -1    0    0    0    0  0.00000000000E+00  0.00000000000E+00  0.45593999997E+02  0.45594000000E+02  0.51100000000E-03 0. -1.
         11   -1    0    0    0    0 -0.00000000000E+00 -0.00000000000E+00 -0.45593999997E+02  0.45594000000E+02  0.51100000000E-03 0.  1.
    9900012    2    1    2    0    0  0.21210213646E+02 -0.11236999092E+02 -0.36159092068E+02  0.47787271312E+02  0.20000001219E+02 0.  0.
         12    1    1    2    0    0 -0.21210213646E+02  0.11236999092E+02  0.36159092068E+02  0.43400728688E+02  0.00000000000E+00 0. -1.
         11    1    3    3    0    0  0.24752774372E+01  0.39420035086E+01 -0.11001898441E+01  0.47829706258E+01  0.51100000000E-03 0. -1.
        -11    1    3    3    0    0  0.11103624162E+02 -0.12398438861E+02 -0.21362983224E+02  0.27081152269E+02  0.51100000000E-03 0.  1.
        -12    1    3    3    0    0  0.76313120474E+01 -0.27805637390E+01 -0.13695919000E+02  0.15923148417E+02  0.00000000000E+00 0.  1.
</event>
<event>
 7    1  0.4723144E-009  0.4778728E+02  0.7816164E-02  0.1312668E+00
        -11   -1    0    0    0    0  0.00000000000E+00  0.00000000000E+00  0.45593999997E+02  0.45594000000E+02  0.51100000000E-03 0. -1.
         11   -1    0    0    0    0 -0.00000000000E+00 -0.00000000000E+00 -0.45593999997E+02  0.45594000000E+02  0.51100000000E-03 0.  1.
    9900012    2    1    2    0    0  0.40009901885E+02  0.52330202687E+01  0.15982668664E+02  0.47787280564E+02  0.20000043402E+02 0.  0.
         12    1    1    2    0    0 -0.40009901885E+02 -0.52330202687E+01 -0.15982668664E+02  0.43400719436E+02  0.00000000000E+00 0. -1.
         11    1    3    3    0    0  0.20458048239E+02  0.95034572271E+01  0.42040234252E+01  0.22946050864E+02  0.51100000000E-03 0. -1.
        -11    1    3    3    0    0  0.13377026268E+02 -0.62258058374E+01  0.52937339778E+01  0.15675749098E+02  0.51100000000E-03 0.  1.
        -12    1    3    3    0    0  0.61748273781E+01  0.19553688791E+01  0.64849112609E+01  0.91654806019E+01  0.00000000000E+00 0.  1.
</event>
<event>
 7    1  0.4723144E-009  0.4778727E+02  0.7816164E-02  0.1312668E+00
        -11   -1    0    0    0    0  0.00000000000E+00  0.00000000000E+00  0.45593999997E+02  0.45594000000E+02  0.51100000000E-03 0. -1.
         11   -1    0    0    0    0 -0.00000000000E+00 -0.00000000000E+00 -0.45593999997E+02  0.45594000000E+02  0.51100000000E-03 0.  1.
    9900012    2    1    2    0    0 -0.36948087329E+02  0.20934607593E+02  0.89557128317E+01  0.47787265621E+02  0.19999975271E+02 0.  0.
         12    1    1    2    0    0  0.36948087329E+02 -0.20934607593E+02 -0.89557128317E+01  0.43400734379E+02  0.00000000000E+00 0. -1.
         11    1    3    3    0    0 -0.70632539481E+01  0.76869037735E+01  0.64497815909E+01  0.12271011726E+02  0.51100000000E-03 0. -1.
        -11    1    3    3    0    0 -0.28652748336E+02  0.13606334688E+02 -0.10492016766E+01  0.31736621674E+02  0.51100000000E-03 0.  1.
        -12    1    3    3    0    0 -0.12320850443E+01 -0.35863086874E+00  0.35551329175E+01  0.37796322198E+01  0.00000000000E+00 0.  1.
</event>
<event>
 7    1  0.4723144E-009  0.4778727E+02  0.7816164E-02  0.1312668E+00
        -11   -1    0    0    0    0  0.00000000000E+00  0.00000000000E+00  0.45593999997E+02  0.45594000000E+02  0.51100000000E-03 0.  1.
         11   -1    0    0    0    0 -0.00000000000E+00 -0.00000000000E+00 -0.45593999997E+02  0.45594000000E+02  0.51100000000E-03 0. -1.
    9900012    2    1    2    0    0  0.29893621807E+02 -0.24664705784E+02  0.19535780406E+02  0.47787273598E+02  0.20000011643E+02 0.  0.
         12    1    1    2    0    0 -0.29893621807E+02  0.24664705784E+02 -0.19535780406E+02  0.43400726402E+02  0.00000000000E+00 0. -1.
         11    1    3    3    0    0  0.15123129295E+00  0.23463042582E+01  0.24342690229E+01  0.33843286650E+01  0.51100000000E-03 0. -1.
        -11    1    3    3    0    0  0.22661506487E+02 -0.16194300411E+02  0.96297598236E+01  0.29470858769E+02  0.51100000000E-03 0.  1.
        -12    1    3    3    0    0  0.70808840274E+01 -0.10816709631E+02  0.74717515590E+01  0.14932086164E+02  0.00000000000E+00 0.  1.
</event>
<event>
 7    1  0.4723144E-009  0.4778728E+02  0.7816164E-02  0.1312668E+00
        -11   -1    0    0    0    0  0.00000000000E+00  0.00000000000E+00  0.45593999997E+02  0.45594000000E+02  0.51100000000E-03 0. -1.
         11   -1    0    0    0    0 -0.00000000000E+00 -0.00000000000E+00 -0.45593999997E+02  0.45594000000E+02  0.51100000000E-03 0.  1.
    9900012    2    1    2    0    0 -0.16803925374E+02  0.28911127274E+02 -0.27665814162E+02  0.47787280404E+02  0.20000042673E+02 0.  0.
         12    1    1    2    0    0  0.16803925374E+02 -0.28911127274E+02  0.27665814162E+02  0.43400719596E+02  0.00000000000E+00 0. -1.
         11    1    3    3    0    0 -0.69137197470E+01  0.16895789451E+02 -0.18230402096E+02  0.25799511289E+02  0.51100000000E-03 0.  1.
        -11    1    3    3    0    0 -0.55222139793E+00  0.45897343797E+01  0.23775328865E+01  0.51983913893E+01  0.51100000000E-03 0. -1.
        -12    1    3    3    0    0 -0.93379842293E+01  0.74256034440E+01 -0.11812944952E+02  0.16789377726E+02  0.00000000000E+00 0.  1.
</event>
<event>
 7    1  0.4723144E-009  0.4778727E+02  0.7816164E-02  0.1312668E+00
        -11   -1    0    0    0    0  0.00000000000E+00  0.00000000000E+00  0.45593999997E+02  0.45594000000E+02  0.51100000000E-03 0.  1.
         11   -1    0    0    0    0 -0.00000000000E+00 -0.00000000000E+00 -0.45593999997E+02  0.45594000000E+02  0.51100000000E-03 0. -1.
    9900012    2    1    2    0    0 -0.75466112486E+00 -0.53756558777E+01  0.43059918305E+02  0.47787265514E+02  0.19999974782E+02 0.  0.
         12    1    1    2    0    0  0.75466112486E+00  0.53756558777E+01 -0.43059918305E+02  0.43400734486E+02  0.00000000000E+00 0. -1.
         11    1    3    3    0    0  0.25844125597E+01 -0.53933383910E+01  0.51266306339E+01  0.78771587008E+01  0.51100000000E-03 0. -1.
        -11    1    3    3    0    0 -0.44451966956E+01  0.40163697932E+01  0.99006584926E+01  0.11572123350E+02  0.51100000000E-03 0.  1.
        -12    1    3    3    0    0  0.11061230111E+01 -0.39986872799E+01  0.28032629178E+02  0.28337983463E+02  0.00000000000E+00 0.  1.
</event>
<event>
 7    1  0.4723144E-009  0.4778727E+02  0.7816164E-02  0.1312668E+00
        -11   -1    0    0    0    0  0.00000000000E+00  0.00000000000E+00  0.45593999997E+02  0.45594000000E+02  0.51100000000E-03 0.  1.
         11   -1    0    0    0    0 -0.00000000000E+00 -0.00000000000E+00 -0.45593999997E+02  0.45594000000E+02  0.51100000000E-03 0. -1.
    9900012    2    1    2    0    0  0.28064603033E+02 -0.20066750879E+02  0.26331100030E+02  0.47787271169E+02  0.20000000570E+02 0.  0.
         12    1    1    2    0    0 -0.28064603033E+02  0.20066750879E+02 -0.26331100030E+02  0.43400728831E+02  0.00000000000E+00 0. -1.
         11    1    3    3    0    0  0.79521702107E+01 -0.87648287695E+01 -0.21569127275E+00  0.11836627789E+02  0.51100000000E-03 0. -1.
        -11    1    3    3    0    0  0.16845214913E+02 -0.12200743240E+02  0.21944359762E+02  0.30235315885E+02  0.51100000000E-03 0.  1.
         12    1    3    3    0    0  0.32672179091E+01  0.89882113054E+00  0.46024315413E+01  0.57153274956E+01  0.00000000000E+00 0. -1.
</event>
<event>
 7    1  0.4723144E-009  0.4778727E+02  0.7816164E-02  0.1312668E+00
        -11   -1    0    0    0    0  0.00000000000E+00  0.00000000000E+00  0.45593999997E+02  0.45594000000E+02  0.51100000000E-03 0.  1.
         11   -1    0    0    0    0 -0.00000000000E+00 -0.00000000000E+00 -0.45593999997E+02  0.45594000000E+02  0.51100000000E-03 0. -1.
    9900012    2    1    2    0    0  0.19975237397E+02  0.10691532219E+02  0.37017623205E+02  0.47787269614E+02  0.19999993478E+02 0.  0.
         12    1    1    2    0    0 -0.19975237397E+02 -0.10691532219E+02 -0.37017623205E+02  0.43400730386E+02  0.00000000000E+00 0. -1.
         11    1    3    3    0    0  0.20874525725E+01  0.82915802234E+01  0.15979759601E+02  0.18123478640E+02  0.51100000000E-03 0. -1.
        -11    1    3    3    0    0  0.14626706972E+01  0.33455540875E+01  0.75604862748E+01  0.83960163586E+01  0.51100000000E-03 0.  1.
         12    1    3    3    0    0  0.16425114127E+02 -0.94560209144E+00  0.13477377329E+02  0.21267774615E+02  0.00000000000E+00 0. -1.
</event>
<event>
 7    1  0.4723144E-009  0.4778728E+02  0.7816164E-02  0.1312668E+00
        -11   -1    0    0    0    0  0.00000000000E+00  0.00000000000E+00  0.45593999997E+02  0.45594000000E+02  0.51100000000E-03 0.  1.
         11   -1    0    0    0    0 -0.00000000000E+00 -0.00000000000E+00 -0.45593999997E+02  0.45594000000E+02  0.51100000000E-03 0. -1.
    9900012    2    1    2    0    0  0.20420425306E+02  0.20711174657E+01  0.38240546018E+02  0.47787278151E+02  0.20000032404E+02 0.  0.
         12    1    1    2    0    0 -0.20420425306E+02 -0.20711174657E+01 -0.38240546018E+02  0.43400721849E+02  0.00000000000E+00 0. -1.
         11    1    3    3    0    0  0.37702986806E+01 -0.35431963206E+01  0.63144122817E+01  0.81634058475E+01  0.51100000000E-03 0. -1.
        -11    1    3    3    0    0  0.16667192608E+02  0.29096743741E+01  0.32693832578E+02  0.36812337650E+02  0.51100000000E-03 0.  1.
        -12    1    3    3    0    0 -0.17065982966E-01  0.27046394122E+01 -0.76769884131E+00  0.28115346537E+01  0.00000000000E+00 0.  1.
</event>
<event>
 7    1  0.4723144E-009  0.4778727E+02  0.7816164E-02  0.1312668E+00
        -11   -1    0    0    0    0  0.00000000000E+00  0.00000000000E+00  0.45593999997E+02  0.45594000000E+02  0.51100000000E-03 0.  1.
         11   -1    0    0    0    0 -0.00000000000E+00 -0.00000000000E+00 -0.45593999997E+02  0.45594000000E+02  0.51100000000E-03 0. -1.
    9900012    2    1    2    0    0 -0.30683720532E+02  0.30056201680E+02 -0.62255294779E+01  0.47787272099E+02  0.20000004806E+02 0.  0.
         12    1    1    2    0    0  0.30683720532E+02 -0.30056201680E+02  0.62255294779E+01  0.43400727901E+02  0.00000000000E+00 0. -1.
         11    1    3    3    0    0 -0.21461779632E+02  0.10026016042E+02 -0.32868674379E+01  0.23915109878E+02  0.51100000000E-03 0. -1.
        -11    1    3    3    0    0 -0.92603249785E+01  0.18809774395E+02 -0.30355553365E+00  0.20967913051E+02  0.51100000000E-03 0.  1.
         12    1    3    3    0    0  0.38384079028E-01  0.12204112428E+01 -0.26351065063E+01  0.29042491695E+01  0.00000000000E+00 0. -1.
</event>
<event>
 7    1  0.4723144E-009  0.4778727E+02  0.7816164E-02  0.1312668E+00
        -11   -1    0    0    0    0  0.00000000000E+00  0.00000000000E+00  0.45593999997E+02  0.45594000000E+02  0.51100000000E-03 0. -1.
         11   -1    0    0    0    0 -0.00000000000E+00 -0.00000000000E+00 -0.45593999997E+02  0.45594000000E+02  0.51100000000E-03 0.  1.
    9900012    2    1    2    0    0 -0.32519730067E+02  0.18287266856E+02 -0.22173548652E+02  0.47787271521E+02  0.20000002172E+02 0.  0.
         12    1    1    2    0    0  0.32519730067E+02 -0.18287266856E+02  0.22173548652E+02  0.43400728479E+02  0.00000000000E+00 0. -1.
         11    1    3    3    0    0 -0.23130028950E+02  0.14492025338E+02 -0.66373181462E+01  0.28090408151E+02  0.51100000000E-03 0. -1.
        -11    1    3    3    0    0 -0.70617096699E+01  0.50629071843E+01 -0.14387799474E+02  0.16808020305E+02  0.51100000000E-03 0.  1.
         12    1    3    3    0    0 -0.23279914471E+01 -0.12676656663E+01 -0.11484310321E+01  0.28888430651E+01  0.00000000000E+00 0. -1.
</event>
<event>
 7    1  0.4723144E-009  0.4778727E+02  0.7816164E-02  0.1312668E+00
        -11   -1    0    0    0    0  0.00000000000E+00  0.00000000000E+00  0.45593999997E+02  0.45594000000E+02  0.51100000000E-03 0.  1.
         11   -1    0    0    0    0 -0.00000000000E+00 -0.00000000000E+00 -0.45593999997E+02  0.45594000000E+02  0.51100000000E-03 0. -1.
    9900012    2    1    2    0    0  0.31028333565E+02 -0.10905389690E+02 -0.28318512111E+02  0.47787272629E+02  0.20000007226E+02 0.  0.
         12    1    1    2    0    0 -0.31028333565E+02  0.10905389690E+02  0.28318512111E+02  0.43400727371E+02  0.00000000000E+00 0. -1.
         11    1    3    3    0    0  0.15539808328E+02  0.25379238773E+01 -0.19049168344E+02  0.24714318023E+02  0.51100000000E-03 0. -1.
        -11    1    3    3    0    0  0.56469955269E+01 -0.22906158263E+01 -0.40170007494E+01  0.72987515800E+01  0.51100000000E-03 0.  1.
         12    1    3    3    0    0  0.98415297104E+01 -0.11152697741E+02 -0.52523430178E+01  0.15774203027E+02  0.00000000000E+00 0. -1.
</event>
<event>
 7    1  0.4723144E-009  0.4778728E+02  0.7816164E-02  0.1312668E+00
        -11   -1    0    0    0    0  0.00000000000E+00  0.00000000000E+00  0.45593999997E+02  0.45594000000E+02  0.51100000000E-03 0. -1.
         11   -1    0    0    0    0 -0.00000000000E+00 -0.00000000000E+00 -0.45593999997E+02  0.45594000000E+02  0.51100000000E-03 0.  1.
    9900012    2    1    2    0    0 -0.31773930916E+02  0.87894949969E+00 -0.29551102781E+02  0.47787275195E+02  0.20000018923E+02 0.  0.
         12    1    1    2    0    0  0.31773930916E+02 -0.87894949969E+00  0.29551102781E+02  0.43400724805E+02  0.00000000000E+00 0. -1.
         11    1    3    3    0    0 -0.50842169419E+00  0.10605087930E+01  0.92149239830E+00  0.14940950506E+01  0.51100000000E-03 0. -1.
        -11    1    3    3    0    0 -0.61248302684E+01  0.33839414690E+01 -0.15016432167E+02  0.16566769177E+02  0.51100000000E-03 0.  1.
        -12    1    3    3    0    0 -0.25140678953E+02 -0.35655007623E+01 -0.15456163012E+02  0.29726410967E+02  0.00000000000E+00 0.  1.
</event>
<event>
 7    1  0.4723144E-009  0.4778727E+02  0.7816164E-02  0.1312668E+00
        -11   -1    0    0    0    0  0.00000000000E+00  0.00000000000E+00  0.45593999997E+02  0.45594000000E+02  0.51100000000E-03 0.  1.
         11   -1    0    0    0    0 -0.00000000000E+00 -0.00000000000E+00 -0.45593999997E+02  0.45594000000E+02  0.51100000000E-03 0. -1.
    9900012    2    1    2    0    0  0.29875507013E+01 -0.34878021468E+02  0.25655833048E+02  0.47787267171E+02  0.19999982340E+02 0.  0.
         12    1    1    2    0    0 -0.29875507013E+01  0.34878021468E+02 -0.25655833048E+02  0.43400732829E+02  0.00000000000E+00 0. -1.
         11    1    3    3    0    0  0.61469513391E-01 -0.19081125809E+02  0.26597734402E+01  0.19265708802E+02  0.51100000000E-03 0. -1.
        -11    1    3    3    0    0 -0.11654354212E+01 -0.54397036781E+01  0.96598382079E+01  0.11147245861E+02  0.51100000000E-03 0.  1.
         12    1    3    3    0    0  0.40915166091E+01 -0.10357191980E+02  0.13336221400E+02  0.17374312508E+02  0.00000000000E+00 0. -1.
</event>
<event>
 7    1  0.4723144E-009  0.4778728E+02  0.7816164E-02  0.1312668E+00
        -11   -1    0    0    0    0  0.00000000000E+00  0.00000000000E+00  0.45593999997E+02  0.45594000000E+02  0.51100000000E-03 0.  1.
         11   -1    0    0    0    0 -0.00000000000E+00 -0.00000000000E+00 -0.45593999997E+02  0.45594000000E+02  0.51100000000E-03 0. -1.
    9900012    2    1    2    0    0  0.27859865118E+02  0.73077493443E+01  0.32466098964E+02  0.47787275734E+02  0.20000021384E+02 0.  0.
         12    1    1    2    0    0 -0.27859865118E+02 -0.73077493443E+01 -0.32466098964E+02  0.43400724266E+02  0.00000000000E+00 0. -1.
         11    1    3    3    0    0  0.64663329114E+01  0.93215560407E+01  0.15901596889E+02  0.19533705543E+02  0.51100000000E-03 0. -1.
        -11    1    3    3    0    0  0.16516505072E+02  0.13978480324E+01  0.98521203169E+01  0.19282458192E+02  0.51100000000E-03 0.  1.
        -12    1    3    3    0    0  0.48770271343E+01 -0.34116547288E+01  0.67123817573E+01  0.89711119998E+01  0.00000000000E+00 0.  1.
</event>
<event>
 7    1  0.4723144E-009  0.4778727E+02  0.7816164E-02  0.1312668E+00
        -11   -1    0    0    0    0  0.00000000000E+00  0.00000000000E+00  0.45593999997E+02  0.45594000000E+02  0.51100000000E-03 0. -1.
         11   -1    0    0    0    0 -0.00000000000E+00 -0.00000000000E+00 -0.45593999997E+02  0.45594000000E+02  0.51100000000E-03 0.  1.
    9900012    2    1    2    0    0 -0.24493405083E+02  0.33030869679E+02 -0.13880134209E+02  0.47787269937E+02  0.19999994951E+02 0.  0.
         12    1    1    2    0    0  0.24493405083E+02 -0.33030869679E+02  0.13880134209E+02  0.43400730063E+02  0.00000000000E+00 0. -1.
         11    1    3    3    0    0 -0.93552779066E+01  0.25605818688E+02 -0.88654534264E+01  0.28666625893E+02  0.51100000000E-03 0. -1.
        -11    1    3    3    0    0 -0.12147229584E+02  0.61166183949E+01 -0.70038525051E+01  0.15297782758E+02  0.51100000000E-03 0.  1.
         12    1    3    3    0    0 -0.29908975923E+01  0.13084325964E+01  0.19891717221E+01  0.38228612854E+01  0.00000000000E+00 0. -1.
</event>
<event>
 7    1  0.4723144E-009  0.4778727E+02  0.7816164E-02  0.1312668E+00
        -11   -1    0    0    0    0  0.00000000000E+00  0.00000000000E+00  0.45593999997E+02  0.45594000000E+02  0.51100000000E-03 0.  1.
         11   -1    0    0    0    0 -0.00000000000E+00 -0.00000000000E+00 -0.45593999997E+02  0.45594000000E+02  0.51100000000E-03 0. -1.
    9900012    2    1    2    0    0  0.57966628921E+01  0.32525065195E+02  0.28145015178E+02  0.47787273670E+02  0.20000011970E+02 0.  0.
         12    1    1    2    0    0 -0.57966628921E+01 -0.32525065195E+02 -0.28145015178E+02  0.43400726330E+02  0.00000000000E+00 0. -1.
         11    1    3    3    0    0 -0.19156864021E+01  0.96216837350E+01  0.23001736821E+01  0.10076579356E+02  0.51100000000E-03 0. -1.
        -11    1    3    3    0    0  0.33222958233E+01  0.51271862882E+01  0.15544611220E+02  0.16702114447E+02  0.51100000000E-03 0.  1.
        -12    1    3    3    0    0  0.43900534709E+01  0.17776195172E+02  0.10300230276E+02  0.21008579866E+02  0.00000000000E+00 0.  1.
</event>
<event>
 7    1  0.4723144E-009  0.4778729E+02  0.7816164E-02  0.1312668E+00
        -11   -1    0    0    0    0  0.00000000000E+00  0.00000000000E+00  0.45593999997E+02  0.45594000000E+02  0.51100000000E-03 0.  1.
         11   -1    0    0    0    0 -0.00000000000E+00 -0.00000000000E+00 -0.45593999997E+02  0.45594000000E+02  0.51100000000E-03 0. -1.
    9900012    2    1    2    0    0  0.29427206241E+02 -0.17965582163E+02  0.26360944391E+02  0.47787285734E+02  0.20000066974E+02 0.  0.
         12    1    1    2    0    0 -0.29427206241E+02  0.17965582163E+02 -0.26360944391E+02  0.43400714266E+02  0.00000000000E+00 0. -1.
         11    1    3    3    0    0  0.58141157468E+01 -0.93409103423E+01  0.84771051411E+01  0.13889487383E+02  0.51100000000E-03 0. -1.
        -11    1    3    3    0    0  0.17048811179E+02  0.40068256027E+00  0.14055678843E+02  0.22099425719E+02  0.51100000000E-03 0.  1.
         12    1    3    3    0    0  0.65642793157E+01 -0.90253543809E+01  0.38281604077E+01  0.11798372631E+02  0.00000000000E+00 0. -1.
</event>
<event>
 7    1  0.4723144E-009  0.4778726E+02  0.7816164E-02  0.1312668E+00
        -11   -1    0    0    0    0  0.00000000000E+00  0.00000000000E+00  0.45593999997E+02  0.45594000000E+02  0.51100000000E-03 0.  1.
         11   -1    0    0    0    0 -0.00000000000E+00 -0.00000000000E+00 -0.45593999997E+02  0.45594000000E+02  0.51100000000E-03 0. -1.
    9900012    2    1    2    0    0 -0.25401606522E+02  0.33463110157E+02  0.10890493063E+02  0.47787260439E+02  0.19999951647E+02 0.  0.
         12    1    1    2    0    0  0.25401606522E+02 -0.33463110157E+02 -0.10890493063E+02  0.43400739561E+02  0.00000000000E+00 0. -1.
         11    1    3    3    0    0 -0.73139238605E+01  0.21907651155E+02  0.66033968115E+01  0.24021729977E+02  0.51100000000E-03 0. -1.
        -11    1    3    3    0    0 -0.16741832689E+02  0.12992702531E+02  0.29758789239E+01  0.21399886366E+02  0.51100000000E-03 0.  1.
        -12    1    3    3    0    0 -0.13458499718E+01 -0.14372435291E+01  0.13112173280E+01  0.23656440962E+01  0.00000000000E+00 0.  1.
</event>
<event>
 7    1  0.4723144E-009  0.4778727E+02  0.7816164E-02  0.1312668E+00
        -11   -1    0    0    0    0  0.00000000000E+00  0.00000000000E+00  0.45593999997E+02  0.45594000000E+02  0.51100000000E-03 0. -1.
         11   -1    0    0    0    0 -0.00000000000E+00 -0.00000000000E+00 -0.45593999997E+02  0.45594000000E+02  0.51100000000E-03 0.  1.
    9900012    2    1    2    0    0  0.30674094490E+02 -0.30265496756E+02 -0.51694012970E+01  0.47787273319E+02  0.20000010370E+02 0.  0.
         12    1    1    2    0    0 -0.30674094490E+02  0.30265496756E+02  0.51694012970E+01  0.43400726681E+02  0.00000000000E+00 0. -1.
         11    1    3    3    0    0  0.72397886688E+01 -0.62481716516E+01 -0.62478642648E+01  0.11423221835E+02  0.51100000000E-03 0. -1.
        -11    1    3    3    0    0  0.16531398668E+02 -0.79355308993E+01  0.35856935211E+01  0.18684672618E+02  0.51100000000E-03 0.  1.
         12    1    3    3    0    0  0.69029071535E+01 -0.16081794205E+02 -0.25072305533E+01  0.17679378866E+02  0.00000000000E+00 0. -1.
</event>
<event>
 7    1  0.4723144E-009  0.4778730E+02  0.7816164E-02  0.1312668E+00
        -11   -1    0    0    0    0  0.00000000000E+00  0.00000000000E+00  0.45593999997E+02  0.45594000000E+02  0.51100000000E-03 0.  1.
         11   -1    0    0    0    0 -0.00000000000E+00 -0.00000000000E+00 -0.45593999997E+02  0.45594000000E+02  0.51100000000E-03 0. -1.
    9900012    2    1    2    0    0 -0.41559526463E+02 -0.39072902673E+00 -0.12500951902E+02  0.47787300611E+02  0.20000134805E+02 0.  0.
         12    1    1    2    0    0  0.41559526463E+02  0.39072902673E+00  0.12500951902E+02  0.43400699389E+02  0.00000000000E+00 0. -1.
         11    1    3    3    0    0 -0.20937752307E+02 -0.14150865501E+01  0.34916110921E+01  0.21274005028E+02  0.51100000000E-03 0. -1.
        -11    1    3    3    0    0 -0.57905660230E+01 -0.48641378795E+00 -0.22304802313E+01  0.62243309329E+01  0.51100000000E-03 0.  1.
         12    1    3    3    0    0 -0.14831208133E+02  0.15107713113E+01 -0.13762082762E+02  0.20288964650E+02  0.00000000000E+00 0. -1.
</event>
<event>
 7    1  0.4723144E-009  0.4778726E+02  0.7816164E-02  0.1312668E+00
        -11   -1    0    0    0    0  0.00000000000E+00  0.00000000000E+00  0.45593999997E+02  0.45594000000E+02  0.51100000000E-03 0.  1.
         11   -1    0    0    0    0 -0.00000000000E+00 -0.00000000000E+00 -0.45593999997E+02  0.45594000000E+02  0.51100000000E-03 0. -1.
    9900012    2    1    2    0    0 -0.17841450833E+02 -0.12090345279E+02  0.37671348648E+02  0.47787258926E+02  0.19999944748E+02 0.  0.
         12    1    1    2    0    0  0.17841450833E+02  0.12090345279E+02 -0.37671348648E+02  0.43400741074E+02  0.00000000000E+00 0. -1.
         11    1    3    3    0    0 -0.11987754197E+02 -0.57734026919E+01  0.10230426389E+02  0.16783922476E+02  0.51100000000E-03 0. -1.
        -11    1    3    3    0    0 -0.47701236124E+01 -0.70687985505E+01  0.28213995834E+02  0.29474591658E+02  0.51100000000E-03 0.  1.
        -12    1    3    3    0    0 -0.10835730238E+01  0.75185596367E+00 -0.77307357454E+00  0.15287447922E+01  0.00000000000E+00 0.  1.
</event>
<event>
 7    1  0.4723144E-009  0.4778727E+02  0.7816164E-02  0.1312668E+00
        -11   -1    0    0    0    0  0.00000000000E+00  0.00000000000E+00  0.45593999997E+02  0.45594000000E+02  0.51100000000E-03 0.  1.
         11   -1    0    0    0    0 -0.00000000000E+00 -0.00000000000E+00 -0.45593999997E+02  0.45594000000E+02  0.51100000000E-03 0. -1.
    9900012    2    1    2    0    0  0.25088864798E+02 -0.10230143028E+02  0.33904514982E+02  0.47787273054E+02  0.20000009165E+02 0.  0.
         12    1    1    2    0    0 -0.25088864798E+02  0.10230143028E+02 -0.33904514982E+02  0.43400726946E+02  0.00000000000E+00 0. -1.
         11    1    3    3    0    0  0.14948522885E+01 -0.42745900625E+01  0.10195148438E+02  0.11155615425E+02  0.51100000000E-03 0. -1.
        -11    1    3    3    0    0  0.22832152750E+02 -0.65157533511E+01  0.15471162200E+02  0.28339356044E+02  0.51100000000E-03 0.  1.
        -12    1    3    3    0    0  0.76185975936E+00  0.56020038593E+00  0.82382043443E+01  0.82923015854E+01  0.00000000000E+00 0.  1.
</event>
<event>
 7    1  0.4723144E-009  0.4778726E+02  0.7816164E-02  0.1312668E+00
        -11   -1    0    0    0    0  0.00000000000E+00  0.00000000000E+00  0.45593999997E+02  0.45594000000E+02  0.51100000000E-03 0. -1.
         11   -1    0    0    0    0 -0.00000000000E+00 -0.00000000000E+00 -0.45593999997E+02  0.45594000000E+02  0.51100000000E-03 0.  1.
    9900012    2    1    2    0    0  0.15815775448E+02  0.26792341286E+02 -0.30259803960E+02  0.47787262215E+02  0.19999959742E+02 0.  0.
         12    1    1    2    0    0 -0.15815775448E+02 -0.26792341286E+02  0.30259803960E+02  0.43400737785E+02  0.00000000000E+00 0. -1.
         11    1    3    3    0    0 -0.12836879132E+01  0.75488373589E+01 -0.15037249258E+02  0.16874586384E+02  0.51100000000E-03 0. -1.
        -11    1    3    3    0    0  0.12615143664E+02  0.10473476478E+02 -0.12714588160E+02  0.20748405036E+02  0.51100000000E-03 0.  1.
        -12    1    3    3    0    0  0.44843196967E+01  0.87700274498E+01 -0.25079665418E+01  0.10164270795E+02  0.00000000000E+00 0.  1.
</event>
<event>
 7    1  0.4723144E-009  0.4778727E+02  0.7816164E-02  0.1312668E+00
        -11   -1    0    0    0    0  0.00000000000E+00  0.00000000000E+00  0.45593999997E+02  0.45594000000E+02  0.51100000000E-03 0.  1.
         11   -1    0    0    0    0 -0.00000000000E+00 -0.00000000000E+00 -0.45593999997E+02  0.45594000000E+02  0.51100000000E-03 0. -1.
    9900012    2    1    2    0    0 -0.33743229673E+02  0.84118771572E+01  0.25966480095E+02  0.47787270576E+02  0.19999997862E+02 0.  0.
         12    1    1    2    0    0  0.33743229673E+02 -0.84118771572E+01 -0.25966480095E+02  0.43400729424E+02  0.00000000000E+00 0. -1.
         11    1    3    3    0    0  0.48092057385E+00  0.14013100995E+00  0.15662062890E+01  0.16443611827E+01  0.51100000000E-03 0. -1.
        -11    1    3    3    0    0 -0.14804480241E+02 -0.29736056036E+01  0.16464504813E+02  0.22340431609E+02  0.51100000000E-03 0.  1.
        -12    1    3    3    0    0 -0.19419670006E+02  0.11245351751E+02  0.79357689930E+01  0.23802477784E+02  0.00000000000E+00 0.  1.
</event>
<event>
 7    1  0.4723144E-009  0.4778727E+02  0.7816164E-02  0.1312668E+00
        -11   -1    0    0    0    0  0.00000000000E+00  0.00000000000E+00  0.45593999997E+02  0.45594000000E+02  0.51100000000E-03 0.  1.
         11   -1    0    0    0    0 -0.00000000000E+00 -0.00000000000E+00 -0.45593999997E+02  0.45594000000E+02  0.51100000000E-03 0. -1.
    9900012    2    1    2    0    0  0.33771247987E+02  0.25629016049E+02 -0.92886947605E+01  0.47787268386E+02  0.19999987881E+02 0.  0.
         12    1    1    2    0    0 -0.33771247987E+02 -0.25629016049E+02  0.92886947605E+01  0.43400731614E+02  0.00000000000E+00 0. -1.
         11    1    3    3    0    0  0.32221580034E+02  0.26642008495E+02 -0.97654638303E+01  0.42934730937E+02  0.51100000000E-03 0.  1.
        -11    1    3    3    0    0  0.50181381470E+00 -0.10254818568E+01  0.24025974395E+01  0.26600573040E+01  0.51100000000E-03 0. -1.
        -12    1    3    3    0    0  0.10478541382E+01  0.12489410921E-01 -0.19258283696E+01  0.21924801458E+01  0.00000000000E+00 0.  1.
</event>
<event>
 7    1  0.4723144E-009  0.4778733E+02  0.7816164E-02  0.1312668E+00
        -11   -1    0    0    0    0  0.00000000000E+00  0.00000000000E+00  0.45593999997E+02  0.45594000000E+02  0.51100000000E-03 0. -1.
         11   -1    0    0    0    0 -0.00000000000E+00 -0.00000000000E+00 -0.45593999997E+02  0.45594000000E+02  0.51100000000E-03 0.  1.
    9900012    2    1    2    0    0  0.21122864694E+02  0.23321893839E+02 -0.29892012118E+02  0.47787325656E+02  0.20000248993E+02 0.  0.
         12    1    1    2    0    0 -0.21122864694E+02 -0.23321893839E+02  0.29892012118E+02  0.43400674344E+02  0.00000000000E+00 0. -1.
         11    1    3    3    0    0  0.11404126028E+02  0.63838165004E+01 -0.83182067346E+01  0.15491925869E+02  0.51100000000E-03 0. -1.
        -11    1    3    3    0    0  0.15574280690E+01  0.15682380749E+02 -0.14706175841E+02  0.21555376505E+02  0.51100000000E-03 0.  1.
        -12    1    3    3    0    0  0.81613105963E+01  0.12556965897E+01 -0.68676295417E+01  0.10740023282E+02  0.00000000000E+00 0.  1.
</event>
<event>
 7    1  0.4723144E-009  0.4778727E+02  0.7816164E-02  0.1312668E+00
        -11   -1    0    0    0    0  0.00000000000E+00  0.00000000000E+00  0.45593999997E+02  0.45594000000E+02  0.51100000000E-03 0.  1.
         11   -1    0    0    0    0 -0.00000000000E+00 -0.00000000000E+00 -0.45593999997E+02  0.45594000000E+02  0.51100000000E-03 0. -1.
    9900012    2    1    2    0    0  0.12247751982E+02 -0.48255866731E+01  0.41356131296E+02  0.47787270615E+02  0.19999998042E+02 0.  0.
         12    1    1    2    0    0 -0.12247751982E+02  0.48255866731E+01 -0.41356131296E+02  0.43400729385E+02  0.00000000000E+00 0. -1.
         11    1    3    3    0    0  0.85979699675E+01 -0.40550310427E+01  0.40118821254E+02  0.41229700258E+02  0.51100000000E-03 0.  1.
        -11    1    3    3    0    0 -0.80365052157E+00 -0.96394174054E+00 -0.96734322746E+00  0.15845475761E+01  0.51100000000E-03 0. -1.
        -12    1    3    3    0    0  0.44534325356E+01  0.19338611016E+00  0.22046532698E+01  0.49730227806E+01  0.00000000000E+00 0.  1.
</event>
<event>
 7    1  0.4723144E-009  0.4778727E+02  0.7816164E-02  0.1312668E+00
        -11   -1    0    0    0    0  0.00000000000E+00  0.00000000000E+00  0.45593999997E+02  0.45594000000E+02  0.51100000000E-03 0.  1.
         11   -1    0    0    0    0 -0.00000000000E+00 -0.00000000000E+00 -0.45593999997E+02  0.45594000000E+02  0.51100000000E-03 0. -1.
    9900012    2    1    2    0    0  0.13468098295E+00  0.34999372632E+02  0.25664165418E+02  0.47787267170E+02  0.19999982335E+02 0.  0.
         12    1    1    2    0    0 -0.13468098295E+00 -0.34999372632E+02 -0.25664165418E+02  0.43400732830E+02  0.00000000000E+00 0. -1.
         11    1    3    3    0    0 -0.42206642351E+01  0.12719496740E+01  0.65033863477E+01  0.78565830236E+01  0.51100000000E-03 0. -1.
        -11    1    3    3    0    0  0.41651389424E+01  0.23221119217E+02  0.17309847522E+02  0.29260888258E+02  0.51100000000E-03 0.  1.
         12    1    3    3    0    0  0.19020627569E+00  0.10506303741E+02  0.18509315478E+01  0.10669795889E+02  0.00000000000E+00 0. -1.
</event>
<event>
 7    1  0.4723144E-009  0.4778727E+02  0.7816164E-02  0.1312668E+00
        -11   -1    0    0    0    0  0.00000000000E+00  0.00000000000E+00  0.45593999997E+02  0.45594000000E+02  0.51100000000E-03 0.  1.
         11   -1    0    0    0    0 -0.00000000000E+00 -0.00000000000E+00 -0.45593999997E+02  0.45594000000E+02  0.51100000000E-03 0. -1.
    9900012    2    1    2    0    0  0.70934448297E+01 -0.35176018505E+02  0.24412163429E+02  0.47787274653E+02  0.20000016452E+02 0.  0.
         12    1    1    2    0    0 -0.70934448297E+01  0.35176018505E+02 -0.24412163429E+02  0.43400725347E+02  0.00000000000E+00 0. -1.
         11    1    3    3    0    0  0.17873477485E+01 -0.14157033389E+02  0.29551436871E+01  0.14572202332E+02  0.51100000000E-03 0. -1.
        -11    1    3    3    0    0 -0.52617418740E+00 -0.54117441131E+01  0.13889155928E+02  0.14915511600E+02  0.51100000000E-03 0.  1.
        -12    1    3    3    0    0  0.58322712686E+01 -0.15607241003E+02  0.75678638137E+01  0.18299560721E+02  0.00000000000E+00 0.  1.
</event>
<event>
 7    1  0.4723144E-009  0.4778727E+02  0.7816164E-02  0.1312668E+00
        -11   -1    0    0    0    0  0.00000000000E+00  0.00000000000E+00  0.45593999997E+02  0.45594000000E+02  0.51100000000E-03 0. -1.
         11   -1    0    0    0    0 -0.00000000000E+00 -0.00000000000E+00 -0.45593999997E+02  0.45594000000E+02  0.51100000000E-03 0.  1.
    9900012    2    1    2    0    0 -0.34456086192E+02 -0.26236618335E+02 -0.28357526229E+01  0.47787268321E+02  0.19999987584E+02 0.  0.
         12    1    1    2    0    0  0.34456086192E+02  0.26236618335E+02  0.28357526229E+01  0.43400731679E+02  0.00000000000E+00 0. -1.
         11    1    3    3    0    0 -0.50651034129E+01 -0.11008245225E+02  0.39909751601E+01  0.12757923753E+02  0.51100000000E-03 0. -1.
        -11    1    3    3    0    0 -0.19936473970E+02 -0.52608069911E+01 -0.41909498133E+01  0.21040511998E+02  0.51100000000E-03 0.  1.
         12    1    3    3    0    0 -0.94545088094E+01 -0.99675661190E+01 -0.26357779697E+01  0.13988832570E+02  0.00000000000E+00 0. -1.
</event>
<event>
 7    1  0.4723144E-009  0.4778727E+02  0.7816164E-02  0.1312668E+00
        -11   -1    0    0    0    0  0.00000000000E+00  0.00000000000E+00  0.45593999997E+02  0.45594000000E+02  0.51100000000E-03 0.  1.
         11   -1    0    0    0    0 -0.00000000000E+00 -0.00000000000E+00 -0.45593999997E+02  0.45594000000E+02  0.51100000000E-03 0. -1.
    9900012    2    1    2    0    0 -0.15628081182E+01  0.12007379355E+02  0.41677380059E+02  0.47787268016E+02  0.19999986192E+02 0.  0.
         12    1    1    2    0    0  0.15628081182E+01 -0.12007379355E+02 -0.41677380059E+02  0.43400731984E+02  0.00000000000E+00 0. -1.
         11    1    3    3    0    0 -0.10503327663E+01 -0.22829778423E+01  0.10949539123E+02  0.11234215327E+02  0.51100000000E-03 0. -1.
        -11    1    3    3    0    0 -0.36727057195E+01  0.11801595295E+02  0.30025097571E+02  0.32469568879E+02  0.51100000000E-03 0.  1.
        -12    1    3    3    0    0  0.31602303676E+01  0.24887619028E+01  0.70274336437E+00  0.40834838093E+01  0.00000000000E+00 0.  1.
</event>
<event>
 7    1  0.4723144E-009  0.4778727E+02  0.7816164E-02  0.1312668E+00
        -11   -1    0    0    0    0  0.00000000000E+00  0.00000000000E+00  0.45593999997E+02  0.45594000000E+02  0.51100000000E-03 0.  1.
         11   -1    0    0    0    0 -0.00000000000E+00 -0.00000000000E+00 -0.45593999997E+02  0.45594000000E+02  0.51100000000E-03 0. -1.
    9900012    2    1    2    0    0  0.12480687751E+02 -0.41504932063E+02 -0.22795809405E+01  0.47787269113E+02  0.19999991192E+02 0.  0.
         12    1    1    2    0    0 -0.12480687751E+02  0.41504932063E+02  0.22795809405E+01  0.43400730887E+02  0.00000000000E+00 0. -1.
         11    1    3    3    0    0  0.10187066219E+02 -0.36122368966E+02 -0.24330072921E+01  0.37610123406E+02  0.51100000000E-03 0. -1.
        -11    1    3    3    0    0  0.14338430009E+01 -0.46279470577E+01 -0.37390864397E+01  0.61200136752E+01  0.51100000000E-03 0.  1.
         12    1    3    3    0    0  0.85977853118E+00 -0.75461603897E+00  0.38925127913E+01  0.40571320313E+01  0.00000000000E+00 0. -1.
</event>
<event>
 7    1  0.4723144E-009  0.4778728E+02  0.7816164E-02  0.1312668E+00
        -11   -1    0    0    0    0  0.00000000000E+00  0.00000000000E+00  0.45593999997E+02  0.45594000000E+02  0.51100000000E-03 0. -1.
         11   -1    0    0    0    0 -0.00000000000E+00 -0.00000000000E+00 -0.45593999997E+02  0.45594000000E+02  0.51100000000E-03 0.  1.
    9900012    2    1    2    0    0 -0.39554762651E+01  0.17528089909E+02 -0.39506241103E+02  0.47787276337E+02  0.20000024132E+02 0.  0.
         12    1    1    2    0    0  0.39554762651E+01 -0.17528089909E+02  0.39506241103E+02  0.43400723663E+02  0.00000000000E+00 0. -1.
         11    1    3    3    0    0  0.55564863845E+01  0.68772516482E+01 -0.16844027545E+02  0.19023469594E+02  0.51100000000E-03 0. -1.
        -11    1    3    3    0    0  0.98208852379E+00  0.12352137834E+01 -0.89792351952E+01  0.91168479153E+01  0.51100000000E-03 0.  1.
         12    1    3    3    0    0 -0.10494051173E+02  0.94156244769E+01 -0.13682978363E+02  0.19646958828E+02  0.00000000000E+00 0. -1.
</event>
<event>
 7    1  0.4723144E-009  0.4778727E+02  0.7816164E-02  0.1312668E+00
        -11   -1    0    0    0    0  0.00000000000E+00  0.00000000000E+00  0.45593999997E+02  0.45594000000E+02  0.51100000000E-03 0.  1.
         11   -1    0    0    0    0 -0.00000000000E+00 -0.00000000000E+00 -0.45593999997E+02  0.45594000000E+02  0.51100000000E-03 0. -1.
    9900012    2    1    2    0    0 -0.13884508470E+02 -0.30692582448E+02 -0.27364371325E+02  0.47787274075E+02  0.20000013818E+02 0.  0.
         12    1    1    2    0    0  0.13884508470E+02  0.30692582448E+02  0.27364371325E+02  0.43400725925E+02  0.00000000000E+00 0. -1.
         11    1    3    3    0    0 -0.88383515821E+01 -0.18494951470E+02 -0.64763047151E+01  0.21497027971E+02  0.51100000000E-03 0. -1.
        -11    1    3    3    0    0 -0.33067790126E+01 -0.10483598802E+02 -0.21148057826E+02  0.23834449466E+02  0.51100000000E-03 0.  1.
        -12    1    3    3    0    0 -0.17393778753E+01 -0.17140321757E+01  0.25999121634E+00  0.24557966375E+01  0.00000000000E+00 0.  1.
</event>
<event>
 7    1  0.4723144E-009  0.4778727E+02  0.7816164E-02  0.1312668E+00
        -11   -1    0    0    0    0  0.00000000000E+00  0.00000000000E+00  0.45593999997E+02  0.45594000000E+02  0.51100000000E-03 0.  1.
         11   -1    0    0    0    0 -0.00000000000E+00 -0.00000000000E+00 -0.45593999997E+02  0.45594000000E+02  0.51100000000E-03 0. -1.
    9900012    2    1    2    0    0  0.19290502639E+01 -0.23760721851E+02  0.36267480075E+02  0.47787271334E+02  0.20000001319E+02 0.  0.
         12    1    1    2    0    0 -0.19290502639E+01  0.23760721851E+02 -0.36267480075E+02  0.43400728666E+02  0.00000000000E+00 0. -1.
         11    1    3    3    0    0  0.10832330093E+01  0.66809088863E-01  0.32885139518E+01  0.34629729250E+01  0.51100000000E-03 0.  1.
        -11    1    3    3    0    0  0.51337524626E+01 -0.81363775880E+01  0.27653713553E+01  0.10010161517E+02  0.51100000000E-03 0. -1.
        -12    1    3    3    0    0 -0.42879352080E+01 -0.15691153352E+02  0.30213594768E+02  0.34314136892E+02  0.00000000000E+00 0.  1.
</event>
<event>
 7    1  0.4723144E-009  0.4778729E+02  0.7816164E-02  0.1312668E+00
        -11   -1    0    0    0    0  0.00000000000E+00  0.00000000000E+00  0.45593999997E+02  0.45594000000E+02  0.51100000000E-03 0.  1.
         11   -1    0    0    0    0 -0.00000000000E+00 -0.00000000000E+00 -0.45593999997E+02  0.45594000000E+02  0.51100000000E-03 0. -1.
    9900012    2    1    2    0    0 -0.33461065594E+02  0.34087167429E+00  0.27638067671E+02  0.47787287002E+02  0.20000072756E+02 0.  0.
         12    1    1    2    0    0  0.33461065594E+02 -0.34087167429E+00 -0.27638067671E+02  0.43400712998E+02  0.00000000000E+00 0. -1.
         11    1    3    3    0    0 -0.37638646571E+01 -0.25121174450E+01 -0.35369662178E+00  0.45389990941E+01  0.51100000000E-03 0. -1.
        -11    1    3    3    0    0 -0.19010897486E+02 -0.37950797797E+01  0.11633135929E+02  0.22608553814E+02  0.51100000000E-03 0.  1.
        -12    1    3    3    0    0 -0.10686303451E+02  0.66480688990E+01  0.16358628363E+02  0.20639734094E+02  0.00000000000E+00 0.  1.
</event>
<event>
 7    1  0.4723144E-009  0.4778727E+02  0.7816164E-02  0.1312668E+00
        -11   -1    0    0    0    0  0.00000000000E+00  0.00000000000E+00  0.45593999997E+02  0.45594000000E+02  0.51100000000E-03 0. -1.
         11   -1    0    0    0    0 -0.00000000000E+00 -0.00000000000E+00 -0.45593999997E+02  0.45594000000E+02  0.51100000000E-03 0.  1.
    9900012    2    1    2    0    0  0.29014619678E+02 -0.11374225887E+02 -0.30205994580E+02  0.47787270994E+02  0.19999999772E+02 0.  0.
         12    1    1    2    0    0 -0.29014619678E+02  0.11374225887E+02  0.30205994580E+02  0.43400729006E+02  0.00000000000E+00 0. -1.
         11    1    3    3    0    0  0.15102659959E+01 -0.29111213659E+01 -0.45237353154E+01  0.55874602862E+01  0.51100000000E-03 0. -1.
        -11    1    3    3    0    0  0.21349885032E+02 -0.54255644437E+01 -0.27368501903E+02  0.35132452762E+02  0.51100000000E-03 0.  1.
        -12    1    3    3    0    0  0.61544686507E+01 -0.30375400778E+01  0.16862426384E+01  0.70673579457E+01  0.00000000000E+00 0.  1.
</event>
<event>
 7    1  0.4723144E-009  0.4778730E+02  0.7816164E-02  0.1312668E+00
        -11   -1    0    0    0    0  0.00000000000E+00  0.00000000000E+00  0.45593999997E+02  0.45594000000E+02  0.51100000000E-03 0.  1.
         11   -1    0    0    0    0 -0.00000000000E+00 -0.00000000000E+00 -0.45593999997E+02  0.45594000000E+02  0.51100000000E-03 0. -1.
    9900012    2    1    2    0    0  0.12494513107E+02  0.42705108350E+01  0.41343324803E+02  0.47787301545E+02  0.20000139066E+02 0.  0.
         12    1    1    2    0    0 -0.12494513107E+02 -0.42705108350E+01 -0.41343324803E+02  0.43400698455E+02  0.00000000000E+00 0. -1.
         11    1    3    3    0    0 -0.58195745031E+00  0.24031706009E+01 -0.75453080122E+00  0.25851925271E+01  0.51100000000E-03 0. -1.
        -11    1    3    3    0    0  0.11874392923E+02 -0.14096593717E+01  0.24511875407E+02  0.27273070657E+02  0.51100000000E-03 0.  1.
         12    1    3    3    0    0  0.12020776336E+01  0.32769996058E+01  0.17585980198E+02  0.17929038362E+02  0.00000000000E+00 0. -1.
</event>
<event>
 7    1  0.4723144E-009  0.4778725E+02  0.7816164E-02  0.1312668E+00
        -11   -1    0    0    0    0  0.00000000000E+00  0.00000000000E+00  0.45593999997E+02  0.45594000000E+02  0.51100000000E-03 0.  1.
         11   -1    0    0    0    0 -0.00000000000E+00 -0.00000000000E+00 -0.45593999997E+02  0.45594000000E+02  0.51100000000E-03 0. -1.
    9900012    2    1    2    0    0  0.12981831662E+02 -0.28127654202E+02  0.30396254307E+02  0.47787249315E+02  0.19999900925E+02 0.  0.
         12    1    1    2    0    0 -0.12981831662E+02  0.28127654202E+02 -0.30396254307E+02  0.43400750685E+02  0.00000000000E+00 0. -1.
         11    1    3    3    0    0  0.32481361884E+01 -0.10754982701E+01  0.10641618662E+01  0.35832284278E+01  0.51100000000E-03 0. -1.
        -11    1    3    3    0    0  0.12580266644E+02 -0.21892000850E+02  0.16721008008E+02  0.30283905282E+02  0.51100000000E-03 0.  1.
        -12    1    3    3    0    0 -0.28465711707E+01 -0.51601550817E+01  0.12611084432E+02  0.13920115605E+02  0.00000000000E+00 0.  1.
</event>
<event>
 7    1  0.4723144E-009  0.4778728E+02  0.7816164E-02  0.1312668E+00
        -11   -1    0    0    0    0  0.00000000000E+00  0.00000000000E+00  0.45593999997E+02  0.45594000000E+02  0.51100000000E-03 0.  1.
         11   -1    0    0    0    0 -0.00000000000E+00 -0.00000000000E+00 -0.45593999997E+02  0.45594000000E+02  0.51100000000E-03 0. -1.
    9900012    2    1    2    0    0  0.42803615293E+02  0.71706628612E+01  0.23332617475E+00  0.47787281929E+02  0.20000049626E+02 0.  0.
         12    1    1    2    0    0 -0.42803615293E+02 -0.71706628612E+01 -0.23332617475E+00  0.43400718071E+02  0.00000000000E+00 0. -1.
         11    1    3    3    0    0  0.22158481230E+02  0.62924228898E+01 -0.10859492410E+01  0.23060185651E+02  0.51100000000E-03 0. -1.
        -11    1    3    3    0    0  0.69836337712E+01 -0.61573371108E+01  0.91204304781E+00  0.93549860357E+01  0.51100000000E-03 0.  1.
        -12    1    3    3    0    0  0.13661500291E+02  0.70355770823E+01  0.40723236797E+00  0.15372110242E+02  0.00000000000E+00 0.  1.
</event>
<event>
 7    1  0.4723144E-009  0.4778727E+02  0.7816164E-02  0.1312668E+00
        -11   -1    0    0    0    0  0.00000000000E+00  0.00000000000E+00  0.45593999997E+02  0.45594000000E+02  0.51100000000E-03 0.  1.
         11   -1    0    0    0    0 -0.00000000000E+00 -0.00000000000E+00 -0.45593999997E+02  0.45594000000E+02  0.51100000000E-03 0. -1.
    9900012    2    1    2    0    0 -0.23347817065E+02  0.34583645025E+02  0.11936251553E+02  0.47787272287E+02  0.20000005664E+02 0.  0.
         12    1    1    2    0    0  0.23347817065E+02 -0.34583645025E+02 -0.11936251553E+02  0.43400727713E+02  0.00000000000E+00 0. -1.
         11    1    3    3    0    0 -0.95782461862E+01  0.23414368518E+02  0.38402598047E+01  0.25587556522E+02  0.51100000000E-03 0. -1.
        -11    1    3    3    0    0 -0.22534005008E+01 -0.13142922725E+01 -0.11624715910E+01  0.28559619143E+01  0.51100000000E-03 0.  1.
         12    1    3    3    0    0 -0.11516170378E+02  0.12483568779E+02  0.92584633393E+01  0.19343753851E+02  0.00000000000E+00 0. -1.
</event>
<event>
 7    1  0.4723144E-009  0.4778727E+02  0.7816164E-02  0.1312668E+00
        -11   -1    0    0    0    0  0.00000000000E+00  0.00000000000E+00  0.45593999997E+02  0.45594000000E+02  0.51100000000E-03 0.  1.
         11   -1    0    0    0    0 -0.00000000000E+00 -0.00000000000E+00 -0.45593999997E+02  0.45594000000E+02  0.51100000000E-03 0. -1.
    9900012    2    1    2    0    0 -0.54005529050E+01 -0.98007332356E+01  0.41933312102E+02  0.47787274114E+02  0.20000013994E+02 0.  0.
         12    1    1    2    0    0  0.54005529050E+01  0.98007332356E+01 -0.41933312102E+02  0.43400725886E+02  0.00000000000E+00 0. -1.
         11    1    3    3    0    0 -0.17172715599E+01 -0.13987350925E+02  0.18680382103E+02  0.23399822292E+02  0.51100000000E-03 0. -1.
        -11    1    3    3    0    0  0.78920297283E-01  0.33798011109E+01  0.86805473407E+01  0.93156420261E+01  0.51100000000E-03 0.  1.
        -12    1    3    3    0    0 -0.37622016424E+01  0.80681657868E+00  0.14572382658E+02  0.15071809796E+02  0.00000000000E+00 0.  1.
</event>
<event>
 7    1  0.4723144E-009  0.4778727E+02  0.7816164E-02  0.1312668E+00
        -11   -1    0    0    0    0  0.00000000000E+00  0.00000000000E+00  0.45593999997E+02  0.45594000000E+02  0.51100000000E-03 0.  1.
         11   -1    0    0    0    0 -0.00000000000E+00 -0.00000000000E+00 -0.45593999997E+02  0.45594000000E+02  0.51100000000E-03 0. -1.
    9900012    2    1    2    0    0  0.28830032624E+01  0.32000317179E+02  0.29176894661E+02  0.47787272018E+02  0.20000004438E+02 0.  0.
         12    1    1    2    0    0 -0.28830032624E+01 -0.32000317179E+02 -0.29176894661E+02  0.43400727982E+02  0.00000000000E+00 0. -1.
         11    1    3    3    0    0 -0.11455075094E+01  0.29031248072E+01 -0.19849625770E+01  0.36987021769E+01  0.51100000000E-03 0. -1.
        -11    1    3    3    0    0  0.43224084931E+01  0.29839548365E+02  0.29210436548E+02  0.41980131794E+02  0.51100000000E-03 0.  1.
        -12    1    3    3    0    0 -0.29389772133E+00 -0.74235599358E+00  0.19514206892E+01  0.21084380470E+01  0.00000000000E+00 0.  1.
</event>
<event>
 7    1  0.4723144E-009  0.4778727E+02  0.7816164E-02  0.1312668E+00
        -11   -1    0    0    0    0  0.00000000000E+00  0.00000000000E+00  0.45593999997E+02  0.45594000000E+02  0.51100000000E-03 0.  1.
         11   -1    0    0    0    0 -0.00000000000E+00 -0.00000000000E+00 -0.45593999997E+02  0.45594000000E+02  0.51100000000E-03 0. -1.
    9900012    2    1    2    0    0  0.42931240320E+02  0.35640746501E+01 -0.52753663323E+01  0.47787268284E+02  0.19999987416E+02 0.  0.
         12    1    1    2    0    0 -0.42931240320E+02 -0.35640746501E+01  0.52753663323E+01  0.43400731716E+02  0.00000000000E+00 0. -1.
         11    1    3    3    0    0  0.82022056307E+01  0.68282742351E+01 -0.10694209332E+01  0.10725911040E+02  0.51100000000E-03 0. -1.
        -11    1    3    3    0    0  0.48792214297E+01 -0.26375934804E+01  0.30585289147E+01  0.63339008922E+01  0.51100000000E-03 0.  1.
         12    1    3    3    0    0  0.29849813260E+02 -0.62660610460E+00 -0.72644743139E+01  0.30727456352E+02  0.00000000000E+00 0. -1.
</event>
<event>
 7    1  0.4723144E-009  0.4778727E+02  0.7816164E-02  0.1312668E+00
        -11   -1    0    0    0    0  0.00000000000E+00  0.00000000000E+00  0.45593999997E+02  0.45594000000E+02  0.51100000000E-03 0.  1.
         11   -1    0    0    0    0 -0.00000000000E+00 -0.00000000000E+00 -0.45593999997E+02  0.45594000000E+02  0.51100000000E-03 0. -1.
    9900012    2    1    2    0    0  0.84639891396E+01 -0.27623368983E+02  0.32387247867E+02  0.47787269009E+02  0.19999990721E+02 0.  0.
         12    1    1    2    0    0 -0.84639891396E+01  0.27623368983E+02 -0.32387247867E+02  0.43400730991E+02  0.00000000000E+00 0. -1.
         11    1    3    3    0    0  0.88734627784E+00  0.67951525819E+00  0.43810582189E+01  0.45213710069E+01  0.51100000000E-03 0. -1.
        -11    1    3    3    0    0  0.78234463919E+01 -0.29307253304E+02  0.28901687123E+02  0.41897839186E+02  0.51100000000E-03 0.  1.
        -12    1    3    3    0    0 -0.24680353018E+00  0.10043690628E+01 -0.89549747486E+00  0.13680588161E+01  0.00000000000E+00 0.  1.
</event>
<event>
 7    1  0.4723144E-009  0.4778727E+02  0.7816164E-02  0.1312668E+00
        -11   -1    0    0    0    0  0.00000000000E+00  0.00000000000E+00  0.45593999997E+02  0.45594000000E+02  0.51100000000E-03 0.  1.
         11   -1    0    0    0    0 -0.00000000000E+00 -0.00000000000E+00 -0.45593999997E+02  0.45594000000E+02  0.51100000000E-03 0. -1.
    9900012    2    1    2    0    0  0.25905380053E+02 -0.13413796805E+02  0.32134173410E+02  0.47787265431E+02  0.19999974406E+02 0.  0.
         12    1    1    2    0    0 -0.25905380053E+02  0.13413796805E+02 -0.32134173410E+02  0.43400734569E+02  0.00000000000E+00 0. -1.
         11    1    3    3    0    0  0.14299182787E+02 -0.18029145723E+01  0.55598505657E+01  0.15447623374E+02  0.51100000000E-03 0. -1.
        -11    1    3    3    0    0  0.40961135984E+01  0.51092771840E+00  0.50853574829E+01  0.65498133359E+01  0.51100000000E-03 0.  1.
         12    1    3    3    0    0  0.75100836680E+01 -0.12121809951E+02  0.21488965361E+02  0.25789828721E+02  0.00000000000E+00 0. -1.
</event>
<event>
 7    1  0.4723144E-009  0.4778727E+02  0.7816164E-02  0.1312668E+00
        -11   -1    0    0    0    0  0.00000000000E+00  0.00000000000E+00  0.45593999997E+02  0.45594000000E+02  0.51100000000E-03 0.  1.
         11   -1    0    0    0    0 -0.00000000000E+00 -0.00000000000E+00 -0.45593999997E+02  0.45594000000E+02  0.51100000000E-03 0. -1.
    9900012    2    1    2    0    0 -0.42529444831E+02 -0.71938904081E+01  0.48080667738E+01  0.47787271401E+02  0.20000001627E+02 0.  0.
         12    1    1    2    0    0  0.42529444831E+02  0.71938904081E+01 -0.48080667738E+01  0.43400728599E+02  0.00000000000E+00 0. -1.
         11    1    3    3    0    0 -0.38071519595E+01 -0.58187089447E+01  0.34175652940E+01  0.77480018473E+01  0.51100000000E-03 0. -1.
        -11    1    3    3    0    0 -0.29419321357E+02 -0.42429653258E+01 -0.18444554154E+01  0.29780887158E+02  0.51100000000E-03 0.  1.
         12    1    3    3    0    0 -0.93029715141E+01  0.28677838624E+01  0.32349568953E+01  0.10258382396E+02  0.00000000000E+00 0. -1.
</event>
<event>
 7    1  0.4723144E-009  0.4778727E+02  0.7816164E-02  0.1312668E+00
        -11   -1    0    0    0    0  0.00000000000E+00  0.00000000000E+00  0.45593999997E+02  0.45594000000E+02  0.51100000000E-03 0.  1.
         11   -1    0    0    0    0 -0.00000000000E+00 -0.00000000000E+00 -0.45593999997E+02  0.45594000000E+02  0.51100000000E-03 0. -1.
    9900012    2    1    2    0    0 -0.63998440612E+01  0.34384063429E+01  0.42788345813E+02  0.47787272131E+02  0.20000004952E+02 0.  0.
         12    1    1    2    0    0  0.63998440612E+01 -0.34384063429E+01 -0.42788345813E+02  0.43400727869E+02  0.00000000000E+00 0. -1.
         11    1    3    3    0    0 -0.22488357811E+01  0.15702927706E+01  0.30645355983E+00  0.27598905415E+01  0.51100000000E-03 0. -1.
        -11    1    3    3    0    0 -0.44649091368E+01  0.10631691145E+01  0.43471823272E+02  0.43713443710E+02  0.51100000000E-03 0.  1.
        -12    1    3    3    0    0  0.31390085662E+00  0.80494445779E+00 -0.98993101865E+00  0.13139378789E+01  0.00000000000E+00 0.  1.
</event>
<event>
 7    1  0.4723144E-009  0.4778727E+02  0.7816164E-02  0.1312668E+00
        -11   -1    0    0    0    0  0.00000000000E+00  0.00000000000E+00  0.45593999997E+02  0.45594000000E+02  0.51100000000E-03 0. -1.
         11   -1    0    0    0    0 -0.00000000000E+00 -0.00000000000E+00 -0.45593999997E+02  0.45594000000E+02  0.51100000000E-03 0.  1.
    9900012    2    1    2    0    0  0.24816315999E+02 -0.15405969486E+02 -0.32100303975E+02  0.47787274765E+02  0.20000016965E+02 0.  0.
         12    1    1    2    0    0 -0.24816315999E+02  0.15405969486E+02  0.32100303975E+02  0.43400725235E+02  0.00000000000E+00 0. -1.
         11    1    3    3    0    0  0.87605601487E+00 -0.35135266403E+00 -0.11516834764E+02  0.11555449194E+02  0.51100000000E-03 0. -1.
        -11    1    3    3    0    0  0.59516961630E+01 -0.90631924226E+01 -0.80330415927E+01  0.13494217339E+02  0.51100000000E-03 0.  1.
         12    1    3    3    0    0  0.17988563821E+02 -0.59914243995E+01 -0.12550427619E+02  0.22737608232E+02  0.00000000000E+00 0. -1.
</event>
<event>
 7    1  0.4723144E-009  0.4778727E+02  0.7816164E-02  0.1312668E+00
        -11   -1    0    0    0    0  0.00000000000E+00  0.00000000000E+00  0.45593999997E+02  0.45594000000E+02  0.51100000000E-03 0.  1.
         11   -1    0    0    0    0 -0.00000000000E+00 -0.00000000000E+00 -0.45593999997E+02  0.45594000000E+02  0.51100000000E-03 0. -1.
    9900012    2    1    2    0    0  0.27464372236E+02  0.13995084636E+02  0.30552728810E+02  0.47787269891E+02  0.19999994742E+02 0.  0.
         12    1    1    2    0    0 -0.27464372236E+02 -0.13995084636E+02 -0.30552728810E+02  0.43400730109E+02  0.00000000000E+00 0. -1.
         11    1    3    3    0    0  0.18662970789E+01 -0.11341080732E+01  0.17661238530E+01  0.28086401752E+01  0.51100000000E-03 0. -1.
        -11    1    3    3    0    0 -0.22838592903E+01  0.14541603944E+01  0.11180902359E+00  0.27098149807E+01  0.51100000000E-03 0.  1.
        -12    1    3    3    0    0  0.27881934447E+02  0.13675032315E+02  0.28674795933E+02  0.42268814735E+02  0.00000000000E+00 0.  1.
</event>
<event>
 7    1  0.4723144E-009  0.4778727E+02  0.7816164E-02  0.1312668E+00
        -11   -1    0    0    0    0  0.00000000000E+00  0.00000000000E+00  0.45593999997E+02  0.45594000000E+02  0.51100000000E-03 0.  1.
         11   -1    0    0    0    0 -0.00000000000E+00 -0.00000000000E+00 -0.45593999997E+02  0.45594000000E+02  0.51100000000E-03 0. -1.
    9900012    2    1    2    0    0 -0.22583904537E+02  0.36596589588E+02 -0.58549689915E+01  0.47787265265E+02  0.19999973650E+02 0.  0.
         12    1    1    2    0    0  0.22583904537E+02 -0.36596589588E+02  0.58549689915E+01  0.43400734735E+02  0.00000000000E+00 0. -1.
         11    1    3    3    0    0 -0.31764215805E+01  0.20486997006E+00  0.22100955219E+01  0.38750675141E+01  0.51100000000E-03 0. -1.
        -11    1    3    3    0    0 -0.15569830079E+02  0.29122303491E+02 -0.94427185181E+00  0.33036643578E+02  0.51100000000E-03 0.  1.
        -12    1    3    3    0    0 -0.38376528777E+01  0.72694161272E+01 -0.71207926616E+01  0.10875554173E+02  0.00000000000E+00 0.  1.
</event>
<event>
 7    1  0.4723144E-009  0.4778727E+02  0.7816164E-02  0.1312668E+00
        -11   -1    0    0    0    0  0.00000000000E+00  0.00000000000E+00  0.45593999997E+02  0.45594000000E+02  0.51100000000E-03 0.  1.
         11   -1    0    0    0    0 -0.00000000000E+00 -0.00000000000E+00 -0.45593999997E+02  0.45594000000E+02  0.51100000000E-03 0. -1.
    9900012    2    1    2    0    0  0.72636857844E+01 -0.29449937072E+02  0.31041320870E+02  0.47787268139E+02  0.19999986753E+02 0.  0.
         12    1    1    2    0    0 -0.72636857844E+01  0.29449937072E+02 -0.31041320870E+02  0.43400731861E+02  0.00000000000E+00 0. -1.
         11    1    3    3    0    0 -0.38939495945E+01 -0.74096995111E+01  0.26158662485E+01  0.87697917182E+01  0.51100000000E-03 0. -1.
        -11    1    3    3    0    0  0.81100435870E+01 -0.12488348336E+02  0.23564370926E+02  0.27874921140E+02  0.51100000000E-03 0.  1.
         12    1    3    3    0    0  0.30475917919E+01 -0.95518892250E+01  0.48610836954E+01  0.11142555281E+02  0.00000000000E+00 0. -1.
</event>
<event>
 7    1  0.4723144E-009  0.4778722E+02  0.7816164E-02  0.1312668E+00
        -11   -1    0    0    0    0  0.00000000000E+00  0.00000000000E+00  0.45593999997E+02  0.45594000000E+02  0.51100000000E-03 0.  1.
         11   -1    0    0    0    0 -0.00000000000E+00 -0.00000000000E+00 -0.45593999997E+02  0.45594000000E+02  0.51100000000E-03 0. -1.
    9900012    2    1    2    0    0  0.39644902012E+02 -0.99709361483E+01  0.14577034079E+02  0.47787219525E+02  0.19999765103E+02 0.  0.
         12    1    1    2    0    0 -0.39644902012E+02  0.99709361483E+01 -0.14577034079E+02  0.43400780475E+02  0.00000000000E+00 0. -1.
         11    1    3    3    0    0  0.18122851848E+02 -0.44368390454E+01  0.17012913117E+02  0.25250000254E+02  0.51100000000E-03 0.  1.
        -11    1    3    3    0    0  0.14347362936E+02 -0.49471944134E+01 -0.11045253614E+01  0.15216488830E+02  0.51100000000E-03 0. -1.
        -12    1    3    3    0    0  0.71746872277E+01 -0.58690268952E+00 -0.13313536761E+01  0.73207304413E+01  0.00000000000E+00 0.  1.
</event>
<event>
 7    1  0.4723144E-009  0.4778725E+02  0.7816164E-02  0.1312668E+00
        -11   -1    0    0    0    0  0.00000000000E+00  0.00000000000E+00  0.45593999997E+02  0.45594000000E+02  0.51100000000E-03 0. -1.
         11   -1    0    0    0    0 -0.00000000000E+00 -0.00000000000E+00 -0.45593999997E+02  0.45594000000E+02  0.51100000000E-03 0.  1.
    9900012    2    1    2    0    0 -0.33216460037E+02  0.23949571400E+02  0.14377407183E+02  0.47787250871E+02  0.19999908021E+02 0.  0.
         12    1    1    2    0    0  0.33216460037E+02 -0.23949571400E+02 -0.14377407183E+02  0.43400749129E+02  0.00000000000E+00 0. -1.
         11    1    3    3    0    0 -0.12000493705E+02  0.14969807171E+02  0.13788001085E+02  0.23626594128E+02  0.51100000000E-03 0. -1.
        -11    1    3    3    0    0 -0.12958825216E+02  0.18410384035E+01  0.16567606178E+01  0.13193385820E+02  0.51100000000E-03 0.  1.
         12    1    3    3    0    0 -0.82571411160E+01  0.71387258263E+01 -0.10673545205E+01  0.10967270923E+02  0.00000000000E+00 0. -1.
</event>
<event>
 7    1  0.4723144E-009  0.4778727E+02  0.7816164E-02  0.1312668E+00
        -11   -1    0    0    0    0  0.00000000000E+00  0.00000000000E+00  0.45593999997E+02  0.45594000000E+02  0.51100000000E-03 0.  1.
         11   -1    0    0    0    0 -0.00000000000E+00 -0.00000000000E+00 -0.45593999997E+02  0.45594000000E+02  0.51100000000E-03 0. -1.
    9900012    2    1    2    0    0  0.23735022905E+02 -0.80112488425E+01  0.35441387421E+02  0.47787270022E+02  0.19999995337E+02 0.  0.
         12    1    1    2    0    0 -0.23735022905E+02  0.80112488425E+01 -0.35441387421E+02  0.43400729978E+02  0.00000000000E+00 0. -1.
         11    1    3    3    0    0 -0.24235802612E+00  0.24633683861E+00 -0.27056669869E+00  0.43889161583E+00  0.51100000000E-03 0. -1.
        -11    1    3    3    0    0  0.36757919300E+01  0.53636354716E+01  0.94206820429E+01  0.11446802270E+02  0.51100000000E-03 0.  1.
        -12    1    3    3    0    0  0.20301589001E+02 -0.13621221153E+02  0.26291272077E+02  0.35901576136E+02  0.00000000000E+00 0.  1.
</event>
<event>
 7    1  0.4723144E-009  0.4778727E+02  0.7816164E-02  0.1312668E+00
        -11   -1    0    0    0    0  0.00000000000E+00  0.00000000000E+00  0.45593999997E+02  0.45594000000E+02  0.51100000000E-03 0.  1.
         11   -1    0    0    0    0 -0.00000000000E+00 -0.00000000000E+00 -0.45593999997E+02  0.45594000000E+02  0.51100000000E-03 0. -1.
    9900012    2    1    2    0    0  0.74769107926E+01 -0.14058685932E+02  0.40374155530E+02  0.47787270975E+02  0.19999999683E+02 0.  0.
         12    1    1    2    0    0 -0.74769107926E+01  0.14058685932E+02 -0.40374155530E+02  0.43400729025E+02  0.00000000000E+00 0. -1.
         11    1    3    3    0    0  0.92572781359E+01 -0.26481066895E+01  0.70827575944E+01  0.11953038230E+02  0.51100000000E-03 0. -1.
        -11    1    3    3    0    0 -0.21493581783E+00 -0.10542221064E+02  0.21937307327E+02  0.24339886511E+02  0.51100000000E-03 0.  1.
         12    1    3    3    0    0 -0.15654315255E+01 -0.86835817883E+00  0.11354090609E+02  0.11494346234E+02  0.00000000000E+00 0. -1.
</event>
<event>
 7    1  0.4723144E-009  0.4778727E+02  0.7816164E-02  0.1312668E+00
        -11   -1    0    0    0    0  0.00000000000E+00  0.00000000000E+00  0.45593999997E+02  0.45594000000E+02  0.51100000000E-03 0. -1.
         11   -1    0    0    0    0 -0.00000000000E+00 -0.00000000000E+00 -0.45593999997E+02  0.45594000000E+02  0.51100000000E-03 0.  1.
    9900012    2    1    2    0    0  0.49683067516E+01 -0.70156738136E+01 -0.42540803446E+02  0.47787266033E+02  0.19999977152E+02 0.  0.
         12    1    1    2    0    0 -0.49683067516E+01  0.70156738136E+01  0.42540803446E+02  0.43400733967E+02  0.00000000000E+00 0. -1.
         11    1    3    3    0    0  0.83940872261E+01 -0.85211222825E+01 -0.19627856807E+02  0.22985277645E+02  0.51100000000E-03 0. -1.
        -11    1    3    3    0    0  0.36822401663E+00  0.35274123453E+01 -0.17666950300E+02  0.18019416193E+02  0.51100000000E-03 0.  1.
         12    1    3    3    0    0 -0.37940044911E+01 -0.20219638764E+01 -0.52459963387E+01  0.67825721951E+01  0.00000000000E+00 0. -1.
</event>
<event>
 7    1  0.4723144E-009  0.4778727E+02  0.7816164E-02  0.1312668E+00
        -11   -1    0    0    0    0  0.00000000000E+00  0.00000000000E+00  0.45593999997E+02  0.45594000000E+02  0.51100000000E-03 0. -1.
         11   -1    0    0    0    0 -0.00000000000E+00 -0.00000000000E+00 -0.45593999997E+02  0.45594000000E+02  0.51100000000E-03 0.  1.
    9900012    2    1    2    0    0 -0.97766118168E+01  0.40751502073E+02 -0.11285244019E+02  0.47787265071E+02  0.19999972763E+02 0.  0.
         12    1    1    2    0    0  0.97766118168E+01 -0.40751502073E+02  0.11285244019E+02  0.43400734929E+02  0.00000000000E+00 0. -1.
         11    1    3    3    0    0 -0.10405403007E+02  0.19846715156E+02 -0.98063511169E+01  0.24460765252E+02  0.51100000000E-03 0.  1.
        -11    1    3    3    0    0 -0.17413463016E+01  0.18922855940E+02  0.14646585956E+01  0.19059170730E+02  0.51100000000E-03 0. -1.
         12    1    3    3    0    0  0.23701374919E+01  0.19819309775E+01 -0.29435514975E+01  0.42673290884E+01  0.00000000000E+00 0. -1.
</event>
<event>
 7    1  0.4723144E-009  0.4778727E+02  0.7816164E-02  0.1312668E+00
        -11   -1    0    0    0    0  0.00000000000E+00  0.00000000000E+00  0.45593999997E+02  0.45594000000E+02  0.51100000000E-03 0. -1.
         11   -1    0    0    0    0 -0.00000000000E+00 -0.00000000000E+00 -0.45593999997E+02  0.45594000000E+02  0.51100000000E-03 0.  1.
    9900012    2    1    2    0    0  0.40595401853E+02 -0.10509933038E+02  0.11188300290E+02  0.47787269506E+02  0.19999992985E+02 0.  0.
         12    1    1    2    0    0 -0.40595401853E+02  0.10509933038E+02 -0.11188300290E+02  0.43400730494E+02  0.00000000000E+00 0. -1.
         11    1    3    3    0    0  0.35007649400E+01 -0.42950467251E+01 -0.32035409323E+01  0.64004262594E+01  0.51100000000E-03 0. -1.
        -11    1    3    3    0    0  0.28601920082E+02 -0.89801375816E+00  0.12318638426E+02  0.31154856989E+02  0.51100000000E-03 0.  1.
        -12    1    3    3    0    0  0.84927168308E+01 -0.53168725552E+01  0.20732027966E+01  0.10231986257E+02  0.00000000000E+00 0.  1.
</event>
<event>
 7    1  0.4723144E-009  0.4778727E+02  0.7816164E-02  0.1312668E+00
        -11   -1    0    0    0    0  0.00000000000E+00  0.00000000000E+00  0.45593999997E+02  0.45594000000E+02  0.51100000000E-03 0. -1.
         11   -1    0    0    0    0 -0.00000000000E+00 -0.00000000000E+00 -0.45593999997E+02  0.45594000000E+02  0.51100000000E-03 0.  1.
    9900012    2    1    2    0    0 -0.42746155654E+02  0.86482107905E+00 -0.74593430367E+01  0.47787268010E+02  0.19999986166E+02 0.  0.
         12    1    1    2    0    0  0.42746155654E+02 -0.86482107905E+00  0.74593430367E+01  0.43400731990E+02  0.00000000000E+00 0. -1.
         11    1    3    3    0    0 -0.14621463039E+01 -0.27757905703E+01 -0.17638071324E+01  0.35991528122E+01  0.51100000000E-03 0. -1.
        -11    1    3    3    0    0 -0.21405422210E+02  0.80002288002E+01  0.68023256029E+00  0.22861725164E+02  0.51100000000E-03 0.  1.
        -12    1    3    3    0    0 -0.19878587140E+02 -0.43596171508E+01 -0.63757684646E+01  0.21326390034E+02  0.00000000000E+00 0.  1.
</event>
<event>
 7    1  0.4723144E-009  0.4778727E+02  0.7816164E-02  0.1312668E+00
        -11   -1    0    0    0    0  0.00000000000E+00  0.00000000000E+00  0.45593999997E+02  0.45594000000E+02  0.51100000000E-03 0.  1.
         11   -1    0    0    0    0 -0.00000000000E+00 -0.00000000000E+00 -0.45593999997E+02  0.45594000000E+02  0.51100000000E-03 0. -1.
    9900012    2    1    2    0    0  0.32374062056E+02  0.17351616118E+02  0.23118492242E+02  0.47787272363E+02  0.20000006010E+02 0.  0.
         12    1    1    2    0    0 -0.32374062056E+02 -0.17351616118E+02 -0.23118492242E+02  0.43400727637E+02  0.00000000000E+00 0. -1.
         11    1    3    3    0    0  0.14263793328E+01 -0.13533294687E+01  0.22642375642E+00  0.19792237444E+01  0.51100000000E-03 0. -1.
        -11    1    3    3    0    0  0.31553652549E+01  0.45358784261E+01  0.11208009951E+02  0.12495999772E+02  0.51100000000E-03 0.  1.
        -12    1    3    3    0    0  0.27792317468E+02  0.14169067161E+02  0.11684058535E+02  0.33312048846E+02  0.00000000000E+00 0.  1.
</event>
<event>
 7    1  0.4723144E-009  0.4778727E+02  0.7816164E-02  0.1312668E+00
        -11   -1    0    0    0    0  0.00000000000E+00  0.00000000000E+00  0.45593999997E+02  0.45594000000E+02  0.51100000000E-03 0.  1.
         11   -1    0    0    0    0 -0.00000000000E+00 -0.00000000000E+00 -0.45593999997E+02  0.45594000000E+02  0.51100000000E-03 0. -1.
    9900012    2    1    2    0    0 -0.25760759407E+02  0.12900568128E+02  0.32458927717E+02  0.47787269917E+02  0.19999994858E+02 0.  0.
         12    1    1    2    0    0  0.25760759407E+02 -0.12900568128E+02 -0.32458927717E+02  0.43400730083E+02  0.00000000000E+00 0. -1.
         11    1    3    3    0    0 -0.13610256855E+01 -0.32269516135E+01 -0.39768403043E+00  0.35247355194E+01  0.51100000000E-03 0. -1.
        -11    1    3    3    0    0 -0.18733235480E+02  0.13283128605E+02  0.22706595182E+02  0.32294969920E+02  0.51100000000E-03 0.  1.
         12    1    3    3    0    0 -0.56664982410E+01  0.28443911363E+01  0.10150016565E+02  0.11967564478E+02  0.00000000000E+00 0. -1.
</event>
<event>
 7    1  0.4723144E-009  0.4778728E+02  0.7816164E-02  0.1312668E+00
        -11   -1    0    0    0    0  0.00000000000E+00  0.00000000000E+00  0.45593999997E+02  0.45594000000E+02  0.51100000000E-03 0.  1.
         11   -1    0    0    0    0 -0.00000000000E+00 -0.00000000000E+00 -0.45593999997E+02  0.45594000000E+02  0.51100000000E-03 0. -1.
    9900012    2    1    2    0    0  0.86067982333E+01 -0.30152450320E+02  0.30006258052E+02  0.47787276983E+02  0.20000027074E+02 0.  0.
         12    1    1    2    0    0 -0.86067982333E+01  0.30152450320E+02 -0.30006258052E+02  0.43400723017E+02  0.00000000000E+00 0. -1.
         11    1    3    3    0    0  0.39999024155E+01 -0.28232062946E+02  0.16246098479E+02  0.32817439168E+02  0.51100000000E-03 0. -1.
        -11    1    3    3    0    0  0.25609288959E+01 -0.24878210416E+01  0.10392896557E+02  0.10989081374E+02  0.51100000000E-03 0.  1.
         12    1    3    3    0    0  0.20459669218E+01  0.56743366735E+00  0.33672630163E+01  0.39807564397E+01  0.00000000000E+00 0. -1.
</event>
<event>
 7    1  0.4723144E-009  0.4778727E+02  0.7816164E-02  0.1312668E+00
        -11   -1    0    0    0    0  0.00000000000E+00  0.00000000000E+00  0.45593999997E+02  0.45594000000E+02  0.51100000000E-03 0. -1.
         11   -1    0    0    0    0 -0.00000000000E+00 -0.00000000000E+00 -0.45593999997E+02  0.45594000000E+02  0.51100000000E-03 0.  1.
    9900012    2    1    2    0    0 -0.31160923642E+02  0.28000519843E+02 -0.11339784474E+02  0.47787274365E+02  0.20000015141E+02 0.  0.
         12    1    1    2    0    0  0.31160923642E+02 -0.28000519843E+02  0.11339784474E+02  0.43400725635E+02  0.00000000000E+00 0. -1.
         11    1    3    3    0    0 -0.14737095463E+02  0.16766970100E+02  0.14484168767E+01  0.22369872166E+02  0.51100000000E-03 0. -1.
        -11    1    3    3    0    0 -0.12187767333E+02  0.12520814977E+02 -0.10969308699E+02  0.20631001281E+02  0.51100000000E-03 0.  1.
        -12    1    3    3    0    0 -0.42360608455E+01 -0.12872652340E+01 -0.18188926516E+01  0.47864009180E+01  0.00000000000E+00 0.  1.
</event>
<event>
 7    1  0.4723144E-009  0.4778727E+02  0.7816164E-02  0.1312668E+00
        -11   -1    0    0    0    0  0.00000000000E+00  0.00000000000E+00  0.45593999997E+02  0.45594000000E+02  0.51100000000E-03 0.  1.
         11   -1    0    0    0    0 -0.00000000000E+00 -0.00000000000E+00 -0.45593999997E+02  0.45594000000E+02  0.51100000000E-03 0. -1.
    9900012    2    1    2    0    0 -0.33342438283E+02  0.21925006784E+02  0.17064560172E+02  0.47787270432E+02  0.19999997209E+02 0.  0.
         12    1    1    2    0    0  0.33342438283E+02 -0.21925006784E+02 -0.17064560172E+02  0.43400729568E+02  0.00000000000E+00 0. -1.
         11    1    3    3    0    0  0.10398683772E+01  0.66847481375E+01  0.16793260396E+01  0.69704605380E+01  0.51100000000E-03 0. -1.
        -11    1    3    3    0    0 -0.22308387442E+02  0.85382936186E+01  0.82352013289E+01  0.25266284835E+02  0.51100000000E-03 0.  1.
         12    1    3    3    0    0 -0.12073919219E+02  0.67019650278E+01  0.71500328032E+01  0.15550525059E+02  0.00000000000E+00 0. -1.
</event>
<event>
 7    1  0.4723144E-009  0.4778727E+02  0.7816164E-02  0.1312668E+00
        -11   -1    0    0    0    0  0.00000000000E+00  0.00000000000E+00  0.45593999997E+02  0.45594000000E+02  0.51100000000E-03 0. -1.
         11   -1    0    0    0    0 -0.00000000000E+00 -0.00000000000E+00 -0.45593999997E+02  0.45594000000E+02  0.51100000000E-03 0.  1.
    9900012    2    1    2    0    0 -0.91112831741E+01  0.40655172109E+02 -0.12155865377E+02  0.47787267710E+02  0.19999984796E+02 0.  0.
         12    1    1    2    0    0  0.91112831741E+01 -0.40655172109E+02  0.12155865377E+02  0.43400732290E+02  0.00000000000E+00 0. -1.
         11    1    3    3    0    0 -0.11235134399E+02  0.25553708739E+02 -0.11101866209E+02  0.30041166902E+02  0.51100000000E-03 0.  1.
        -11    1    3    3    0    0  0.33797637661E+01  0.38615678740E+01  0.27393079689E+01  0.58170712536E+01  0.51100000000E-03 0. -1.
        -12    1    3    3    0    0 -0.12559125417E+01  0.11239895496E+02 -0.37933071366E+01  0.11929029554E+02  0.00000000000E+00 0.  1.
</event>
<event>
 7    1  0.4723144E-009  0.4778727E+02  0.7816164E-02  0.1312668E+00
        -11   -1    0    0    0    0  0.00000000000E+00  0.00000000000E+00  0.45593999997E+02  0.45594000000E+02  0.51100000000E-03 0.  1.
         11   -1    0    0    0    0 -0.00000000000E+00 -0.00000000000E+00 -0.45593999997E+02  0.45594000000E+02  0.51100000000E-03 0. -1.
    9900012    2    1    2    0    0 -0.52710905298E+01  0.22896378876E+02  0.36491022068E+02  0.47787271290E+02  0.20000001120E+02 0.  0.
         12    1    1    2    0    0  0.52710905298E+01 -0.22896378876E+02 -0.36491022068E+02  0.43400728710E+02  0.00000000000E+00 0. -1.
         11    1    3    3    0    0  0.60555402031E+01  0.12392902799E+02  0.18649606097E+02  0.23196150861E+02  0.51100000000E-03 0. -1.
        -11    1    3    3    0    0 -0.30045495803E+01 -0.57253228876E+00  0.28942195935E+01  0.42108928648E+01  0.51100000000E-03 0.  1.
         12    1    3    3    0    0 -0.83220811526E+01  0.11076008366E+02  0.14947196377E+02  0.20380227564E+02  0.00000000000E+00 0. -1.
</event>
<event>
 7    1  0.4723144E-009  0.4778727E+02  0.7816164E-02  0.1312668E+00
        -11   -1    0    0    0    0  0.00000000000E+00  0.00000000000E+00  0.45593999997E+02  0.45594000000E+02  0.51100000000E-03 0. -1.
         11   -1    0    0    0    0 -0.00000000000E+00 -0.00000000000E+00 -0.45593999997E+02  0.45594000000E+02  0.51100000000E-03 0.  1.
    9900012    2    1    2    0    0 -0.16535930417E+02 -0.14705911851E+02 -0.37335268271E+02  0.47787273105E+02  0.20000009395E+02 0.  0.
         12    1    1    2    0    0  0.16535930417E+02  0.14705911851E+02  0.37335268271E+02  0.43400726895E+02  0.00000000000E+00 0. -1.
         11    1    3    3    0    0 -0.21166946105E+01  0.39875316033E+01 -0.14731213056E+01  0.47487778431E+01  0.51100000000E-03 0. -1.
        -11    1    3    3    0    0 -0.81818200964E+01 -0.11794733417E+02 -0.23996820934E+02  0.27962570190E+02  0.51100000000E-03 0.  1.
         12    1    3    3    0    0 -0.62374157100E+01 -0.68987100380E+01 -0.11865326032E+02  0.15075925072E+02  0.00000000000E+00 0. -1.
</event>
<event>
 7    1  0.4723144E-009  0.4778727E+02  0.7816164E-02  0.1312668E+00
        -11   -1    0    0    0    0  0.00000000000E+00  0.00000000000E+00  0.45593999997E+02  0.45594000000E+02  0.51100000000E-03 0.  1.
         11   -1    0    0    0    0 -0.00000000000E+00 -0.00000000000E+00 -0.45593999997E+02  0.45594000000E+02  0.51100000000E-03 0. -1.
    9900012    2    1    2    0    0 -0.25950402701E+02  0.33922262564E+02  0.77123266082E+01  0.47787270980E+02  0.19999999705E+02 0.  0.
         12    1    1    2    0    0  0.25950402701E+02 -0.33922262564E+02 -0.77123266082E+01  0.43400729020E+02  0.00000000000E+00 0. -1.
         11    1    3    3    0    0 -0.17263523315E+02  0.23050388961E+02  0.65929070400E+01  0.29543461070E+02  0.51100000000E-03 0. -1.
        -11    1    3    3    0    0 -0.45461286511E+01  0.90121884623E+01  0.58672405203E+01  0.11675244673E+02  0.51100000000E-03 0.  1.
         12    1    3    3    0    0 -0.41407507354E+01  0.18596851399E+01 -0.47478209521E+01  0.65685652364E+01  0.00000000000E+00 0. -1.
</event>
<event>
 7    1  0.4723144E-009  0.4778728E+02  0.7816164E-02  0.1312668E+00
        -11   -1    0    0    0    0  0.00000000000E+00  0.00000000000E+00  0.45593999997E+02  0.45594000000E+02  0.51100000000E-03 0.  1.
         11   -1    0    0    0    0 -0.00000000000E+00 -0.00000000000E+00 -0.45593999997E+02  0.45594000000E+02  0.51100000000E-03 0. -1.
    9900012    2    1    2    0    0 -0.13618951514E+02 -0.13821250135E+02  0.38821641794E+02  0.47787278033E+02  0.20000031865E+02 0.  0.
         12    1    1    2    0    0  0.13618951514E+02  0.13821250135E+02 -0.38821641794E+02  0.43400721967E+02  0.00000000000E+00 0. -1.
         11    1    3    3    0    0 -0.34969862423E+01 -0.94011627184E+00  0.28016796565E+01  0.45784430259E+01  0.51100000000E-03 0. -1.
        -11    1    3    3    0    0 -0.25604346001E+00 -0.98488340580E+01  0.61698027167E+01  0.11624609945E+02  0.51100000000E-03 0.  1.
        -12    1    3    3    0    0 -0.98659218121E+01 -0.30322998047E+01  0.29850159421E+02  0.31584225062E+02  0.00000000000E+00 0.  1.
</event>
<event>
 7    1  0.4723144E-009  0.4778727E+02  0.7816164E-02  0.1312668E+00
        -11   -1    0    0    0    0  0.00000000000E+00  0.00000000000E+00  0.45593999997E+02  0.45594000000E+02  0.51100000000E-03 0.  1.
         11   -1    0    0    0    0 -0.00000000000E+00 -0.00000000000E+00 -0.45593999997E+02  0.45594000000E+02  0.51100000000E-03 0. -1.
    9900012    2    1    2    0    0 -0.40854872675E+01  0.48435106243E+01  0.42935677479E+02  0.47787271873E+02  0.20000003779E+02 0.  0.
         12    1    1    2    0    0  0.40854872675E+01 -0.48435106243E+01 -0.42935677479E+02  0.43400728127E+02  0.00000000000E+00 0. -1.
         11    1    3    3    0    0 -0.23456416833E+01 -0.70117480339E+01  0.13375127086E+02  0.15282691851E+02  0.51100000000E-03 0. -1.
        -11    1    3    3    0    0 -0.25989112065E+01  0.56859966515E+01  0.21045915471E+02  0.21954850390E+02  0.51100000000E-03 0.  1.
         12    1    3    3    0    0  0.85906562232E+00  0.61692620068E+01  0.85146349224E+01  0.10549729632E+02  0.00000000000E+00 0. -1.
</event>
<event>
 7    1  0.4723144E-009  0.4778728E+02  0.7816164E-02  0.1312668E+00
        -11   -1    0    0    0    0  0.00000000000E+00  0.00000000000E+00  0.45593999997E+02  0.45594000000E+02  0.51100000000E-03 0.  1.
         11   -1    0    0    0    0 -0.00000000000E+00 -0.00000000000E+00 -0.45593999997E+02  0.45594000000E+02  0.51100000000E-03 0. -1.
    9900012    2    1    2    0    0  0.42394871250E+02 -0.84795087297E+01 -0.37941674571E+01  0.47787275544E+02  0.20000020517E+02 0.  0.
         12    1    1    2    0    0 -0.42394871250E+02  0.84795087297E+01  0.37941674571E+01  0.43400724456E+02  0.00000000000E+00 0. -1.
         11    1    3    3    0    0  0.92848547538E+00 -0.30589720898E+01 -0.19526110876E+01  0.37459425843E+01  0.51100000000E-03 0. -1.
        -11    1    3    3    0    0  0.27649811649E+02  0.24024876644E+01 -0.39156923818E+01  0.28028854388E+02  0.51100000000E-03 0.  1.
        -12    1    3    3    0    0  0.13816574126E+02 -0.78230243043E+01  0.20741360123E+01  0.16012478572E+02  0.00000000000E+00 0.  1.
</event>
<event>
 7    1  0.4723144E-009  0.4778728E+02  0.7816164E-02  0.1312668E+00
        -11   -1    0    0    0    0  0.00000000000E+00  0.00000000000E+00  0.45593999997E+02  0.45594000000E+02  0.51100000000E-03 0. -1.
         11   -1    0    0    0    0 -0.00000000000E+00 -0.00000000000E+00 -0.45593999997E+02  0.45594000000E+02  0.51100000000E-03 0.  1.
    9900012    2    1    2    0    0  0.11285108204E+02  0.26861882645E+02 -0.32166881538E+02  0.47787277952E+02  0.20000031494E+02 0.  0.
         12    1    1    2    0    0 -0.11285108204E+02 -0.26861882645E+02  0.32166881538E+02  0.43400722048E+02  0.00000000000E+00 0. -1.
         11    1    3    3    0    0  0.58381421771E+01  0.24211510156E+02 -0.32044798384E+02  0.40585098643E+02  0.51100000000E-03 0.  1.
        -11    1    3    3    0    0  0.20121568042E+01 -0.94393852542E+00  0.10855402838E+00  0.22252144127E+01  0.51100000000E-03 0. -1.
         12    1    3    3    0    0  0.34348092230E+01  0.35943110150E+01 -0.23063718175E+00  0.49769648965E+01  0.00000000000E+00 0. -1.
</event>
<event>
 7    1  0.4723144E-009  0.4778727E+02  0.7816164E-02  0.1312668E+00
        -11   -1    0    0    0    0  0.00000000000E+00  0.00000000000E+00  0.45593999997E+02  0.45594000000E+02  0.51100000000E-03 0. -1.
         11   -1    0    0    0    0 -0.00000000000E+00 -0.00000000000E+00 -0.45593999997E+02  0.45594000000E+02  0.51100000000E-03 0.  1.
    9900012    2    1    2    0    0 -0.11242247292E+02 -0.38766147187E+02 -0.15950571722E+02  0.47787273853E+02  0.20000012804E+02 0.  0.
         12    1    1    2    0    0  0.11242247292E+02  0.38766147187E+02  0.15950571722E+02  0.43400726147E+02  0.00000000000E+00 0. -1.
         11    1    3    3    0    0 -0.54466156616E+01 -0.10057720545E+02  0.40207562311E-01  0.11437874874E+02  0.51100000000E-03 0. -1.
        -11    1    3    3    0    0  0.41320283037E+01 -0.94830080535E+01 -0.87012524796E+01  0.13517133373E+02  0.51100000000E-03 0.  1.
        -12    1    3    3    0    0 -0.99276599340E+01 -0.19225418588E+02 -0.72895268044E+01  0.22832265605E+02  0.00000000000E+00 0.  1.
</event>
<event>
 7    1  0.4723144E-009  0.4778727E+02  0.7816164E-02  0.1312668E+00
        -11   -1    0    0    0    0  0.00000000000E+00  0.00000000000E+00  0.45593999997E+02  0.45594000000E+02  0.51100000000E-03 0. -1.
         11   -1    0    0    0    0 -0.00000000000E+00 -0.00000000000E+00 -0.45593999997E+02  0.45594000000E+02  0.51100000000E-03 0.  1.
    9900012    2    1    2    0    0 -0.42647779277E+02 -0.55749865843E+01 -0.58059929821E+01  0.47787272965E+02  0.20000008755E+02 0.  0.
         12    1    1    2    0    0  0.42647779277E+02  0.55749865843E+01  0.58059929821E+01  0.43400727035E+02  0.00000000000E+00 0. -1.
         11    1    3    3    0    0 -0.11012056046E+02 -0.48484575315E+00  0.18462891406E+01  0.11176280133E+02  0.51100000000E-03 0. -1.
        -11    1    3    3    0    0 -0.33203797699E+02 -0.59624847510E+01 -0.82329467013E+01  0.34724988376E+02  0.51100000000E-03 0.  1.
        -12    1    3    3    0    0  0.15680744684E+01  0.87234391982E+00  0.58066457857E+00  0.18860044554E+01  0.00000000000E+00 0.  1.
</event>
<event>
 7    1  0.4723144E-009  0.4778727E+02  0.7816164E-02  0.1312668E+00
        -11   -1    0    0    0    0  0.00000000000E+00  0.00000000000E+00  0.45593999997E+02  0.45594000000E+02  0.51100000000E-03 0.  1.
         11   -1    0    0    0    0 -0.00000000000E+00 -0.00000000000E+00 -0.45593999997E+02  0.45594000000E+02  0.51100000000E-03 0. -1.
    9900012    2    1    2    0    0  0.24004673408E+02  0.34773489056E+02  0.99097512714E+01  0.47787273545E+02  0.20000011402E+02 0.  0.
         12    1    1    2    0    0 -0.24004673408E+02 -0.34773489056E+02 -0.99097512714E+01  0.43400726455E+02  0.00000000000E+00 0. -1.
         11    1    3    3    0    0  0.61786438315E+01  0.14305440523E+02 -0.35300958530E+01  0.15977573193E+02  0.51100000000E-03 0. -1.
        -11    1    3    3    0    0  0.11957563924E+02  0.64094953474E+01  0.70526504288E+01  0.15290678334E+02  0.51100000000E-03 0.  1.
         12    1    3    3    0    0  0.58684656527E+01  0.14058553186E+02  0.63871966956E+01  0.16519022018E+02  0.00000000000E+00 0. -1.
</event>
<event>
 7    1  0.4723144E-009  0.4778727E+02  0.7816164E-02  0.1312668E+00
        -11   -1    0    0    0    0  0.00000000000E+00  0.00000000000E+00  0.45593999997E+02  0.45594000000E+02  0.51100000000E-03 0.  1.
         11   -1    0    0    0    0 -0.00000000000E+00 -0.00000000000E+00 -0.45593999997E+02  0.45594000000E+02  0.51100000000E-03 0. -1.
    9900012    2    1    2    0    0 -0.59490694522E+01  0.26591235597E+02  0.33780735507E+02  0.47787270406E+02  0.19999997089E+02 0.  0.
         12    1    1    2    0    0  0.59490694522E+01 -0.26591235597E+02 -0.33780735507E+02  0.43400729594E+02  0.00000000000E+00 0. -1.
         11    1    3    3    0    0 -0.18995999914E+01 -0.18318994759E+01  0.55887345952E+00  0.26975313941E+01  0.51100000000E-03 0. -1.
        -11    1    3    3    0    0  0.28228420639E+01  0.13224812508E+02  0.17956865251E+02  0.22479170649E+02  0.51100000000E-03 0.  1.
         12    1    3    3    0    0 -0.68723115247E+01  0.15198322565E+02  0.15264996797E+02  0.22610568363E+02  0.00000000000E+00 0. -1.
</event>
<event>
 7    1  0.4723144E-009  0.4778727E+02  0.7816164E-02  0.1312668E+00
        -11   -1    0    0    0    0  0.00000000000E+00  0.00000000000E+00  0.45593999997E+02  0.45594000000E+02  0.51100000000E-03 0.  1.
         11   -1    0    0    0    0 -0.00000000000E+00 -0.00000000000E+00 -0.45593999997E+02  0.45594000000E+02  0.51100000000E-03 0. -1.
    9900012    2    1    2    0    0  0.17884985572E+01 -0.55481948771E+01  0.43007464519E+02  0.47787271921E+02  0.20000003995E+02 0.  0.
         12    1    1    2    0    0 -0.17884985572E+01  0.55481948771E+01 -0.43007464519E+02  0.43400728079E+02  0.00000000000E+00 0. -1.
         11    1    3    3    0    0 -0.42475504084E+01 -0.95656452595E+01  0.20484004348E+02  0.23002993025E+02  0.51100000000E-03 0. -1.
        -11    1    3    3    0    0  0.64143097076E+01  0.41978548309E+01  0.11917959822E+02  0.14170501783E+02  0.51100000000E-03 0.  1.
        -12    1    3    3    0    0 -0.37826074197E+00 -0.18040444843E+00  0.10605500349E+02  0.10613777113E+02  0.00000000000E+00 0.  1.
</event>
<event>
 7    1  0.4723144E-009  0.4778727E+02  0.7816164E-02  0.1312668E+00
        -11   -1    0    0    0    0  0.00000000000E+00  0.00000000000E+00  0.45593999997E+02  0.45594000000E+02  0.51100000000E-03 0. -1.
         11   -1    0    0    0    0 -0.00000000000E+00 -0.00000000000E+00 -0.45593999997E+02  0.45594000000E+02  0.51100000000E-03 0.  1.
    9900012    2    1    2    0    0 -0.14161108767E+02 -0.20134506005E+02 -0.35744761241E+02  0.47787270861E+02  0.19999999164E+02 0.  0.
         12    1    1    2    0    0  0.14161108767E+02  0.20134506005E+02  0.35744761241E+02  0.43400729139E+02  0.00000000000E+00 0. -1.
         11    1    3    3    0    0 -0.69858305167E+00 -0.12040651689E+02 -0.21445443421E+02  0.24604315783E+02  0.51100000000E-03 0. -1.
        -11    1    3    3    0    0 -0.56469515760E+01 -0.14330221352E+01 -0.31655232979E+00  0.58345368437E+01  0.51100000000E-03 0.  1.
        -12    1    3    3    0    0 -0.78155741389E+01 -0.66608321807E+01 -0.13982765491E+02  0.17348418234E+02  0.00000000000E+00 0.  1.
</event>
<event>
 7    1  0.4723144E-009  0.4778726E+02  0.7816164E-02  0.1312668E+00
        -11   -1    0    0    0    0  0.00000000000E+00  0.00000000000E+00  0.45593999997E+02  0.45594000000E+02  0.51100000000E-03 0.  1.
         11   -1    0    0    0    0 -0.00000000000E+00 -0.00000000000E+00 -0.45593999997E+02  0.45594000000E+02  0.51100000000E-03 0. -1.
    9900012    2    1    2    0    0 -0.33280061806E+02 -0.63514749061E+01  0.27124161813E+02  0.47787263815E+02  0.19999967040E+02 0.  0.
         12    1    1    2    0    0  0.33280061806E+02  0.63514749061E+01 -0.27124161813E+02  0.43400736185E+02  0.00000000000E+00 0. -1.
         11    1    3    3    0    0 -0.12243994073E+02 -0.76604111828E+01  0.32217476387E+01  0.14797869727E+02  0.51100000000E-03 0. -1.
        -11    1    3    3    0    0 -0.12707169629E+02  0.45506951705E+01  0.11690712733E+02  0.17856476443E+02  0.51100000000E-03 0.  1.
         12    1    3    3    0    0 -0.83288981040E+01 -0.32417588937E+01  0.12211701441E+02  0.15132917645E+02  0.00000000000E+00 0. -1.
</event>
<event>
 7    1  0.4723144E-009  0.4778727E+02  0.7816164E-02  0.1312668E+00
        -11   -1    0    0    0    0  0.00000000000E+00  0.00000000000E+00  0.45593999997E+02  0.45594000000E+02  0.51100000000E-03 0.  1.
         11   -1    0    0    0    0 -0.00000000000E+00 -0.00000000000E+00 -0.45593999997E+02  0.45594000000E+02  0.51100000000E-03 0. -1.
    9900012    2    1    2    0    0  0.36736135882E+01  0.16063385123E+02  0.40150912300E+02  0.47787268014E+02  0.19999986184E+02 0.  0.
         12    1    1    2    0    0 -0.36736135882E+01 -0.16063385123E+02 -0.40150912300E+02  0.43400731986E+02  0.00000000000E+00 0. -1.
         11    1    3    3    0    0  0.44837405562E+01  0.88678673727E+01  0.45223398971E+01  0.10917626094E+02  0.51100000000E-03 0. -1.
        -11    1    3    3    0    0  0.14206469550E+01  0.92839924634E+00  0.17082568996E+02  0.17166663237E+02  0.51100000000E-03 0.  1.
         12    1    3    3    0    0 -0.22307739230E+01  0.62671185040E+01  0.18546003407E+02  0.19702978684E+02  0.00000000000E+00 0. -1.
</event>
<event>
 7    1  0.4723144E-009  0.4778727E+02  0.7816164E-02  0.1312668E+00
        -11   -1    0    0    0    0  0.00000000000E+00  0.00000000000E+00  0.45593999997E+02  0.45594000000E+02  0.51100000000E-03 0. -1.
         11   -1    0    0    0    0 -0.00000000000E+00 -0.00000000000E+00 -0.45593999997E+02  0.45594000000E+02  0.51100000000E-03 0.  1.
    9900012    2    1    2    0    0  0.28068133085E+02  0.30937344813E+02  0.11776422085E+02  0.47787268254E+02  0.19999987275E+02 0.  0.
         12    1    1    2    0    0 -0.28068133085E+02 -0.30937344813E+02 -0.11776422085E+02  0.43400731746E+02  0.00000000000E+00 0. -1.
         11    1    3    3    0    0  0.30361455974E+01  0.70633214082E+01 -0.15070345221E+01  0.78345288764E+01  0.51100000000E-03 0. -1.
        -11    1    3    3    0    0  0.22399731292E+02  0.25403789534E+02  0.96589745868E+01  0.35219260000E+02  0.51100000000E-03 0.  1.
        -12    1    3    3    0    0  0.26322561960E+01 -0.15297661291E+01  0.36244820208E+01  0.47334793768E+01  0.00000000000E+00 0.  1.
</event>
<event>
 7    1  0.4723144E-009  0.4778726E+02  0.7816164E-02  0.1312668E+00
        -11   -1    0    0    0    0  0.00000000000E+00  0.00000000000E+00  0.45593999997E+02  0.45594000000E+02  0.51100000000E-03 0.  1.
         11   -1    0    0    0    0 -0.00000000000E+00 -0.00000000000E+00 -0.45593999997E+02  0.45594000000E+02  0.51100000000E-03 0. -1.
    9900012    2    1    2    0    0 -0.30171990893E+02  0.16042058800E+02 -0.26756816945E+02  0.47787263393E+02  0.19999965116E+02 0.  0.
         12    1    1    2    0    0  0.30171990893E+02 -0.16042058800E+02  0.26756816945E+02  0.43400736607E+02  0.00000000000E+00 0. -1.
         11    1    3    3    0    0 -0.26364989975E+02  0.50990109973E+01 -0.20641710674E+02  0.33870235154E+02  0.51100000000E-03 0. -1.
        -11    1    3    3    0    0  0.45028066713E+00  0.58030103197E+01 -0.30803408836E+01  0.65853004237E+01  0.51100000000E-03 0.  1.
         12    1    3    3    0    0 -0.42572815846E+01  0.51400374826E+01 -0.30347653869E+01  0.73317278159E+01  0.00000000000E+00 0. -1.
</event>
<event>
 7    1  0.4723144E-009  0.4778727E+02  0.7816164E-02  0.1312668E+00
        -11   -1    0    0    0    0  0.00000000000E+00  0.00000000000E+00  0.45593999997E+02  0.45594000000E+02  0.51100000000E-03 0. -1.
         11   -1    0    0    0    0 -0.00000000000E+00 -0.00000000000E+00 -0.45593999997E+02  0.45594000000E+02  0.51100000000E-03 0.  1.
    9900012    2    1    2    0    0  0.35777672528E+02  0.20606551110E+02  0.13377272895E+02  0.47787271546E+02  0.20000002289E+02 0.  0.
         12    1    1    2    0    0 -0.35777672528E+02 -0.20606551110E+02 -0.13377272895E+02  0.43400728454E+02  0.00000000000E+00 0. -1.
         11    1    3    3    0    0  0.34174110342E+02  0.16164277487E+02  0.11479731975E+02  0.39508707025E+02  0.51100000000E-03 0.  1.
        -11    1    3    3    0    0 -0.84653760924E+00  0.46742118304E+01  0.29610377117E+01  0.55975554263E+01  0.51100000000E-03 0. -1.
         12    1    3    3    0    0  0.24500997956E+01 -0.23193820751E+00 -0.10634967917E+01  0.26810090948E+01  0.00000000000E+00 0. -1.
</event>
<event>
 7    1  0.4723144E-009  0.4778727E+02  0.7816164E-02  0.1312668E+00
        -11   -1    0    0    0    0  0.00000000000E+00  0.00000000000E+00  0.45593999997E+02  0.45594000000E+02  0.51100000000E-03 0.  1.
         11   -1    0    0    0    0 -0.00000000000E+00 -0.00000000000E+00 -0.45593999997E+02  0.45594000000E+02  0.51100000000E-03 0. -1.
    9900012    2    1    2    0    0  0.41327940474E+02  0.18874709762E+01  0.13117252928E+02  0.47787268037E+02  0.19999986289E+02 0.  0.
         12    1    1    2    0    0 -0.41327940474E+02 -0.18874709762E+01 -0.13117252928E+02  0.43400731963E+02  0.00000000000E+00 0. -1.
         11    1    3    3    0    0  0.49100703557E+01  0.72582306646E+00 -0.26021078768E+01  0.56041570004E+01  0.51100000000E-03 0. -1.
        -11    1    3    3    0    0  0.14258325945E+02 -0.34645809717E+01  0.12582867343E+02  0.19329555890E+02  0.51100000000E-03 0.  1.
        -12    1    3    3    0    0  0.22159544173E+02  0.46262288815E+01  0.31364934620E+01  0.22853555147E+02  0.00000000000E+00 0.  1.
</event>
<event>
 7    1  0.4723144E-009  0.4778727E+02  0.7816164E-02  0.1312668E+00
        -11   -1    0    0    0    0  0.00000000000E+00  0.00000000000E+00  0.45593999997E+02  0.45594000000E+02  0.51100000000E-03 0.  1.
         11   -1    0    0    0    0 -0.00000000000E+00 -0.00000000000E+00 -0.45593999997E+02  0.45594000000E+02  0.51100000000E-03 0. -1.
    9900012    2    1    2    0    0 -0.40673147157E+02  0.13265071659E+02 -0.73045452351E+01  0.47787269513E+02  0.19999993016E+02 0.  0.
         12    1    1    2    0    0  0.40673147157E+02 -0.13265071659E+02  0.73045452351E+01  0.43400730487E+02  0.00000000000E+00 0. -1.
         11    1    3    3    0    0  0.13925270564E+01  0.10867861949E+01 -0.37959717719E+00  0.18067457249E+01  0.51100000000E-03 0. -1.
        -11    1    3    3    0    0 -0.29234012274E+02  0.59586859160E+01  0.63301768456E+00  0.29841818362E+02  0.51100000000E-03 0.  1.
        -12    1    3    3    0    0 -0.12831661938E+02  0.62195995485E+01 -0.75579657425E+01  0.16138705426E+02  0.00000000000E+00 0.  1.
</event>
<event>
 7    1  0.4723144E-009  0.4778727E+02  0.7816164E-02  0.1312668E+00
        -11   -1    0    0    0    0  0.00000000000E+00  0.00000000000E+00  0.45593999997E+02  0.45594000000E+02  0.51100000000E-03 0.  1.
         11   -1    0    0    0    0 -0.00000000000E+00 -0.00000000000E+00 -0.45593999997E+02  0.45594000000E+02  0.51100000000E-03 0. -1.
    9900012    2    1    2    0    0  0.27255123765E+01 -0.28040674730E+02  0.33013864487E+02  0.47787272986E+02  0.20000008851E+02 0.  0.
         12    1    1    2    0    0 -0.27255123765E+01  0.28040674730E+02 -0.33013864487E+02  0.43400727014E+02  0.00000000000E+00 0. -1.
         11    1    3    3    0    0 -0.11368003526E+01 -0.17698333637E+02  0.96668571569E+01  0.20198303298E+02  0.51100000000E-03 0. -1.
        -11    1    3    3    0    0  0.13046759720E+01 -0.11708310210E+02  0.19275362588E+02  0.22590403062E+02  0.51100000000E-03 0.  1.
         12    1    3    3    0    0  0.25576367571E+01  0.13659691163E+01  0.40716447416E+01  0.49985666255E+01  0.00000000000E+00 0. -1.
</event>
<event>
 7    1  0.4723144E-009  0.4778727E+02  0.7816164E-02  0.1312668E+00
        -11   -1    0    0    0    0  0.00000000000E+00  0.00000000000E+00  0.45593999997E+02  0.45594000000E+02  0.51100000000E-03 0. -1.
         11   -1    0    0    0    0 -0.00000000000E+00 -0.00000000000E+00 -0.45593999997E+02  0.45594000000E+02  0.51100000000E-03 0.  1.
    9900012    2    1    2    0    0 -0.30037623961E+02 -0.30844784992E+02 -0.54739034907E+01  0.47787271506E+02  0.20000002104E+02 0.  0.
         12    1    1    2    0    0  0.30037623961E+02  0.30844784992E+02  0.54739034907E+01  0.43400728494E+02  0.00000000000E+00 0. -1.
         11    1    3    3    0    0 -0.10913180814E+01  0.23857865317E+01 -0.11354679945E+00  0.26259942243E+01  0.51100000000E-03 0. -1.
        -11    1    3    3    0    0 -0.58690815103E+01 -0.91264926916E+01  0.18859933466E+01  0.11013444411E+02  0.51100000000E-03 0.  1.
         12    1    3    3    0    0 -0.23077224369E+02 -0.24104078832E+02 -0.72463500379E+01  0.34147832871E+02  0.00000000000E+00 0. -1.
</event>
<event>
 7    1  0.4723144E-009  0.4778727E+02  0.7816164E-02  0.1312668E+00
        -11   -1    0    0    0    0  0.00000000000E+00  0.00000000000E+00  0.45593999997E+02  0.45594000000E+02  0.51100000000E-03 0.  1.
         11   -1    0    0    0    0 -0.00000000000E+00 -0.00000000000E+00 -0.45593999997E+02  0.45594000000E+02  0.51100000000E-03 0. -1.
    9900012    2    1    2    0    0 -0.23491289433E+02 -0.45725686429E+01  0.36205995953E+02  0.47787271825E+02  0.20000003558E+02 0.  0.
         12    1    1    2    0    0  0.23491289433E+02  0.45725686429E+01 -0.36205995953E+02  0.43400728175E+02  0.00000000000E+00 0. -1.
         11    1    3    3    0    0 -0.45513795275E+00 -0.50119854083E+01  0.16012474891E+01  0.52812064977E+01  0.51100000000E-03 0. -1.
        -11    1    3    3    0    0 -0.20564174795E+02  0.31719572742E+01  0.27309008079E+02  0.34332615986E+02  0.51100000000E-03 0.  1.
         12    1    3    3    0    0 -0.24719766847E+01 -0.27325405088E+01  0.72957403851E+01  0.81734493409E+01  0.00000000000E+00 0. -1.
</event>
<event>
 7    1  0.4723144E-009  0.4778727E+02  0.7816164E-02  0.1312668E+00
        -11   -1    0    0    0    0  0.00000000000E+00  0.00000000000E+00  0.45593999997E+02  0.45594000000E+02  0.51100000000E-03 0. -1.
         11   -1    0    0    0    0 -0.00000000000E+00 -0.00000000000E+00 -0.45593999997E+02  0.45594000000E+02  0.51100000000E-03 0.  1.
    9900012    2    1    2    0    0 -0.18300654276E+02 -0.15319619862E+02  0.36249393594E+02  0.47787271486E+02  0.20000002011E+02 0.  0.
         12    1    1    2    0    0  0.18300654276E+02  0.15319619862E+02 -0.36249393594E+02  0.43400728514E+02  0.00000000000E+00 0. -1.
         11    1    3    3    0    0 -0.72779040382E+01 -0.17992929997E+02  0.21801984330E+02  0.29189723158E+02  0.51100000000E-03 0. -1.
        -11    1    3    3    0    0 -0.78367490360E+01  0.21508630207E+01  0.80875648931E+01  0.11465145152E+02  0.51100000000E-03 0.  1.
         12    1    3    3    0    0 -0.31860012022E+01  0.52244711371E+00  0.63598443701E+01  0.71324031756E+01  0.00000000000E+00 0. -1.
</event>
<event>
 7    1  0.4723144E-009  0.4778727E+02  0.7816164E-02  0.1312668E+00
        -11   -1    0    0    0    0  0.00000000000E+00  0.00000000000E+00  0.45593999997E+02  0.45594000000E+02  0.51100000000E-03 0.  1.
         11   -1    0    0    0    0 -0.00000000000E+00 -0.00000000000E+00 -0.45593999997E+02  0.45594000000E+02  0.51100000000E-03 0. -1.
    9900012    2    1    2    0    0  0.24156010210E+02 -0.35384796468E+02  0.69301219315E+01  0.47787271431E+02  0.20000001763E+02 0.  0.
         12    1    1    2    0    0 -0.24156010210E+02  0.35384796468E+02 -0.69301219315E+01  0.43400728569E+02  0.00000000000E+00 0. -1.
         11    1    3    3    0    0  0.46966633387E+01 -0.28325605166E+01 -0.27032784500E+01  0.61147166931E+01  0.51100000000E-03 0. -1.
        -11    1    3    3    0    0  0.20266648600E+02 -0.30600590552E+02  0.11890603399E+02  0.38581337937E+02  0.51100000000E-03 0.  1.
        -12    1    3    3    0    0 -0.80730172862E+00 -0.19516453994E+01 -0.22572030174E+01  0.30912168006E+01  0.00000000000E+00 0.  1.
</event>
<event>
 7    1  0.4723144E-009  0.4778727E+02  0.7816164E-02  0.1312668E+00
        -11   -1    0    0    0    0  0.00000000000E+00  0.00000000000E+00  0.45593999997E+02  0.45594000000E+02  0.51100000000E-03 0.  1.
         11   -1    0    0    0    0 -0.00000000000E+00 -0.00000000000E+00 -0.45593999997E+02  0.45594000000E+02  0.51100000000E-03 0. -1.
    9900012    2    1    2    0    0 -0.34418057066E+02 -0.20288120033E+02  0.16953249870E+02  0.47787272496E+02  0.20000006621E+02 0.  0.
         12    1    1    2    0    0  0.34418057066E+02  0.20288120033E+02 -0.16953249870E+02  0.43400727504E+02  0.00000000000E+00 0. -1.
         11    1    3    3    0    0 -0.18972037113E+02 -0.97654219199E+01  0.33388719090E+01  0.21597447150E+02  0.51100000000E-03 0. -1.
        -11    1    3    3    0    0 -0.14452540604E+02 -0.39346782558E+01  0.61703914127E+01  0.16199733126E+02  0.51100000000E-03 0.  1.
         12    1    3    3    0    0 -0.99347934854E+00 -0.65880198575E+01  0.74439865479E+01  0.99900922210E+01  0.00000000000E+00 0. -1.
</event>
<event>
 7    1  0.4723144E-009  0.4778728E+02  0.7816164E-02  0.1312668E+00
        -11   -1    0    0    0    0  0.00000000000E+00  0.00000000000E+00  0.45593999997E+02  0.45594000000E+02  0.51100000000E-03 0. -1.
         11   -1    0    0    0    0 -0.00000000000E+00 -0.00000000000E+00 -0.45593999997E+02  0.45594000000E+02  0.51100000000E-03 0.  1.
    9900012    2    1    2    0    0  0.25791188177E+02  0.25273271200E+02  0.24076941419E+02  0.47787277278E+02  0.20000028421E+02 0.  0.
         12    1    1    2    0    0 -0.25791188177E+02 -0.25273271200E+02 -0.24076941419E+02  0.43400722722E+02  0.00000000000E+00 0. -1.
         11    1    3    3    0    0  0.15083116773E+01 -0.59524930768E+00  0.61481250578E+01  0.63583620408E+01  0.51100000000E-03 0. -1.
        -11    1    3    3    0    0  0.25081064168E+02  0.22125308599E+02  0.15255059168E+02  0.36760112771E+02  0.51100000000E-03 0.  1.
         12    1    3    3    0    0 -0.79818766861E+00  0.37432119080E+01  0.26737571931E+01  0.46688024664E+01  0.00000000000E+00 0. -1.
</event>
<event>
 7    1  0.4723144E-009  0.4778727E+02  0.7816164E-02  0.1312668E+00
        -11   -1    0    0    0    0  0.00000000000E+00  0.00000000000E+00  0.45593999997E+02  0.45594000000E+02  0.51100000000E-03 0. -1.
         11   -1    0    0    0    0 -0.00000000000E+00 -0.00000000000E+00 -0.45593999997E+02  0.45594000000E+02  0.51100000000E-03 0.  1.
    9900012    2    1    2    0    0  0.37122764525E+02  0.22257853666E+02  0.31798584669E+01  0.47787271945E+02  0.20000004106E+02 0.  0.
         12    1    1    2    0    0 -0.37122764525E+02 -0.22257853666E+02 -0.31798584669E+01  0.43400728055E+02  0.00000000000E+00 0. -1.
         11    1    3    3    0    0  0.14827214512E+02  0.57428673566E+01  0.96612735755E+01  0.18605564303E+02  0.51100000000E-03 0. -1.
        -11    1    3    3    0    0  0.91718561398E+01  0.10643567601E+02 -0.38195734101E+01  0.14560137967E+02  0.51100000000E-03 0.  1.
        -12    1    3    3    0    0  0.13123693874E+02  0.58714187088E+01 -0.26618416985E+01  0.14621569675E+02  0.00000000000E+00 0.  1.
</event>
<event>
 7    1  0.4723144E-009  0.4778728E+02  0.7816164E-02  0.1312668E+00
        -11   -1    0    0    0    0  0.00000000000E+00  0.00000000000E+00  0.45593999997E+02  0.45594000000E+02  0.51100000000E-03 0.  1.
         11   -1    0    0    0    0 -0.00000000000E+00 -0.00000000000E+00 -0.45593999997E+02  0.45594000000E+02  0.51100000000E-03 0. -1.
    9900012    2    1    2    0    0 -0.31225759552E+02  0.28885760589E+02  0.86132195355E+01  0.47787276790E+02  0.20000026195E+02 0.  0.
         12    1    1    2    0    0  0.31225759552E+02 -0.28885760589E+02 -0.86132195355E+01  0.43400723210E+02  0.00000000000E+00 0. -1.
         11    1    3    3    0    0 -0.73211969309E+01  0.11814873956E+02 -0.41729401183E+01  0.14512222455E+02  0.51100000000E-03 0. -1.
        -11    1    3    3    0    0 -0.24185415904E+02  0.14787969590E+02  0.12405096522E+02  0.30943574568E+02  0.51100000000E-03 0.  1.
         12    1    3    3    0    0  0.28085328306E+00  0.22829170428E+01  0.38106313205E+00  0.23314797664E+01  0.00000000000E+00 0. -1.
</event>
<event>
 7    1  0.4723144E-009  0.4778727E+02  0.7816164E-02  0.1312668E+00
        -11   -1    0    0    0    0  0.00000000000E+00  0.00000000000E+00  0.45593999997E+02  0.45594000000E+02  0.51100000000E-03 0.  1.
         11   -1    0    0    0    0 -0.00000000000E+00 -0.00000000000E+00 -0.45593999997E+02  0.45594000000E+02  0.51100000000E-03 0. -1.
    9900012    2    1    2    0    0  0.33267199681E+02 -0.13654241612E+02  0.24299755021E+02  0.47787274399E+02  0.20000015295E+02 0.  0.
         12    1    1    2    0    0 -0.33267199681E+02  0.13654241612E+02 -0.24299755021E+02  0.43400725601E+02  0.00000000000E+00 0. -1.
         11    1    3    3    0    0  0.71600289951E+00 -0.70616648115E+00  0.16280799572E+00  0.10187433218E+01  0.51100000000E-03 0. -1.
        -11    1    3    3    0    0  0.20799450539E+02  0.35828099681E+00  0.19280542202E+02  0.28363441538E+02  0.51100000000E-03 0.  1.
        -12    1    3    3    0    0  0.11751746242E+02 -0.13306356128E+02  0.48564048232E+01  0.18405089540E+02  0.00000000000E+00 0.  1.
</event>
<event>
 7    1  0.4723144E-009  0.4778727E+02  0.7816164E-02  0.1312668E+00
        -11   -1    0    0    0    0  0.00000000000E+00  0.00000000000E+00  0.45593999997E+02  0.45594000000E+02  0.51100000000E-03 0.  1.
         11   -1    0    0    0    0 -0.00000000000E+00 -0.00000000000E+00 -0.45593999997E+02  0.45594000000E+02  0.51100000000E-03 0. -1.
    9900012    2    1    2    0    0 -0.30777961068E+02 -0.20799627943E+02  0.22443614585E+02  0.47787271369E+02  0.20000001480E+02 0.  0.
         12    1    1    2    0    0  0.30777961068E+02  0.20799627943E+02 -0.22443614585E+02  0.43400728631E+02  0.00000000000E+00 0. -1.
         11    1    3    3    0    0  0.16961633279E+00  0.22165587871E+01  0.11943525044E+01  0.25235650820E+01  0.51100000000E-03 0. -1.
        -11    1    3    3    0    0 -0.26628019224E+02 -0.22417951302E+02  0.21470322947E+02  0.40897319180E+02  0.51100000000E-03 0.  1.
        -12    1    3    3    0    0 -0.43195581759E+01 -0.59823542767E+00 -0.22106086621E+00  0.43663871071E+01  0.00000000000E+00 0.  1.
</event>
<event>
 7    1  0.4723144E-009  0.4778727E+02  0.7816164E-02  0.1312668E+00
        -11   -1    0    0    0    0  0.00000000000E+00  0.00000000000E+00  0.45593999997E+02  0.45594000000E+02  0.51100000000E-03 0. -1.
         11   -1    0    0    0    0 -0.00000000000E+00 -0.00000000000E+00 -0.45593999997E+02  0.45594000000E+02  0.51100000000E-03 0.  1.
    9900012    2    1    2    0    0 -0.22135416793E+02 -0.19993691298E+02 -0.31526160870E+02  0.47787272039E+02  0.20000004536E+02 0.  0.
         12    1    1    2    0    0  0.22135416793E+02  0.19993691298E+02  0.31526160870E+02  0.43400727961E+02  0.00000000000E+00 0. -1.
         11    1    3    3    0    0 -0.18419440711E+02 -0.33299740108E+01 -0.17346113524E+02  0.25519642977E+02  0.51100000000E-03 0. -1.
        -11    1    3    3    0    0 -0.90641548006E+00 -0.80502533705E+01 -0.70281719203E+01  0.10724894832E+02  0.51100000000E-03 0.  1.
         12    1    3    3    0    0 -0.28095606021E+01 -0.86134639163E+01 -0.71518754260E+01  0.11542734231E+02  0.00000000000E+00 0. -1.
</event>
<event>
 7    1  0.4723144E-009  0.4778726E+02  0.7816164E-02  0.1312668E+00
        -11   -1    0    0    0    0  0.00000000000E+00  0.00000000000E+00  0.45593999997E+02  0.45594000000E+02  0.51100000000E-03 0.  1.
         11   -1    0    0    0    0 -0.00000000000E+00 -0.00000000000E+00 -0.45593999997E+02  0.45594000000E+02  0.51100000000E-03 0. -1.
    9900012    2    1    2    0    0 -0.28336082877E+02  0.18911544634E+02  0.26889477189E+02  0.47787261565E+02  0.19999956779E+02 0.  0.
         12    1    1    2    0    0  0.28336082877E+02 -0.18911544634E+02 -0.26889477189E+02  0.43400738435E+02  0.00000000000E+00 0. -1.
         11    1    3    3    0    0 -0.10041545614E+02 -0.10590840060E+00  0.10399822606E+02  0.14456838016E+02  0.51100000000E-03 0. -1.
        -11    1    3    3    0    0 -0.62403063849E+01  0.14529677877E+02  0.67359860651E+01  0.17187974619E+02  0.51100000000E-03 0.  1.
        -12    1    3    3    0    0 -0.12054230878E+02  0.44877751577E+01  0.97536685178E+01  0.16142448930E+02  0.00000000000E+00 0.  1.
</event>
<event>
 7    1  0.4723144E-009  0.4778727E+02  0.7816164E-02  0.1312668E+00
        -11   -1    0    0    0    0  0.00000000000E+00  0.00000000000E+00  0.45593999997E+02  0.45594000000E+02  0.51100000000E-03 0.  1.
         11   -1    0    0    0    0 -0.00000000000E+00 -0.00000000000E+00 -0.45593999997E+02  0.45594000000E+02  0.51100000000E-03 0. -1.
    9900012    2    1    2    0    0 -0.14633849419E+02 -0.32174843502E+02  0.25184381784E+02  0.47787272021E+02  0.20000004454E+02 0.  0.
         12    1    1    2    0    0  0.14633849419E+02  0.32174843502E+02 -0.25184381784E+02  0.43400727979E+02  0.00000000000E+00 0. -1.
         11    1    3    3    0    0 -0.37732706399E+01 -0.19262870941E+02  0.47728523387E+01  0.20200888296E+02  0.51100000000E-03 0. -1.
        -11    1    3    3    0    0 -0.11311248348E+02 -0.86634035872E+01  0.14944164826E+02  0.20647686638E+02  0.51100000000E-03 0.  1.
        -12    1    3    3    0    0  0.45066956913E+00 -0.42485689738E+01  0.54673646197E+01  0.69386970873E+01  0.00000000000E+00 0.  1.
</event>
<event>
 7    1  0.4723144E-009  0.4778727E+02  0.7816164E-02  0.1312668E+00
        -11   -1    0    0    0    0  0.00000000000E+00  0.00000000000E+00  0.45593999997E+02  0.45594000000E+02  0.51100000000E-03 0.  1.
         11   -1    0    0    0    0 -0.00000000000E+00 -0.00000000000E+00 -0.45593999997E+02  0.45594000000E+02  0.51100000000E-03 0. -1.
    9900012    2    1    2    0    0  0.19857637608E+01 -0.42677932404E+02  0.76337506474E+01  0.47787270502E+02  0.19999997526E+02 0.  0.
         12    1    1    2    0    0 -0.19857637608E+01  0.42677932404E+02 -0.76337506474E+01  0.43400729498E+02  0.00000000000E+00 0. -1.
         11    1    3    3    0    0  0.64558513126E+01 -0.52747504486E+01 -0.94197724026E+00  0.83897753157E+01  0.51100000000E-03 0. -1.
        -11    1    3    3    0    0  0.37871417932E+00 -0.91151006496E+01 -0.91410350837E+00  0.91686460160E+01  0.51100000000E-03 0.  1.
         12    1    3    3    0    0 -0.48488017311E+01 -0.28288081306E+02  0.94898313960E+01  0.30228849170E+02  0.00000000000E+00 0. -1.
</event>
<event>
 7    1  0.4723144E-009  0.4778727E+02  0.7816164E-02  0.1312668E+00
        -11   -1    0    0    0    0  0.00000000000E+00  0.00000000000E+00  0.45593999997E+02  0.45594000000E+02  0.51100000000E-03 0.  1.
         11   -1    0    0    0    0 -0.00000000000E+00 -0.00000000000E+00 -0.45593999997E+02  0.45594000000E+02  0.51100000000E-03 0. -1.
    9900012    2    1    2    0    0 -0.30008803340E+02 -0.15538646514E+02  0.27233168955E+02  0.47787270689E+02  0.19999998380E+02 0.  0.
         12    1    1    2    0    0  0.30008803340E+02  0.15538646514E+02 -0.27233168955E+02  0.43400729311E+02  0.00000000000E+00 0. -1.
         11    1    3    3    0    0  0.61865797888E+00  0.11792007284E+01 -0.12711892601E+01  0.18409710614E+01  0.51100000000E-03 0. -1.
        -11    1    3    3    0    0 -0.20439040726E+02 -0.14512038798E+02  0.23589980505E+02  0.34421517055E+02  0.51100000000E-03 0.  1.
        -12    1    3    3    0    0 -0.10188420593E+02 -0.22058084441E+01  0.49143777102E+01  0.11524782573E+02  0.00000000000E+00 0.  1.
</event>
<event>
 7    1  0.4723144E-009  0.4778726E+02  0.7816164E-02  0.1312668E+00
        -11   -1    0    0    0    0  0.00000000000E+00  0.00000000000E+00  0.45593999997E+02  0.45594000000E+02  0.51100000000E-03 0. -1.
         11   -1    0    0    0    0 -0.00000000000E+00 -0.00000000000E+00 -0.45593999997E+02  0.45594000000E+02  0.51100000000E-03 0.  1.
    9900012    2    1    2    0    0  0.40626675219E+02 -0.77771027986E+01 -0.13138258258E+02  0.47787263862E+02  0.19999967251E+02 0.  0.
         12    1    1    2    0    0 -0.40626675219E+02  0.77771027986E+01  0.13138258258E+02  0.43400736138E+02  0.00000000000E+00 0. -1.
         11    1    3    3    0    0  0.59475363863E+01  0.54388643661E+01 -0.14647742963E+01  0.81914588847E+01  0.51100000000E-03 0. -1.
        -11    1    3    3    0    0  0.16541292119E+02 -0.78221197357E+01 -0.21857768232E+01  0.18427629329E+02  0.51100000000E-03 0.  1.
         12    1    3    3    0    0  0.18137846714E+02 -0.53938474290E+01 -0.94877071390E+01  0.21168175648E+02  0.00000000000E+00 0. -1.
</event>
<event>
 7    1  0.4723144E-009  0.4778727E+02  0.7816164E-02  0.1312668E+00
        -11   -1    0    0    0    0  0.00000000000E+00  0.00000000000E+00  0.45593999997E+02  0.45594000000E+02  0.51100000000E-03 0. -1.
         11   -1    0    0    0    0 -0.00000000000E+00 -0.00000000000E+00 -0.45593999997E+02  0.45594000000E+02  0.51100000000E-03 0.  1.
    9900012    2    1    2    0    0 -0.29897138123E+01 -0.18140979078E+02 -0.39313986731E+02  0.47787273471E+02  0.20000011063E+02 0.  0.
         12    1    1    2    0    0  0.29897138123E+01  0.18140979078E+02  0.39313986731E+02  0.43400726529E+02  0.00000000000E+00 0. -1.
         11    1    3    3    0    0  0.41911142724E+01 -0.11832082844E+02 -0.18502414086E+02  0.22358509578E+02  0.51100000000E-03 0. -1.
        -11    1    3    3    0    0 -0.82646505141E+01 -0.80848704792E+01 -0.13244386369E+02  0.17580766461E+02  0.51100000000E-03 0.  1.
         12    1    3    3    0    0  0.10838224295E+01  0.17759742447E+01 -0.75671862754E+01  0.78479974327E+01  0.00000000000E+00 0. -1.
</event>
<event>
 7    1  0.4723144E-009  0.4778727E+02  0.7816164E-02  0.1312668E+00
        -11   -1    0    0    0    0  0.00000000000E+00  0.00000000000E+00  0.45593999997E+02  0.45594000000E+02  0.51100000000E-03 0. -1.
         11   -1    0    0    0    0 -0.00000000000E+00 -0.00000000000E+00 -0.45593999997E+02  0.45594000000E+02  0.51100000000E-03 0.  1.
    9900012    2    1    2    0    0  0.12865691927E+02  0.40349703054E+02 -0.94867670116E+01  0.47787270586E+02  0.19999997911E+02 0.  0.
         12    1    1    2    0    0 -0.12865691927E+02 -0.40349703054E+02  0.94867670116E+01  0.43400729414E+02  0.00000000000E+00 0. -1.
         11    1    3    3    0    0  0.13996903729E+01  0.29704122023E+02 -0.44339790017E+01  0.30065830578E+02  0.51100000000E-03 0. -1.
        -11    1    3    3    0    0  0.11735944233E+02  0.11283387564E+02 -0.49807129407E+01  0.17025120370E+02  0.51100000000E-03 0.  1.
         12    1    3    3    0    0 -0.26994267860E+00 -0.63780653291E+00 -0.72075069125E-01  0.69631963834E+00  0.00000000000E+00 0. -1.
</event>
<event>
 7    1  0.4723144E-009  0.4778728E+02  0.7816164E-02  0.1312668E+00
        -11   -1    0    0    0    0  0.00000000000E+00  0.00000000000E+00  0.45593999997E+02  0.45594000000E+02  0.51100000000E-03 0.  1.
         11   -1    0    0    0    0 -0.00000000000E+00 -0.00000000000E+00 -0.45593999997E+02  0.45594000000E+02  0.51100000000E-03 0. -1.
    9900012    2    1    2    0    0 -0.11807911524E+02 -0.22070212791E+02  0.35455629364E+02  0.47787277416E+02  0.20000029052E+02 0.  0.
         12    1    1    2    0    0  0.11807911524E+02  0.22070212791E+02 -0.35455629364E+02  0.43400722584E+02  0.00000000000E+00 0. -1.
         11    1    3    3    0    0  0.24884806378E+01 -0.97573409841E+01  0.40811826916E+01  0.10865279168E+02  0.51100000000E-03 0. -1.
        -11    1    3    3    0    0 -0.10176716573E+02 -0.10355842590E+02  0.20416611326E+02  0.25052885148E+02  0.51100000000E-03 0.  1.
         12    1    3    3    0    0 -0.41196755884E+01 -0.19570292160E+01  0.10957835347E+02  0.11869113100E+02  0.00000000000E+00 0. -1.
</event>
<event>
 7    1  0.4723144E-009  0.4778727E+02  0.7816164E-02  0.1312668E+00
        -11   -1    0    0    0    0  0.00000000000E+00  0.00000000000E+00  0.45593999997E+02  0.45594000000E+02  0.51100000000E-03 0.  1.
         11   -1    0    0    0    0 -0.00000000000E+00 -0.00000000000E+00 -0.45593999997E+02  0.45594000000E+02  0.51100000000E-03 0. -1.
    9900012    2    1    2    0    0  0.14706993540E+02  0.34043826215E+02  0.22546521797E+02  0.47787269505E+02  0.19999992982E+02 0.  0.
         12    1    1    2    0    0 -0.14706993540E+02 -0.34043826215E+02 -0.22546521797E+02  0.43400730495E+02  0.00000000000E+00 0. -1.
         11    1    3    3    0    0  0.12922475673E+02  0.28208038572E+02  0.18732245289E+02  0.36243355687E+02  0.51100000000E-03 0. -1.
        -11    1    3    3    0    0  0.39686325478E+01  0.23517800512E+01  0.54307478373E+01  0.71255832071E+01  0.51100000000E-03 0.  1.
         12    1    3    3    0    0 -0.21841146799E+01  0.34840075915E+01 -0.16164713295E+01  0.44183306114E+01  0.00000000000E+00 0. -1.
</event>
<event>
 7    1  0.4723144E-009  0.4778727E+02  0.7816164E-02  0.1312668E+00
        -11   -1    0    0    0    0  0.00000000000E+00  0.00000000000E+00  0.45593999997E+02  0.45594000000E+02  0.51100000000E-03 0.  1.
         11   -1    0    0    0    0 -0.00000000000E+00 -0.00000000000E+00 -0.45593999997E+02  0.45594000000E+02  0.51100000000E-03 0. -1.
    9900012    2    1    2    0    0 -0.25145159932E+02  0.33405296131E+02  0.11637459182E+02  0.47787270354E+02  0.19999996852E+02 0.  0.
         12    1    1    2    0    0  0.25145159932E+02 -0.33405296131E+02 -0.11637459182E+02  0.43400729646E+02  0.00000000000E+00 0. -1.
         11    1    3    3    0    0 -0.37989872277E+01  0.16832182340E+02  0.10274717333E+02  0.20082940094E+02  0.51100000000E-03 0. -1.
        -11    1    3    3    0    0 -0.11727549818E+02  0.12741220649E+02  0.81443878607E+00  0.17336015665E+02  0.51100000000E-03 0.  1.
         12    1    3    3    0    0 -0.96186228863E+01  0.38318931423E+01  0.54830306295E+00  0.10368314595E+02  0.00000000000E+00 0. -1.
</event>
<event>
 7    1  0.4723144E-009  0.4778728E+02  0.7816164E-02  0.1312668E+00
        -11   -1    0    0    0    0  0.00000000000E+00  0.00000000000E+00  0.45593999997E+02  0.45594000000E+02  0.51100000000E-03 0. -1.
         11   -1    0    0    0    0 -0.00000000000E+00 -0.00000000000E+00 -0.45593999997E+02  0.45594000000E+02  0.51100000000E-03 0.  1.
    9900012    2    1    2    0    0  0.17638876870E+02 -0.12607325779E+02 -0.37597177732E+02  0.47787280951E+02  0.20000045168E+02 0.  0.
         12    1    1    2    0    0 -0.17638876870E+02  0.12607325779E+02  0.37597177732E+02  0.43400719049E+02  0.00000000000E+00 0. -1.
         11    1    3    3    0    0  0.33565536587E-01  0.64837579104E+00 -0.19612199810E-01  0.64954038455E+00  0.51100000000E-03 0. -1.
        -11    1    3    3    0    0 -0.11030689696E+01  0.29573915503E+01 -0.77936340144E+01  0.84085466845E+01  0.51100000000E-03 0.  1.
        -12    1    3    3    0    0  0.18708380303E+02 -0.16213093120E+02 -0.29783931518E+02  0.38729193882E+02  0.00000000000E+00 0.  1.
</event>
<event>
 7    1  0.4723144E-009  0.4778722E+02  0.7816164E-02  0.1312668E+00
        -11   -1    0    0    0    0  0.00000000000E+00  0.00000000000E+00  0.45593999997E+02  0.45594000000E+02  0.51100000000E-03 0.  1.
         11   -1    0    0    0    0 -0.00000000000E+00 -0.00000000000E+00 -0.45593999997E+02  0.45594000000E+02  0.51100000000E-03 0. -1.
    9900012    2    1    2    0    0 -0.31873615182E+02  0.19588407823E+02  0.21999876130E+02  0.47787221026E+02  0.19999771944E+02 0.  0.
         12    1    1    2    0    0  0.31873615182E+02 -0.19588407823E+02 -0.21999876130E+02  0.43400778974E+02  0.00000000000E+00 0. -1.
         11    1    3    3    0    0 -0.19687174808E+02  0.26070787293E+01  0.17081691028E+02  0.26194768181E+02  0.51100000000E-03 0. -1.
        -11    1    3    3    0    0 -0.65129309680E+01  0.91116709332E+01  0.37977988425E+01  0.11826415065E+02  0.51100000000E-03 0.  1.
         12    1    3    3    0    0 -0.56735094065E+01  0.78696581601E+01  0.11203862595E+01  0.97660377796E+01  0.00000000000E+00 0. -1.
</event>
<event>
 7    1  0.4723144E-009  0.4778728E+02  0.7816164E-02  0.1312668E+00
        -11   -1    0    0    0    0  0.00000000000E+00  0.00000000000E+00  0.45593999997E+02  0.45594000000E+02  0.51100000000E-03 0. -1.
         11   -1    0    0    0    0 -0.00000000000E+00 -0.00000000000E+00 -0.45593999997E+02  0.45594000000E+02  0.51100000000E-03 0.  1.
    9900012    2    1    2    0    0  0.30032996797E+02 -0.20275884922E+02 -0.23885777073E+02  0.47787277053E+02  0.20000027393E+02 0.  0.
         12    1    1    2    0    0 -0.30032996797E+02  0.20275884922E+02  0.23885777073E+02  0.43400722947E+02  0.00000000000E+00 0. -1.
         11    1    3    3    0    0  0.16629121063E+02 -0.19212593503E+02 -0.78706364091E+01  0.26600720557E+02  0.51100000000E-03 0. -1.
        -11    1    3    3    0    0  0.87265931270E+01 -0.22966223766E+01 -0.10794885945E+02  0.14069735775E+02  0.51100000000E-03 0.  1.
         12    1    3    3    0    0  0.46772826070E+01  0.12333309571E+01 -0.52202547191E+01  0.71168207205E+01  0.00000000000E+00 0. -1.
</event>
<event>
 7    1  0.4723144E-009  0.4778727E+02  0.7816164E-02  0.1312668E+00
        -11   -1    0    0    0    0  0.00000000000E+00  0.00000000000E+00  0.45593999997E+02  0.45594000000E+02  0.51100000000E-03 0. -1.
         11   -1    0    0    0    0 -0.00000000000E+00 -0.00000000000E+00 -0.45593999997E+02  0.45594000000E+02  0.51100000000E-03 0.  1.
    9900012    2    1    2    0    0  0.35940166224E+02 -0.24304319918E+02  0.11079824265E+01  0.47787272587E+02  0.20000007035E+02 0.  0.
         12    1    1    2    0    0 -0.35940166224E+02  0.24304319918E+02 -0.11079824265E+01  0.43400727413E+02  0.00000000000E+00 0. -1.
         11    1    3    3    0    0  0.34903694533E+01 -0.11103352413E+02 -0.40020972551E+01  0.12307879445E+02  0.51100000000E-03 0. -1.
        -11    1    3    3    0    0  0.28015854402E+02 -0.11701419246E+02  0.36707632298E+01  0.30582442892E+02  0.51100000000E-03 0.  1.
         12    1    3    3    0    0  0.44339423688E+01 -0.14995482580E+01  0.14393164518E+01  0.48969502505E+01  0.00000000000E+00 0. -1.
</event>
<event>
 7    1  0.4723144E-009  0.4778727E+02  0.7816164E-02  0.1312668E+00
        -11   -1    0    0    0    0  0.00000000000E+00  0.00000000000E+00  0.45593999997E+02  0.45594000000E+02  0.51100000000E-03 0. -1.
         11   -1    0    0    0    0 -0.00000000000E+00 -0.00000000000E+00 -0.45593999997E+02  0.45594000000E+02  0.51100000000E-03 0.  1.
    9900012    2    1    2    0    0  0.24428601466E+01  0.39349068103E+02 -0.18146803271E+02  0.47787271950E+02  0.20000004130E+02 0.  0.
         12    1    1    2    0    0 -0.24428601466E+01 -0.39349068103E+02  0.18146803271E+02  0.43400728050E+02  0.00000000000E+00 0. -1.
         11    1    3    3    0    0 -0.12249615460E+01  0.13771458491E+02 -0.20079529825E+01  0.13970879543E+02  0.51100000000E-03 0. -1.
        -11    1    3    3    0    0  0.85191756523E+00  0.23398998047E+02 -0.18241561302E+02  0.29681533520E+02  0.51100000000E-03 0.  1.
        -12    1    3    3    0    0  0.28159041274E+01  0.21786115658E+01  0.21027110137E+01  0.41348588872E+01  0.00000000000E+00 0.  1.
</event>
<event>
 7    1  0.4723144E-009  0.4778727E+02  0.7816164E-02  0.1312668E+00
        -11   -1    0    0    0    0  0.00000000000E+00  0.00000000000E+00  0.45593999997E+02  0.45594000000E+02  0.51100000000E-03 0. -1.
         11   -1    0    0    0    0 -0.00000000000E+00 -0.00000000000E+00 -0.45593999997E+02  0.45594000000E+02  0.51100000000E-03 0.  1.
    9900012    2    1    2    0    0  0.38934855748E+02  0.15334445908E+02 -0.11513246696E+02  0.47787273359E+02  0.20000010555E+02 0.  0.
         12    1    1    2    0    0 -0.38934855748E+02 -0.15334445908E+02  0.11513246696E+02  0.43400726641E+02  0.00000000000E+00 0. -1.
         11    1    3    3    0    0 -0.69969730732E+00 -0.99712686235E+00 -0.13475775054E+01  0.18165361807E+01  0.51100000000E-03 0. -1.
        -11    1    3    3    0    0  0.20956590618E+02  0.14840783399E+02 -0.89487855727E+01  0.27193901995E+02  0.51100000000E-03 0.  1.
        -12    1    3    3    0    0  0.18677962438E+02  0.14907893714E+01 -0.12168836175E+01  0.18776835184E+02  0.00000000000E+00 0.  1.
</event>
<event>
 7    1  0.4723144E-009  0.4778727E+02  0.7816164E-02  0.1312668E+00
        -11   -1    0    0    0    0  0.00000000000E+00  0.00000000000E+00  0.45593999997E+02  0.45594000000E+02  0.51100000000E-03 0. -1.
         11   -1    0    0    0    0 -0.00000000000E+00 -0.00000000000E+00 -0.45593999997E+02  0.45594000000E+02  0.51100000000E-03 0.  1.
    9900012    2    1    2    0    0 -0.33735890983E+02  0.23549306484E+02 -0.13818221002E+02  0.47787269500E+02  0.19999992959E+02 0.  0.
         12    1    1    2    0    0  0.33735890983E+02 -0.23549306484E+02  0.13818221002E+02  0.43400730500E+02  0.00000000000E+00 0. -1.
         11    1    3    3    0    0 -0.93627239276E+01  0.10997960260E+02 -0.86160509595E+01  0.16818206314E+02  0.51100000000E-03 0. -1.
        -11    1    3    3    0    0 -0.27662646764E+01 -0.18615918582E+01  0.21600968957E+01  0.39728784736E+01  0.51100000000E-03 0.  1.
        -12    1    3    3    0    0 -0.21606902379E+02  0.14412938081E+02 -0.73622669381E+01  0.26996184712E+02  0.00000000000E+00 0.  1.
</event>
<event>
 7    1  0.4723144E-009  0.4778727E+02  0.7816164E-02  0.1312668E+00
        -11   -1    0    0    0    0  0.00000000000E+00  0.00000000000E+00  0.45593999997E+02  0.45594000000E+02  0.51100000000E-03 0.  1.
         11   -1    0    0    0    0 -0.00000000000E+00 -0.00000000000E+00 -0.45593999997E+02  0.45594000000E+02  0.51100000000E-03 0. -1.
    9900012    2    1    2    0    0 -0.21741852559E+02  0.27032350264E+02  0.26080015767E+02  0.47787270330E+02  0.19999996742E+02 0.  0.
         12    1    1    2    0    0  0.21741852559E+02 -0.27032350264E+02 -0.26080015767E+02  0.43400729670E+02  0.00000000000E+00 0. -1.
         11    1    3    3    0    0 -0.84314583092E+01  0.10040714779E+02  0.19412827541E+02  0.23425697767E+02  0.51100000000E-03 0. -1.
        -11    1    3    3    0    0 -0.78934754910E+01  0.15591397269E+02  0.68333187580E+01  0.18764137860E+02  0.51100000000E-03 0.  1.
         12    1    3    3    0    0 -0.54169187585E+01  0.14002382163E+01 -0.16613053133E+00  0.55974347028E+01  0.00000000000E+00 0. -1.
</event>
<event>
 7    1  0.4723144E-009  0.4778722E+02  0.7816164E-02  0.1312668E+00
        -11   -1    0    0    0    0  0.00000000000E+00  0.00000000000E+00  0.45593999997E+02  0.45594000000E+02  0.51100000000E-03 0.  1.
         11   -1    0    0    0    0 -0.00000000000E+00 -0.00000000000E+00 -0.45593999997E+02  0.45594000000E+02  0.51100000000E-03 0. -1.
    9900012    2    1    2    0    0  0.30633404790E+02 -0.28515281317E+02  0.11493519827E+02  0.47787219413E+02  0.19999764589E+02 0.  0.
         12    1    1    2    0    0 -0.30633404790E+02  0.28515281317E+02 -0.11493519827E+02  0.43400780587E+02  0.00000000000E+00 0. -1.
         11    1    3    3    0    0  0.95774976844E+01 -0.15758819127E+01  0.29888136251E+01  0.10156026430E+02  0.51100000000E-03 0. -1.
        -11    1    3    3    0    0  0.15708027774E+02 -0.22792017828E+02  0.11815772110E+02  0.30097021183E+02  0.51100000000E-03 0.  1.
        -12    1    3    3    0    0  0.53478793307E+01 -0.41473815755E+01 -0.33110659077E+01  0.75341718001E+01  0.00000000000E+00 0.  1.
</event>
<event>
 7    1  0.4723144E-009  0.4778726E+02  0.7816164E-02  0.1312668E+00
        -11   -1    0    0    0    0  0.00000000000E+00  0.00000000000E+00  0.45593999997E+02  0.45594000000E+02  0.51100000000E-03 0.  1.
         11   -1    0    0    0    0 -0.00000000000E+00 -0.00000000000E+00 -0.45593999997E+02  0.45594000000E+02  0.51100000000E-03 0. -1.
    9900012    2    1    2    0    0 -0.21646966386E+02 -0.98846312112E+01  0.36294999095E+02  0.47787262135E+02  0.19999959380E+02 0.  0.
         12    1    1    2    0    0  0.21646966386E+02  0.98846312112E+01 -0.36294999095E+02  0.43400737865E+02  0.00000000000E+00 0. -1.
         11    1    3    3    0    0 -0.12671798010E+02 -0.56040205437E+01  0.81651574146E+01  0.16082577745E+02  0.51100000000E-03 0. -1.
        -11    1    3    3    0    0 -0.40612796743E+01  0.34263152276E+01  0.12764727381E+02  0.13826492469E+02  0.51100000000E-03 0.  1.
        -12    1    3    3    0    0 -0.49138887018E+01 -0.77069258952E+01  0.15365114299E+02  0.17878191921E+02  0.00000000000E+00 0.  1.
</event>
<event>
 7    1  0.4723144E-009  0.4778727E+02  0.7816164E-02  0.1312668E+00
        -11   -1    0    0    0    0  0.00000000000E+00  0.00000000000E+00  0.45593999997E+02  0.45594000000E+02  0.51100000000E-03 0.  1.
         11   -1    0    0    0    0 -0.00000000000E+00 -0.00000000000E+00 -0.45593999997E+02  0.45594000000E+02  0.51100000000E-03 0. -1.
    9900012    2    1    2    0    0  0.88468478660E+01 -0.37856786130E+02  0.19293010912E+02  0.47787271396E+02  0.20000001604E+02 0.  0.
         12    1    1    2    0    0 -0.88468478660E+01  0.37856786130E+02 -0.19293010912E+02  0.43400728604E+02  0.00000000000E+00 0. -1.
         11    1    3    3    0    0 -0.12257417073E+01 -0.23010772284E+01 -0.24177686421E+01  0.35557002984E+01  0.51100000000E-03 0. -1.
        -11    1    3    3    0    0  0.10642884062E+02 -0.35126555673E+02  0.18806979176E+02  0.41241342856E+02  0.51100000000E-03 0.  1.
        -12    1    3    3    0    0 -0.57029448848E+00 -0.42915322869E+00  0.29038003784E+01  0.29902282413E+01  0.00000000000E+00 0.  1.
</event>
<event>
 7    1  0.4723144E-009  0.4778727E+02  0.7816164E-02  0.1312668E+00
        -11   -1    0    0    0    0  0.00000000000E+00  0.00000000000E+00  0.45593999997E+02  0.45594000000E+02  0.51100000000E-03 0.  1.
         11   -1    0    0    0    0 -0.00000000000E+00 -0.00000000000E+00 -0.45593999997E+02  0.45594000000E+02  0.51100000000E-03 0. -1.
    9900012    2    1    2    0    0 -0.23879270905E+02 -0.18605094556E+02  0.31100708534E+02  0.47787271969E+02  0.20000004214E+02 0.  0.
         12    1    1    2    0    0  0.23879270905E+02  0.18605094556E+02 -0.31100708534E+02  0.43400728031E+02  0.00000000000E+00 0. -1.
         11    1    3    3    0    0 -0.88289910499E+00 -0.24841557056E+01 -0.84771191994E+00  0.27693241341E+01  0.51100000000E-03 0. -1.
        -11    1    3    3    0    0 -0.54404920307E+01 -0.47512993679E+01  0.19222377790E+02  0.20534692775E+02  0.51100000000E-03 0.  1.
        -12    1    3    3    0    0 -0.17555879769E+02 -0.11369639482E+02  0.12726042664E+02  0.24483255059E+02  0.00000000000E+00 0.  1.
</event>
<event>
 7    1  0.4723144E-009  0.4778727E+02  0.7816164E-02  0.1312668E+00
        -11   -1    0    0    0    0  0.00000000000E+00  0.00000000000E+00  0.45593999997E+02  0.45594000000E+02  0.51100000000E-03 0.  1.
         11   -1    0    0    0    0 -0.00000000000E+00 -0.00000000000E+00 -0.45593999997E+02  0.45594000000E+02  0.51100000000E-03 0. -1.
    9900012    2    1    2    0    0 -0.12434091143E+02 -0.40561415193E+02 -0.91535857133E+01  0.47787272397E+02  0.20000006167E+02 0.  0.
         12    1    1    2    0    0  0.12434091143E+02  0.40561415193E+02  0.91535857133E+01  0.43400727603E+02  0.00000000000E+00 0. -1.
         11    1    3    3    0    0 -0.42236151481E+01 -0.20888991310E+02  0.30518389449E+01  0.21529110620E+02  0.51100000000E-03 0. -1.
        -11    1    3    3    0    0 -0.79527013852E+01 -0.20615007765E+02 -0.10929792373E+02  0.24651254857E+02  0.51100000000E-03 0.  1.
         12    1    3    3    0    0 -0.25777460993E+00  0.94258388130E+00 -0.12756322848E+01  0.16069069198E+01  0.00000000000E+00 0. -1.
</event>
<event>
 7    1  0.4723144E-009  0.4778727E+02  0.7816164E-02  0.1312668E+00
        -11   -1    0    0    0    0  0.00000000000E+00  0.00000000000E+00  0.45593999997E+02  0.45594000000E+02  0.51100000000E-03 0.  1.
         11   -1    0    0    0    0 -0.00000000000E+00 -0.00000000000E+00 -0.45593999997E+02  0.45594000000E+02  0.51100000000E-03 0. -1.
    9900012    2    1    2    0    0 -0.22070593663E+02 -0.37288647677E+02 -0.24635557528E+01  0.47787268933E+02  0.19999990374E+02 0.  0.
         12    1    1    2    0    0  0.22070593663E+02  0.37288647677E+02  0.24635557528E+01  0.43400731067E+02  0.00000000000E+00 0. -1.
         11    1    3    3    0    0 -0.31158387910E+01  0.12590644238E+01  0.15926115916E+01  0.37188851202E+01  0.51100000000E-03 0. -1.
        -11    1    3    3    0    0 -0.95879473797E+01 -0.27803876089E+02 -0.67109247337E+00  0.29418270274E+02  0.51100000000E-03 0.  1.
         12    1    3    3    0    0 -0.93668074920E+01 -0.10743836011E+02 -0.33850748711E+01  0.14650113539E+02  0.00000000000E+00 0. -1.
</event>
<event>
 7    1  0.4723144E-009  0.4778729E+02  0.7816164E-02  0.1312668E+00
        -11   -1    0    0    0    0  0.00000000000E+00  0.00000000000E+00  0.45593999997E+02  0.45594000000E+02  0.51100000000E-03 0.  1.
         11   -1    0    0    0    0 -0.00000000000E+00 -0.00000000000E+00 -0.45593999997E+02  0.45594000000E+02  0.51100000000E-03 0. -1.
    9900012    2    1    2    0    0  0.20516113045E+02  0.37962221347E+02 -0.46454454542E+01  0.47787293697E+02  0.20000103284E+02 0.  0.
         12    1    1    2    0    0 -0.20516113045E+02 -0.37962221347E+02  0.46454454542E+01  0.43400706303E+02  0.00000000000E+00 0. -1.
         11    1    3    3    0    0  0.78641426149E+01  0.18352353998E+02 -0.74459974660E+01  0.21309540466E+02  0.51100000000E-03 0. -1.
        -11    1    3    3    0    0  0.38436192422E+01  0.15288922393E+02  0.47708959144E+01  0.16470762123E+02  0.51100000000E-03 0.  1.
        -12    1    3    3    0    0  0.88083511875E+01  0.43209449563E+01 -0.19703439027E+01  0.10006991109E+02  0.00000000000E+00 0.  1.
</event>
<event>
 7    1  0.4723144E-009  0.4778727E+02  0.7816164E-02  0.1312668E+00
        -11   -1    0    0    0    0  0.00000000000E+00  0.00000000000E+00  0.45593999997E+02  0.45594000000E+02  0.51100000000E-03 0.  1.
         11   -1    0    0    0    0 -0.00000000000E+00 -0.00000000000E+00 -0.45593999997E+02  0.45594000000E+02  0.51100000000E-03 0. -1.
    9900012    2    1    2    0    0 -0.47580610722E+01  0.17357576492E+02  0.39493018950E+02  0.47787272441E+02  0.20000006369E+02 0.  0.
         12    1    1    2    0    0  0.47580610722E+01 -0.17357576492E+02 -0.39493018950E+02  0.43400727559E+02  0.00000000000E+00 0. -1.
         11    1    3    3    0    0 -0.81466246946E+01  0.54470468589E+01  0.21055847268E+02  0.23224696291E+02  0.51100000000E-03 0. -1.
        -11    1    3    3    0    0  0.56739556265E+01  0.12348602404E+02  0.17219899377E+02  0.21936423787E+02  0.51100000000E-03 0.  1.
         12    1    3    3    0    0 -0.22853920042E+01 -0.43807277085E+00  0.12172723058E+01  0.26261523626E+01  0.00000000000E+00 0. -1.
</event>
<event>
 7    1  0.4723144E-009  0.4778728E+02  0.7816164E-02  0.1312668E+00
        -11   -1    0    0    0    0  0.00000000000E+00  0.00000000000E+00  0.45593999997E+02  0.45594000000E+02  0.51100000000E-03 0.  1.
         11   -1    0    0    0    0 -0.00000000000E+00 -0.00000000000E+00 -0.45593999997E+02  0.45594000000E+02  0.51100000000E-03 0. -1.
    9900012    2    1    2    0    0  0.10555241253E+02 -0.11595287395E+02  0.40469229807E+02  0.47787281471E+02  0.20000047538E+02 0.  0.
         12    1    1    2    0    0 -0.10555241253E+02  0.11595287395E+02 -0.40469229807E+02  0.43400718529E+02  0.00000000000E+00 0. -1.
         11    1    3    3    0    0  0.42852003890E+01 -0.11677707145E+02  0.17166244645E+02  0.21199333528E+02  0.51100000000E-03 0. -1.
        -11    1    3    3    0    0 -0.17276088674E+01  0.35418271285E+01  0.54905033963E+01  0.67583133704E+01  0.51100000000E-03 0.  1.
         12    1    3    3    0    0  0.79976497313E+01 -0.34594073784E+01  0.17812481766E+02  0.19829634573E+02  0.00000000000E+00 0. -1.
</event>
<event>
 7    1  0.4723144E-009  0.4778727E+02  0.7816164E-02  0.1312668E+00
        -11   -1    0    0    0    0  0.00000000000E+00  0.00000000000E+00  0.45593999997E+02  0.45594000000E+02  0.51100000000E-03 0. -1.
         11   -1    0    0    0    0 -0.00000000000E+00 -0.00000000000E+00 -0.45593999997E+02  0.45594000000E+02  0.51100000000E-03 0.  1.
    9900012    2    1    2    0    0  0.39694489690E+02 -0.91415450760E+01 -0.14980072789E+02  0.47787274904E+02  0.20000017596E+02 0.  0.
         12    1    1    2    0    0 -0.39694489690E+02  0.91415450760E+01  0.14980072789E+02  0.43400725096E+02  0.00000000000E+00 0. -1.
         11    1    3    3    0    0  0.63660429120E+01 -0.42663484739E+01 -0.29152563331E+01  0.81992043154E+01  0.51100000000E-03 0. -1.
        -11    1    3    3    0    0  0.21990306712E+01 -0.60167242870E+01 -0.76483620840E+00  0.64514867841E+01  0.51100000000E-03 0.  1.
        -12    1    3    3    0    0  0.31129416107E+02  0.11415276849E+01 -0.11299980247E+02  0.33136583804E+02  0.00000000000E+00 0.  1.
</event>
<event>
 7    1  0.4723144E-009  0.4778727E+02  0.7816164E-02  0.1312668E+00
        -11   -1    0    0    0    0  0.00000000000E+00  0.00000000000E+00  0.45593999997E+02  0.45594000000E+02  0.51100000000E-03 0.  1.
         11   -1    0    0    0    0 -0.00000000000E+00 -0.00000000000E+00 -0.45593999997E+02  0.45594000000E+02  0.51100000000E-03 0. -1.
    9900012    2    1    2    0    0 -0.16731325358E+01  0.22929412710E+02  0.36811221343E+02  0.47787270093E+02  0.19999995661E+02 0.  0.
         12    1    1    2    0    0  0.16731325358E+01 -0.22929412710E+02 -0.36811221343E+02  0.43400729907E+02  0.00000000000E+00 0. -1.
         11    1    3    3    0    0 -0.33472236957E+00 -0.16320549957E+01  0.58722513020E+00  0.17664869624E+01  0.51100000000E-03 0. -1.
        -11    1    3    3    0    0 -0.13112399542E+01  0.24733179721E+02  0.37385923075E+02  0.44845922599E+02  0.51100000000E-03 0.  1.
        -12    1    3    3    0    0 -0.27170211997E-01 -0.17171201589E+00 -0.11619268615E+01  0.11748605315E+01  0.00000000000E+00 0.  1.
</event>
<event>
 7    1  0.4723144E-009  0.4778727E+02  0.7816164E-02  0.1312668E+00
        -11   -1    0    0    0    0  0.00000000000E+00  0.00000000000E+00  0.45593999997E+02  0.45594000000E+02  0.51100000000E-03 0.  1.
         11   -1    0    0    0    0 -0.00000000000E+00 -0.00000000000E+00 -0.45593999997E+02  0.45594000000E+02  0.51100000000E-03 0. -1.
    9900012    2    1    2    0    0 -0.24197081512E+02  0.19167400970E+02  0.30507954221E+02  0.47787270923E+02  0.19999999446E+02 0.  0.
         12    1    1    2    0    0  0.24197081512E+02 -0.19167400970E+02 -0.30507954221E+02  0.43400729077E+02  0.00000000000E+00 0. -1.
         11    1    3    3    0    0 -0.64235046567E+00  0.52968076712E+01  0.88840031403E+01  0.10363122005E+02  0.51100000000E-03 0. -1.
        -11    1    3    3    0    0 -0.15272621878E+02  0.31734604265E+01  0.17131441061E+02  0.23169162764E+02  0.51100000000E-03 0.  1.
        -12    1    3    3    0    0 -0.82821091687E+01  0.10697132873E+02  0.44925100196E+01  0.14254986154E+02  0.00000000000E+00 0.  1.
</event>
<event>
 7    1  0.4723144E-009  0.4778728E+02  0.7816164E-02  0.1312668E+00
        -11   -1    0    0    0    0  0.00000000000E+00  0.00000000000E+00  0.45593999997E+02  0.45594000000E+02  0.51100000000E-03 0.  1.
         11   -1    0    0    0    0 -0.00000000000E+00 -0.00000000000E+00 -0.45593999997E+02  0.45594000000E+02  0.51100000000E-03 0. -1.
    9900012    2    1    2    0    0  0.87749506473E+01 -0.22476934535E+02  0.36075064585E+02  0.47787278465E+02  0.20000033835E+02 0.  0.
         12    1    1    2    0    0 -0.87749506473E+01  0.22476934535E+02 -0.36075064585E+02  0.43400721535E+02  0.00000000000E+00 0. -1.
         11    1    3    3    0    0 -0.34491571874E+01 -0.15159648783E+02  0.13420913969E+02  0.20538562963E+02  0.51100000000E-03 0. -1.
        -11    1    3    3    0    0  0.94111211484E+01 -0.59022690726E+01  0.20836732760E+02  0.23613034829E+02  0.51100000000E-03 0.  1.
         12    1    3    3    0    0  0.28129866863E+01 -0.14150166787E+01  0.18174178556E+01  0.36356806736E+01  0.00000000000E+00 0. -1.
</event>
<event>
 7    1  0.4723144E-009  0.4778727E+02  0.7816164E-02  0.1312668E+00
        -11   -1    0    0    0    0  0.00000000000E+00  0.00000000000E+00  0.45593999997E+02  0.45594000000E+02  0.51100000000E-03 0. -1.
         11   -1    0    0    0    0 -0.00000000000E+00 -0.00000000000E+00 -0.45593999997E+02  0.45594000000E+02  0.51100000000E-03 0.  1.
    9900012    2    1    2    0    0  0.87285939163E+01  0.13824627239E+02 -0.40203416536E+02  0.47787269923E+02  0.19999994888E+02 0.  0.
         12    1    1    2    0    0 -0.87285939163E+01 -0.13824627239E+02  0.40203416536E+02  0.43400730077E+02  0.00000000000E+00 0. -1.
         11    1    3    3    0    0 -0.14658454469E+01 -0.12179211413E+01 -0.47139594110E-01  0.19063727818E+01  0.51100000000E-03 0. -1.
        -11    1    3    3    0    0  0.40594298080E+01  0.15421861212E+02 -0.26962064886E+02  0.31325161082E+02  0.51100000000E-03 0.  1.
        -12    1    3    3    0    0  0.61350095553E+01 -0.37931283211E+00 -0.13194212055E+02  0.14555736059E+02  0.00000000000E+00 0.  1.
</event>
<event>
 7    1  0.4723144E-009  0.4778726E+02  0.7816164E-02  0.1312668E+00
        -11   -1    0    0    0    0  0.00000000000E+00  0.00000000000E+00  0.45593999997E+02  0.45594000000E+02  0.51100000000E-03 0.  1.
         11   -1    0    0    0    0 -0.00000000000E+00 -0.00000000000E+00 -0.45593999997E+02  0.45594000000E+02  0.51100000000E-03 0. -1.
    9900012    2    1    2    0    0 -0.27836204030E+02  0.27032356592E+02  0.19442775171E+02  0.47787261941E+02  0.19999958494E+02 0.  0.
         12    1    1    2    0    0  0.27836204030E+02 -0.27032356592E+02 -0.19442775171E+02  0.43400738059E+02  0.00000000000E+00 0. -1.
         11    1    3    3    0    0 -0.24868334741E+02  0.12248538914E+02  0.10073407205E+02  0.29494648859E+02  0.51100000000E-03 0. -1.
        -11    1    3    3    0    0 -0.60444277476E+00  0.49773969722E+01  0.56189562631E+01  0.75307703082E+01  0.51100000000E-03 0.  1.
         12    1    3    3    0    0 -0.23634265139E+01  0.98064207065E+01  0.37504117029E+01  0.10761842774E+02  0.00000000000E+00 0. -1.
</event>
<event>
 7    1  0.4723144E-009  0.4778727E+02  0.7816164E-02  0.1312668E+00
        -11   -1    0    0    0    0  0.00000000000E+00  0.00000000000E+00  0.45593999997E+02  0.45594000000E+02  0.51100000000E-03 0.  1.
         11   -1    0    0    0    0 -0.00000000000E+00 -0.00000000000E+00 -0.45593999997E+02  0.45594000000E+02  0.51100000000E-03 0. -1.
    9900012    2    1    2    0    0 -0.18197878634E+02 -0.31104047131E+02  0.24186742034E+02  0.47787273912E+02  0.20000013076E+02 0.  0.
         12    1    1    2    0    0  0.18197878634E+02  0.31104047131E+02 -0.24186742034E+02  0.43400726088E+02  0.00000000000E+00 0. -1.
         11    1    3    3    0    0 -0.53425566752E+00 -0.25142950904E+01  0.44764014404E+01  0.51619065312E+01  0.51100000000E-03 0. -1.
        -11    1    3    3    0    0  0.93110693267E+00 -0.12768702257E+02  0.33419772854E+01  0.13231611009E+02  0.51100000000E-03 0.  1.
        -12    1    3    3    0    0 -0.18594729900E+02 -0.15821049783E+02  0.16368363308E+02  0.29393756372E+02  0.00000000000E+00 0.  1.
</event>
<event>
 7    1  0.4723144E-009  0.4778727E+02  0.7816164E-02  0.1312668E+00
        -11   -1    0    0    0    0  0.00000000000E+00  0.00000000000E+00  0.45593999997E+02  0.45594000000E+02  0.51100000000E-03 0.  1.
         11   -1    0    0    0    0 -0.00000000000E+00 -0.00000000000E+00 -0.45593999997E+02  0.45594000000E+02  0.51100000000E-03 0. -1.
    9900012    2    1    2    0    0  0.13803198233E+02 -0.14302287828E+02  0.38581600721E+02  0.47787266910E+02  0.19999981148E+02 0.  0.
         12    1    1    2    0    0 -0.13803198233E+02  0.14302287828E+02 -0.38581600721E+02  0.43400733090E+02  0.00000000000E+00 0. -1.
         11    1    3    3    0    0 -0.56967366612E-01 -0.60693172837E+01  0.39755352296E+01  0.72556693829E+01  0.51100000000E-03 0. -1.
        -11    1    3    3    0    0  0.16358579587E+02 -0.82479919574E+01  0.27920277752E+02  0.33394227157E+02  0.51100000000E-03 0.  1.
        -12    1    3    3    0    0 -0.24984139872E+01  0.15021413034E-01  0.66857877397E+01  0.71373703697E+01  0.00000000000E+00 0.  1.
</event>
<event>
 7    1  0.4723144E-009  0.4778727E+02  0.7816164E-02  0.1312668E+00
        -11   -1    0    0    0    0  0.00000000000E+00  0.00000000000E+00  0.45593999997E+02  0.45594000000E+02  0.51100000000E-03 0.  1.
         11   -1    0    0    0    0 -0.00000000000E+00 -0.00000000000E+00 -0.45593999997E+02  0.45594000000E+02  0.51100000000E-03 0. -1.
    9900012    2    1    2    0    0  0.11634034415E+02  0.41568674762E+02  0.45075056578E+01  0.47787273214E+02  0.20000009893E+02 0.  0.
         12    1    1    2    0    0 -0.11634034415E+02 -0.41568674762E+02 -0.45075056578E+01  0.43400726786E+02  0.00000000000E+00 0. -1.
         11    1    3    3    0    0 -0.12354917797E+01 -0.62893072646E+00  0.37102888651E+00  0.14351503378E+01  0.51100000000E-03 0. -1.
        -11    1    3    3    0    0  0.79986357716E+01  0.40045248111E+02  0.34265610498E+01  0.40979768074E+02  0.51100000000E-03 0.  1.
        -12    1    3    3    0    0  0.48708904231E+01  0.21523573776E+01  0.70991572148E+00  0.53723548027E+01  0.00000000000E+00 0.  1.
</event>
<event>
 7    1  0.4723144E-009  0.4778730E+02  0.7816164E-02  0.1312668E+00
        -11   -1    0    0    0    0  0.00000000000E+00  0.00000000000E+00  0.45593999997E+02  0.45594000000E+02  0.51100000000E-03 0. -1.
         11   -1    0    0    0    0 -0.00000000000E+00 -0.00000000000E+00 -0.45593999997E+02  0.45594000000E+02  0.51100000000E-03 0.  1.
    9900012    2    1    2    0    0 -0.13473533622E+02 -0.24333163350E+01 -0.41184509418E+02  0.47787297786E+02  0.20000121926E+02 0.  0.
         12    1    1    2    0    0  0.13473533622E+02  0.24333163350E+01  0.41184509418E+02  0.43400702214E+02  0.00000000000E+00 0. -1.
         11    1    3    3    0    0 -0.26465391971E+01 -0.47272844985E+01 -0.36291845919E+01  0.65209178429E+01  0.51100000000E-03 0. -1.
        -11    1    3    3    0    0 -0.35121168296E+01  0.73921071715E+01 -0.17603558867E+02  0.19412972418E+02  0.51100000000E-03 0.  1.
        -12    1    3    3    0    0 -0.73148775957E+01 -0.50981390081E+01 -0.19951765959E+02  0.21853407525E+02  0.00000000000E+00 0.  1.
</event>
<event>
 7    1  0.4723144E-009  0.4778727E+02  0.7816164E-02  0.1312668E+00
        -11   -1    0    0    0    0  0.00000000000E+00  0.00000000000E+00  0.45593999997E+02  0.45594000000E+02  0.51100000000E-03 0.  1.
         11   -1    0    0    0    0 -0.00000000000E+00 -0.00000000000E+00 -0.45593999997E+02  0.45594000000E+02  0.51100000000E-03 0. -1.
    9900012    2    1    2    0    0  0.32007044642E+02  0.24801781927E+02  0.15621900507E+02  0.47787273405E+02  0.20000010765E+02 0.  0.
         12    1    1    2    0    0 -0.32007044642E+02 -0.24801781927E+02 -0.15621900507E+02  0.43400726595E+02  0.00000000000E+00 0. -1.
         11    1    3    3    0    0  0.12170947722E+01 -0.10029632508E+01 -0.14010889929E+01  0.21095747425E+01  0.51100000000E-03 0. -1.
        -11    1    3    3    0    0  0.23149232936E+02  0.22348395462E+02  0.18568939899E+02  0.37150279871E+02  0.51100000000E-03 0.  1.
        -12    1    3    3    0    0  0.76407169341E+01  0.34563497157E+01 -0.15459503989E+01  0.85274187923E+01  0.00000000000E+00 0.  1.
</event>
<event>
 7    1  0.4723144E-009  0.4778728E+02  0.7816164E-02  0.1312668E+00
        -11   -1    0    0    0    0  0.00000000000E+00  0.00000000000E+00  0.45593999997E+02  0.45594000000E+02  0.51100000000E-03 0.  1.
         11   -1    0    0    0    0 -0.00000000000E+00 -0.00000000000E+00 -0.45593999997E+02  0.45594000000E+02  0.51100000000E-03 0. -1.
    9900012    2    1    2    0    0  0.11136732312E+02 -0.25798967081E+02  0.33075807791E+02  0.47787279153E+02  0.20000036969E+02 0.  0.
         12    1    1    2    0    0 -0.11136732312E+02  0.25798967081E+02 -0.33075807791E+02  0.43400720847E+02  0.00000000000E+00 0. -1.
         11    1    3    3    0    0  0.86545393921E+01 -0.99293449690E+01  0.70927155903E+01  0.14959931761E+02  0.51100000000E-03 0. -1.
        -11    1    3    3    0    0  0.27260325863E+01 -0.17142490065E+02  0.26282612332E+02  0.31497173374E+02  0.51100000000E-03 0.  1.
        -12    1    3    3    0    0 -0.24383966630E+00  0.12728679526E+01 -0.29952013148E+00  0.13301740175E+01  0.00000000000E+00 0.  1.
</event>
<event>
 7    1  0.4723144E-009  0.4778727E+02  0.7816164E-02  0.1312668E+00
        -11   -1    0    0    0    0  0.00000000000E+00  0.00000000000E+00  0.45593999997E+02  0.45594000000E+02  0.51100000000E-03 0.  1.
         11   -1    0    0    0    0 -0.00000000000E+00 -0.00000000000E+00 -0.45593999997E+02  0.45594000000E+02  0.51100000000E-03 0. -1.
    9900012    2    1    2    0    0 -0.34250243019E+02 -0.68517148264E+01  0.25760398881E+02  0.47787270819E+02  0.19999998973E+02 0.  0.
         12    1    1    2    0    0  0.34250243019E+02  0.68517148264E+01 -0.25760398881E+02  0.43400729181E+02  0.00000000000E+00 0. -1.
         11    1    3    3    0    0 -0.16061357769E+02 -0.12326541963E+02  0.17772125624E+02  0.26939920186E+02  0.51100000000E-03 0. -1.
        -11    1    3    3    0    0 -0.11690951925E+02  0.22136912089E+01  0.59111149081E+01  0.13286085405E+02  0.51100000000E-03 0.  1.
         12    1    3    3    0    0 -0.64979333258E+01  0.32611359280E+01  0.20771583483E+01  0.75612652282E+01  0.00000000000E+00 0. -1.
</event>
<event>
 7    1  0.4723144E-009  0.4778728E+02  0.7816164E-02  0.1312668E+00
        -11   -1    0    0    0    0  0.00000000000E+00  0.00000000000E+00  0.45593999997E+02  0.45594000000E+02  0.51100000000E-03 0.  1.
         11   -1    0    0    0    0 -0.00000000000E+00 -0.00000000000E+00 -0.45593999997E+02  0.45594000000E+02  0.51100000000E-03 0. -1.
    9900012    2    1    2    0    0  0.22245148811E+02  0.35382828971E+02  0.11697496897E+02  0.47787278057E+02  0.20000031971E+02 0.  0.
         12    1    1    2    0    0 -0.22245148811E+02 -0.35382828971E+02 -0.11697496897E+02  0.43400721943E+02  0.00000000000E+00 0. -1.
         11    1    3    3    0    0  0.13624615837E+02  0.10240863426E+02  0.10032870154E+02  0.19777864500E+02  0.51100000000E-03 0. -1.
        -11    1    3    3    0    0  0.10272087139E+02  0.21146026065E+02  0.43024726931E+00  0.23512875313E+02  0.51100000000E-03 0.  1.
         12    1    3    3    0    0 -0.16515541648E+01  0.39959394802E+01  0.12343794735E+01  0.44965382433E+01  0.00000000000E+00 0. -1.
</event>
<event>
 7    1  0.4723144E-009  0.4778727E+02  0.7816164E-02  0.1312668E+00
        -11   -1    0    0    0    0  0.00000000000E+00  0.00000000000E+00  0.45593999997E+02  0.45594000000E+02  0.51100000000E-03 0.  1.
         11   -1    0    0    0    0 -0.00000000000E+00 -0.00000000000E+00 -0.45593999997E+02  0.45594000000E+02  0.51100000000E-03 0. -1.
    9900012    2    1    2    0    0 -0.24542172810E+02 -0.35039666355E+02  0.73162073854E+01  0.47787270109E+02  0.19999995736E+02 0.  0.
         12    1    1    2    0    0  0.24542172810E+02  0.35039666355E+02 -0.73162073854E+01  0.43400729891E+02  0.00000000000E+00 0. -1.
         11    1    3    3    0    0  0.17266756081E+01 -0.42608777429E+01 -0.11870878246E+01  0.47482276230E+01  0.51100000000E-03 0.  1.
        -11    1    3    3    0    0 -0.21966485979E+02 -0.20645772574E+02  0.19083949837E+01  0.30206231197E+02  0.51100000000E-03 0. -1.
        -12    1    3    3    0    0 -0.43023624391E+01 -0.10133016038E+02  0.65949002263E+01  0.12832811289E+02  0.00000000000E+00 0.  1.
</event>
<event>
 7    1  0.4723144E-009  0.4778727E+02  0.7816164E-02  0.1312668E+00
        -11   -1    0    0    0    0  0.00000000000E+00  0.00000000000E+00  0.45593999997E+02  0.45594000000E+02  0.51100000000E-03 0. -1.
         11   -1    0    0    0    0 -0.00000000000E+00 -0.00000000000E+00 -0.45593999997E+02  0.45594000000E+02  0.51100000000E-03 0.  1.
    9900012    2    1    2    0    0  0.36341726315E+01  0.27063915877E+01 -0.43163545044E+02  0.47787269742E+02  0.19999994062E+02 0.  0.
         12    1    1    2    0    0 -0.36341726315E+01 -0.27063915877E+01  0.43163545044E+02  0.43400730258E+02  0.00000000000E+00 0. -1.
         11    1    3    3    0    0  0.13083742878E+01 -0.14659094636E+01  0.66243533528E+00  0.20735367533E+01  0.51100000000E-03 0. -1.
        -11    1    3    3    0    0 -0.42670969552E+01  0.18147456444E+01 -0.28361103996E+02  0.28737669326E+02  0.51100000000E-03 0.  1.
        -12    1    3    3    0    0  0.65928952989E+01  0.23575554069E+01 -0.15464876384E+02  0.16976063663E+02  0.00000000000E+00 0.  1.
</event>
<event>
 7    1  0.4723144E-009  0.4778727E+02  0.7816164E-02  0.1312668E+00
        -11   -1    0    0    0    0  0.00000000000E+00  0.00000000000E+00  0.45593999997E+02  0.45594000000E+02  0.51100000000E-03 0.  1.
         11   -1    0    0    0    0 -0.00000000000E+00 -0.00000000000E+00 -0.45593999997E+02  0.45594000000E+02  0.51100000000E-03 0. -1.
    9900012    2    1    2    0    0 -0.22614520935E+02  0.10170740741E+02  0.35619692458E+02  0.47787274025E+02  0.20000013591E+02 0.  0.
         12    1    1    2    0    0  0.22614520935E+02 -0.10170740741E+02 -0.35619692458E+02  0.43400725975E+02  0.00000000000E+00 0. -1.
         11    1    3    3    0    0 -0.55973242823E+01  0.24945693037E+01  0.19381916966E+02  0.20327607353E+02  0.51100000000E-03 0.  1.
        -11    1    3    3    0    0 -0.12299997037E+02  0.22651285328E+01  0.37522077179E+01  0.13057557099E+02  0.51100000000E-03 0. -1.
        -12    1    3    3    0    0 -0.47171996153E+01  0.54110429046E+01  0.12485567774E+02  0.14402109573E+02  0.00000000000E+00 0.  1.
</event>
<event>
 7    1  0.4723144E-009  0.4778728E+02  0.7816164E-02  0.1312668E+00
        -11   -1    0    0    0    0  0.00000000000E+00  0.00000000000E+00  0.45593999997E+02  0.45594000000E+02  0.51100000000E-03 0.  1.
         11   -1    0    0    0    0 -0.00000000000E+00 -0.00000000000E+00 -0.45593999997E+02  0.45594000000E+02  0.51100000000E-03 0. -1.
    9900012    2    1    2    0    0 -0.19031595541E+01  0.62792110100E+01  0.42901892886E+02  0.47787275116E+02  0.20000018565E+02 0.  0.
         12    1    1    2    0    0  0.19031595541E+01 -0.62792110100E+01 -0.42901892886E+02  0.43400724884E+02  0.00000000000E+00 0. -1.
         11    1    3    3    0    0  0.22476162154E+01  0.13617638605E+01  0.80687873543E+01  0.84859595270E+01  0.51100000000E-03 0. -1.
        -11    1    3    3    0    0  0.19005277574E+01  0.40250542094E+01  0.55955532407E+00  0.44862199642E+01  0.51100000000E-03 0.  1.
        -12    1    3    3    0    0 -0.60513035269E+01  0.89239294013E+00  0.34273550208E+02  0.34815095625E+02  0.00000000000E+00 0.  1.
</event>
<event>
 7    1  0.4723144E-009  0.4778727E+02  0.7816164E-02  0.1312668E+00
        -11   -1    0    0    0    0  0.00000000000E+00  0.00000000000E+00  0.45593999997E+02  0.45594000000E+02  0.51100000000E-03 0.  1.
         11   -1    0    0    0    0 -0.00000000000E+00 -0.00000000000E+00 -0.45593999997E+02  0.45594000000E+02  0.51100000000E-03 0. -1.
    9900012    2    1    2    0    0  0.21870962392E+02  0.36556608741E+02  0.83005230882E+01  0.47787270488E+02  0.19999997463E+02 0.  0.
         12    1    1    2    0    0 -0.21870962392E+02 -0.36556608741E+02 -0.83005230882E+01  0.43400729512E+02  0.00000000000E+00 0. -1.
         11    1    3    3    0    0  0.12436491076E+02  0.13914280377E+02  0.21243025035E+01  0.18782602857E+02  0.51100000000E-03 0. -1.
        -11    1    3    3    0    0 -0.16226147575E+01  0.74852767192E+01 -0.28660560223E+01  0.81778067719E+01  0.51100000000E-03 0.  1.
        -12    1    3    3    0    0  0.11057086073E+02  0.15157051645E+02  0.90422766070E+01  0.20826860859E+02  0.00000000000E+00 0.  1.
</event>
<event>
 7    1  0.4723144E-009  0.4778727E+02  0.7816164E-02  0.1312668E+00
        -11   -1    0    0    0    0  0.00000000000E+00  0.00000000000E+00  0.45593999997E+02  0.45594000000E+02  0.51100000000E-03 0.  1.
         11   -1    0    0    0    0 -0.00000000000E+00 -0.00000000000E+00 -0.45593999997E+02  0.45594000000E+02  0.51100000000E-03 0. -1.
    9900012    2    1    2    0    0 -0.10593524098E+02  0.93060838313E+01  0.41046279331E+02  0.47787274245E+02  0.20000014595E+02 0.  0.
         12    1    1    2    0    0  0.10593524098E+02 -0.93060838313E+01 -0.41046279331E+02  0.43400725755E+02  0.00000000000E+00 0. -1.
         11    1    3    3    0    0 -0.24855740663E+01  0.20115579904E+00 -0.11314645196E+01  0.27383853481E+01  0.51100000000E-03 0. -1.
        -11    1    3    3    0    0 -0.10386293464E+02  0.85682286125E+01  0.35083799762E+02  0.37578752500E+02  0.51100000000E-03 0.  1.
         12    1    3    3    0    0  0.22783434315E+01  0.53669941979E+00  0.70939440887E+01  0.74701363972E+01  0.00000000000E+00 0. -1.
</event>
<event>
 7    1  0.4723144E-009  0.4778727E+02  0.7816164E-02  0.1312668E+00
        -11   -1    0    0    0    0  0.00000000000E+00  0.00000000000E+00  0.45593999997E+02  0.45594000000E+02  0.51100000000E-03 0.  1.
         11   -1    0    0    0    0 -0.00000000000E+00 -0.00000000000E+00 -0.45593999997E+02  0.45594000000E+02  0.51100000000E-03 0. -1.
    9900012    2    1    2    0    0 -0.24947506194E+02 -0.88054149767E+01  0.34405083264E+02  0.47787272442E+02  0.20000006370E+02 0.  0.
         12    1    1    2    0    0  0.24947506194E+02  0.88054149767E+01 -0.34405083264E+02  0.43400727558E+02  0.00000000000E+00 0. -1.
         11    1    3    3    0    0 -0.10308924850E+01 -0.80707322692E+01  0.11400675617E+02  0.14006243731E+02  0.51100000000E-03 0. -1.
        -11    1    3    3    0    0 -0.15529061546E+02  0.16868434299E+01  0.17514770161E+02  0.23468369507E+02  0.51100000000E-03 0.  1.
         12    1    3    3    0    0 -0.83875521625E+01 -0.24215261374E+01  0.54896374860E+01  0.10312659203E+02  0.00000000000E+00 0. -1.
</event>
<event>
 7    1  0.4723144E-009  0.4778727E+02  0.7816164E-02  0.1312668E+00
        -11   -1    0    0    0    0  0.00000000000E+00  0.00000000000E+00  0.45593999997E+02  0.45594000000E+02  0.51100000000E-03 0. -1.
         11   -1    0    0    0    0 -0.00000000000E+00 -0.00000000000E+00 -0.45593999997E+02  0.45594000000E+02  0.51100000000E-03 0.  1.
    9900012    2    1    2    0    0 -0.14668130228E+02  0.39236873217E+02 -0.11355053113E+02  0.47787268492E+02  0.19999988363E+02 0.  0.
         12    1    1    2    0    0  0.14668130228E+02 -0.39236873217E+02  0.11355053113E+02  0.43400731508E+02  0.00000000000E+00 0. -1.
         11    1    3    3    0    0 -0.21860334399E+01  0.17247049351E+01 -0.60378755118E+01  0.66490067131E+01  0.51100000000E-03 0. -1.
        -11    1    3    3    0    0 -0.12183890501E+02  0.38022625124E+02 -0.58365249294E+01  0.40351359736E+02  0.51100000000E-03 0.  1.
        -12    1    3    3    0    0 -0.29820628680E+00 -0.51045684210E+00  0.51934732855E+00  0.78690204270E+00  0.00000000000E+00 0.  1.
</event>
<event>
 7    1  0.4723144E-009  0.4778727E+02  0.7816164E-02  0.1312668E+00
        -11   -1    0    0    0    0  0.00000000000E+00  0.00000000000E+00  0.45593999997E+02  0.45594000000E+02  0.51100000000E-03 0.  1.
         11   -1    0    0    0    0 -0.00000000000E+00 -0.00000000000E+00 -0.45593999997E+02  0.45594000000E+02  0.51100000000E-03 0. -1.
    9900012    2    1    2    0    0  0.26652693443E+02  0.26913112884E+02  0.21188239084E+02  0.47787272030E+02  0.20000004492E+02 0.  0.
         12    1    1    2    0    0 -0.26652693443E+02 -0.26913112884E+02 -0.21188239084E+02  0.43400727970E+02  0.00000000000E+00 0. -1.
         11    1    3    3    0    0  0.22642277227E+02  0.10941290136E+02  0.15336536024E+02  0.29454946704E+02  0.51100000000E-03 0. -1.
        -11    1    3    3    0    0  0.36201836878E+01  0.13073554738E+02  0.23458166231E+01  0.13766859458E+02  0.51100000000E-03 0.  1.
        -12    1    3    3    0    0  0.39023252815E+00  0.28982680104E+01  0.35058864367E+01  0.45654658681E+01  0.00000000000E+00 0.  1.
</event>
<event>
 7    1  0.4723144E-009  0.4778728E+02  0.7816164E-02  0.1312668E+00
        -11   -1    0    0    0    0  0.00000000000E+00  0.00000000000E+00  0.45593999997E+02  0.45594000000E+02  0.51100000000E-03 0.  1.
         11   -1    0    0    0    0 -0.00000000000E+00 -0.00000000000E+00 -0.45593999997E+02  0.45594000000E+02  0.51100000000E-03 0. -1.
    9900012    2    1    2    0    0 -0.25731511214E+02  0.26038004592E+02  0.23313825146E+02  0.47787276556E+02  0.20000025130E+02 0.  0.
         12    1    1    2    0    0  0.25731511214E+02 -0.26038004592E+02 -0.23313825146E+02  0.43400723444E+02  0.00000000000E+00 0. -1.
         11    1    3    3    0    0 -0.16081574888E+02  0.65949110139E+01  0.65280457589E+01  0.18566779038E+02  0.51100000000E-03 0. -1.
        -11    1    3    3    0    0 -0.60744573504E+01  0.14605058984E+02  0.16973856419E+02  0.23201693516E+02  0.51100000000E-03 0.  1.
        -12    1    3    3    0    0 -0.35754789763E+01  0.48380345941E+01 -0.18807703177E+00  0.60188040019E+01  0.00000000000E+00 0.  1.
</event>
<event>
 7    1  0.4723144E-009  0.4778727E+02  0.7816164E-02  0.1312668E+00
        -11   -1    0    0    0    0  0.00000000000E+00  0.00000000000E+00  0.45593999997E+02  0.45594000000E+02  0.51100000000E-03 0. -1.
         11   -1    0    0    0    0 -0.00000000000E+00 -0.00000000000E+00 -0.45593999997E+02  0.45594000000E+02  0.51100000000E-03 0.  1.
    9900012    2    1    2    0    0  0.35696736740E+02  0.45720862011E+01  0.24258244159E+02  0.47787269639E+02  0.19999993593E+02 0.  0.
         12    1    1    2    0    0 -0.35696736740E+02 -0.45720862011E+01 -0.24258244159E+02  0.43400730361E+02  0.00000000000E+00 0. -1.
         11    1    3    3    0    0  0.78210161686E+01  0.14060824282E+01  0.10176605841E+02  0.12911571105E+02  0.51100000000E-03 0. -1.
        -11    1    3    3    0    0  0.23602901679E+02  0.20429989372E+01  0.17362968156E+02  0.29372495225E+02  0.51100000000E-03 0.  1.
        -12    1    3    3    0    0  0.42728188932E+01  0.11230048356E+01 -0.32813298374E+01  0.55032033087E+01  0.00000000000E+00 0.  1.
</event>
<event>
 7    1  0.4723144E-009  0.4778725E+02  0.7816164E-02  0.1312668E+00
        -11   -1    0    0    0    0  0.00000000000E+00  0.00000000000E+00  0.45593999997E+02  0.45594000000E+02  0.51100000000E-03 0.  1.
         11   -1    0    0    0    0 -0.00000000000E+00 -0.00000000000E+00 -0.45593999997E+02  0.45594000000E+02  0.51100000000E-03 0. -1.
    9900012    2    1    2    0    0 -0.13787519239E+02 -0.23333345968E+02  0.33898142767E+02  0.47787253418E+02  0.19999919633E+02 0.  0.
         12    1    1    2    0    0  0.13787519239E+02  0.23333345968E+02 -0.33898142767E+02  0.43400746582E+02  0.00000000000E+00 0. -1.
         11    1    3    3    0    0 -0.14538308454E+01 -0.96033670508E+01  0.22344796468E+01  0.99665030173E+01  0.51100000000E-03 0. -1.
        -11    1    3    3    0    0 -0.30846886490E+01 -0.63075471726E+01  0.19960332784E+02  0.21159284972E+02  0.51100000000E-03 0.  1.
        -12    1    3    3    0    0 -0.92489997443E+01 -0.74224317450E+01  0.11703330336E+02  0.16661465429E+02  0.00000000000E+00 0.  1.
</event>
<event>
 7    1  0.4723144E-009  0.4778727E+02  0.7816164E-02  0.1312668E+00
        -11   -1    0    0    0    0  0.00000000000E+00  0.00000000000E+00  0.45593999997E+02  0.45594000000E+02  0.51100000000E-03 0.  1.
         11   -1    0    0    0    0 -0.00000000000E+00 -0.00000000000E+00 -0.45593999997E+02  0.45594000000E+02  0.51100000000E-03 0. -1.
    9900012    2    1    2    0    0  0.11498195559E+02 -0.14016850565E+02  0.39432763416E+02  0.47787269228E+02  0.19999991720E+02 0.  0.
         12    1    1    2    0    0 -0.11498195559E+02  0.14016850565E+02 -0.39432763416E+02  0.43400730772E+02  0.00000000000E+00 0. -1.
         11    1    3    3    0    0 -0.43236824721E+01  0.52944078805E+00  0.52590225518E+01  0.68287521648E+01  0.51100000000E-03 0. -1.
        -11    1    3    3    0    0  0.74130633396E+01 -0.28915575973E+01  0.15195155605E+02  0.17152474094E+02  0.51100000000E-03 0.  1.
         12    1    3    3    0    0  0.84088146912E+01 -0.11654733756E+02  0.18978585259E+02  0.23806042970E+02  0.00000000000E+00 0. -1.
</event>
<event>
 7    1  0.4723144E-009  0.4778727E+02  0.7816164E-02  0.1312668E+00
        -11   -1    0    0    0    0  0.00000000000E+00  0.00000000000E+00  0.45593999997E+02  0.45594000000E+02  0.51100000000E-03 0. -1.
         11   -1    0    0    0    0 -0.00000000000E+00 -0.00000000000E+00 -0.45593999997E+02  0.45594000000E+02  0.51100000000E-03 0.  1.
    9900012    2    1    2    0    0  0.40880759480E+02  0.52882442182E+01  0.13580189449E+02  0.47787267655E+02  0.19999984546E+02 0.  0.
         12    1    1    2    0    0 -0.40880759480E+02 -0.52882442182E+01 -0.13580189449E+02  0.43400732345E+02  0.00000000000E+00 0. -1.
         11    1    3    3    0    0  0.18642245043E+02  0.62167679685E+01 -0.93800761087E+00  0.19673875133E+02  0.51100000000E-03 0. -1.
        -11    1    3    3    0    0  0.18277835401E+02 -0.15008923831E+00  0.69863259237E+01  0.19568100161E+02  0.51100000000E-03 0.  1.
         12    1    3    3    0    0  0.39606790364E+01 -0.77843451200E+00  0.75318711367E+01  0.85452923612E+01  0.00000000000E+00 0. -1.
</event>
<event>
 7    1  0.4723144E-009  0.4778727E+02  0.7816164E-02  0.1312668E+00
        -11   -1    0    0    0    0  0.00000000000E+00  0.00000000000E+00  0.45593999997E+02  0.45594000000E+02  0.51100000000E-03 0. -1.
         11   -1    0    0    0    0 -0.00000000000E+00 -0.00000000000E+00 -0.45593999997E+02  0.45594000000E+02  0.51100000000E-03 0.  1.
    9900012    2    1    2    0    0 -0.54343634474E+01 -0.42755750490E+02  0.51025952154E+01  0.47787274384E+02  0.20000015226E+02 0.  0.
         12    1    1    2    0    0  0.54343634474E+01  0.42755750490E+02 -0.51025952154E+01  0.43400725616E+02  0.00000000000E+00 0. -1.
         11    1    3    3    0    0 -0.27354442878E+01 -0.10736293124E+01  0.42113736866E+01  0.51352705812E+01  0.51100000000E-03 0. -1.
        -11    1    3    3    0    0 -0.39376090054E+01 -0.29357209798E+02 -0.27323966653E+01  0.29745865656E+02  0.51100000000E-03 0.  1.
        -12    1    3    3    0    0  0.12386898459E+01 -0.12324911380E+02  0.36236181941E+01  0.12906138147E+02  0.00000000000E+00 0.  1.
</event>
<event>
 7    1  0.4723144E-009  0.4778728E+02  0.7816164E-02  0.1312668E+00
        -11   -1    0    0    0    0  0.00000000000E+00  0.00000000000E+00  0.45593999997E+02  0.45594000000E+02  0.51100000000E-03 0.  1.
         11   -1    0    0    0    0 -0.00000000000E+00 -0.00000000000E+00 -0.45593999997E+02  0.45594000000E+02  0.51100000000E-03 0. -1.
    9900012    2    1    2    0    0  0.19502076335E+02 -0.55046143613E+01  0.38379558222E+02  0.47787282840E+02  0.20000053783E+02 0.  0.
         12    1    1    2    0    0 -0.19502076335E+02  0.55046143613E+01 -0.38379558222E+02  0.43400717160E+02  0.00000000000E+00 0. -1.
         11    1    3    3    0    0  0.88990362047E+01 -0.38161895440E+01  0.43894700287E+01  0.10631255589E+02  0.51100000000E-03 0. -1.
        -11    1    3    3    0    0  0.96757573756E+01  0.26792375101E+01  0.18666860111E+02  0.21195524554E+02  0.51100000000E-03 0.  1.
         12    1    3    3    0    0  0.92728275491E+00 -0.43676623274E+01  0.15323228082E+02  0.15960502698E+02  0.00000000000E+00 0. -1.
</event>
<event>
 7    1  0.4723144E-009  0.4778727E+02  0.7816164E-02  0.1312668E+00
        -11   -1    0    0    0    0  0.00000000000E+00  0.00000000000E+00  0.45593999997E+02  0.45594000000E+02  0.51100000000E-03 0.  1.
         11   -1    0    0    0    0 -0.00000000000E+00 -0.00000000000E+00 -0.45593999997E+02  0.45594000000E+02  0.51100000000E-03 0. -1.
    9900012    2    1    2    0    0  0.33049734676E+02 -0.50818587538E+01  0.27667908107E+02  0.47787269712E+02  0.19999993925E+02 0.  0.
         12    1    1    2    0    0 -0.33049734676E+02  0.50818587538E+01 -0.27667908107E+02  0.43400730288E+02  0.00000000000E+00 0. -1.
         11    1    3    3    0    0  0.57826266382E+01 -0.61777049071E+01  0.11046153636E+02  0.13914751854E+02  0.51100000000E-03 0. -1.
        -11    1    3    3    0    0  0.14553940524E+02 -0.47307305434E+01  0.10767103507E+02  0.18711694591E+02  0.51100000000E-03 0.  1.
         12    1    3    3    0    0  0.12713167514E+02  0.58265766966E+01  0.58546509631E+01  0.15160823267E+02  0.00000000000E+00 0. -1.
</event>
<event>
 7    1  0.4723144E-009  0.4778727E+02  0.7816164E-02  0.1312668E+00
        -11   -1    0    0    0    0  0.00000000000E+00  0.00000000000E+00  0.45593999997E+02  0.45594000000E+02  0.51100000000E-03 0.  1.
         11   -1    0    0    0    0 -0.00000000000E+00 -0.00000000000E+00 -0.45593999997E+02  0.45594000000E+02  0.51100000000E-03 0. -1.
    9900012    2    1    2    0    0 -0.20374230156E+02 -0.34203464489E+02 -0.17281113296E+02  0.47787272883E+02  0.20000008383E+02 0.  0.
         12    1    1    2    0    0  0.20374230156E+02  0.34203464489E+02  0.17281113296E+02  0.43400727117E+02  0.00000000000E+00 0. -1.
         11    1    3    3    0    0  0.23754251330E+01 -0.45661003452E+01 -0.61831484416E+01  0.80450756265E+01  0.51100000000E-03 0. -1.
        -11    1    3    3    0    0 -0.13899734698E+02 -0.12595915826E+02 -0.75207698625E+01  0.20209445805E+02  0.51100000000E-03 0.  1.
         12    1    3    3    0    0 -0.88499205916E+01 -0.17041448319E+02 -0.35771949920E+01  0.19532751452E+02  0.00000000000E+00 0. -1.
</event>
<event>
 7    1  0.4723144E-009  0.4778727E+02  0.7816164E-02  0.1312668E+00
        -11   -1    0    0    0    0  0.00000000000E+00  0.00000000000E+00  0.45593999997E+02  0.45594000000E+02  0.51100000000E-03 0.  1.
         11   -1    0    0    0    0 -0.00000000000E+00 -0.00000000000E+00 -0.45593999997E+02  0.45594000000E+02  0.51100000000E-03 0. -1.
    9900012    2    1    2    0    0 -0.22338962660E+02  0.11214502549E+02  0.35479977873E+02  0.47787272472E+02  0.20000006508E+02 0.  0.
         12    1    1    2    0    0  0.22338962660E+02 -0.11214502549E+02 -0.35479977873E+02  0.43400727528E+02  0.00000000000E+00 0. -1.
         11    1    3    3    0    0  0.13962704597E+01 -0.21240398297E+01  0.33984908460E+01  0.42439199670E+01  0.51100000000E-03 0. -1.
        -11    1    3    3    0    0 -0.17523247310E+02  0.78043808948E+01  0.28792112985E+02  0.34597085540E+02  0.51100000000E-03 0.  1.
         12    1    3    3    0    0 -0.62119858097E+01  0.55341614835E+01  0.32893740417E+01  0.89462669651E+01  0.00000000000E+00 0. -1.
</event>
<event>
 7    1  0.4723144E-009  0.4778727E+02  0.7816164E-02  0.1312668E+00
        -11   -1    0    0    0    0  0.00000000000E+00  0.00000000000E+00  0.45593999997E+02  0.45594000000E+02  0.51100000000E-03 0.  1.
         11   -1    0    0    0    0 -0.00000000000E+00 -0.00000000000E+00 -0.45593999997E+02  0.45594000000E+02  0.51100000000E-03 0. -1.
    9900012    2    1    2    0    0  0.15721813478E+02 -0.35375875946E+02  0.19621295294E+02  0.47787271354E+02  0.20000001410E+02 0.  0.
         12    1    1    2    0    0 -0.15721813478E+02  0.35375875946E+02 -0.19621295294E+02  0.43400728646E+02  0.00000000000E+00 0. -1.
         11    1    3    3    0    0  0.26402812764E+00  0.13909638173E+01  0.14736681247E+01  0.20435726550E+01  0.51100000000E-03 0. -1.
        -11    1    3    3    0    0  0.74590174109E+01 -0.29364132770E+02  0.92588553829E+01  0.31679893266E+02  0.51100000000E-03 0.  1.
        -12    1    3    3    0    0  0.79987679397E+01 -0.74027069937E+01  0.88887717862E+01  0.14063805433E+02  0.00000000000E+00 0.  1.
</event>
<event>
 7    1  0.4723144E-009  0.4778727E+02  0.7816164E-02  0.1312668E+00
        -11   -1    0    0    0    0  0.00000000000E+00  0.00000000000E+00  0.45593999997E+02  0.45594000000E+02  0.51100000000E-03 0.  1.
         11   -1    0    0    0    0 -0.00000000000E+00 -0.00000000000E+00 -0.45593999997E+02  0.45594000000E+02  0.51100000000E-03 0. -1.
    9900012    2    1    2    0    0 -0.11262892151E+02  0.13629657922E+02  0.39635882830E+02  0.47787268181E+02  0.19999986945E+02 0.  0.
         12    1    1    2    0    0  0.11262892151E+02 -0.13629657922E+02 -0.39635882830E+02  0.43400731819E+02  0.00000000000E+00 0. -1.
         11    1    3    3    0    0 -0.46251468473E+01  0.17874892595E+01  0.19602259447E+02  0.20219685380E+02  0.51100000000E-03 0. -1.
        -11    1    3    3    0    0 -0.71708502911E+01  0.14526260918E+02  0.17241938523E+02  0.23658355700E+02  0.51100000000E-03 0.  1.
        -12    1    3    3    0    0  0.53310498746E+00 -0.26840922553E+01  0.27916848609E+01  0.39092271007E+01  0.00000000000E+00 0.  1.
</event>
<event>
 7    1  0.4723144E-009  0.4778724E+02  0.7816164E-02  0.1312668E+00
        -11   -1    0    0    0    0  0.00000000000E+00  0.00000000000E+00  0.45593999997E+02  0.45594000000E+02  0.51100000000E-03 0. -1.
         11   -1    0    0    0    0 -0.00000000000E+00 -0.00000000000E+00 -0.45593999997E+02  0.45594000000E+02  0.51100000000E-03 0.  1.
    9900012    2    1    2    0    0 -0.38959153437E+02  0.11598233981E+00 -0.19125807047E+02  0.47787244434E+02  0.19999878674E+02 0.  0.
         12    1    1    2    0    0  0.38959153437E+02 -0.11598233981E+00  0.19125807047E+02  0.43400755566E+02  0.00000000000E+00 0. -1.
         11    1    3    3    0    0 -0.27546272912E+02 -0.25853480158E-01 -0.17004201695E+02  0.32371912135E+02  0.51100000000E-03 0. -1.
        -11    1    3    3    0    0 -0.64615287751E+01  0.51180805921E+01 -0.93398032827E+00  0.82956869862E+01  0.51100000000E-03 0.  1.
         12    1    3    3    0    0 -0.49513517500E+01 -0.49762447721E+01 -0.11876250238E+01  0.71196453129E+01  0.00000000000E+00 0. -1.
</event>
<event>
 7    1  0.4723144E-009  0.4778727E+02  0.7816164E-02  0.1312668E+00
        -11   -1    0    0    0    0  0.00000000000E+00  0.00000000000E+00  0.45593999997E+02  0.45594000000E+02  0.51100000000E-03 0.  1.
         11   -1    0    0    0    0 -0.00000000000E+00 -0.00000000000E+00 -0.45593999997E+02  0.45594000000E+02  0.51100000000E-03 0. -1.
    9900012    2    1    2    0    0  0.40879065003E+01  0.38127481108E+01  0.43039232733E+02  0.47787267496E+02  0.19999983819E+02 0.  0.
         12    1    1    2    0    0 -0.40879065003E+01 -0.38127481108E+01 -0.43039232733E+02  0.43400732504E+02  0.00000000000E+00 0. -1.
         11    1    3    3    0    0  0.17079119002E+00  0.37732327411E+01  0.27405389328E+01  0.46665842811E+01  0.51100000000E-03 0. -1.
        -11    1    3    3    0    0  0.34009928933E+01  0.41897497049E+01  0.37934673520E+02  0.38316578795E+02  0.51100000000E-03 0.  1.
        -12    1    3    3    0    0  0.51612241694E+00 -0.41502343352E+01  0.23640202800E+01  0.48041044192E+01  0.00000000000E+00 0.  1.
</event>
<event>
 7    1  0.4723144E-009  0.4778727E+02  0.7816164E-02  0.1312668E+00
        -11   -1    0    0    0    0  0.00000000000E+00  0.00000000000E+00  0.45593999997E+02  0.45594000000E+02  0.51100000000E-03 0.  1.
         11   -1    0    0    0    0 -0.00000000000E+00 -0.00000000000E+00 -0.45593999997E+02  0.45594000000E+02  0.51100000000E-03 0. -1.
    9900012    2    1    2    0    0 -0.97330928796E+01 -0.13517840817E+02  0.40076904431E+02  0.47787269751E+02  0.19999994102E+02 0.  0.
         12    1    1    2    0    0  0.97330928796E+01  0.13517840817E+02 -0.40076904431E+02  0.43400730249E+02  0.00000000000E+00 0. -1.
         11    1    3    3    0    0 -0.94299067526E+01 -0.34997214597E+01  0.12846549314E+02  0.16315790548E+02  0.51100000000E-03 0.  1.
        -11    1    3    3    0    0  0.26065717333E+01 -0.56911594063E+01  0.34932902106E+01  0.71684439278E+01  0.51100000000E-03 0. -1.
        -12    1    3    3    0    0 -0.29097578603E+01 -0.43269599512E+01  0.23737064906E+02  0.24303035275E+02  0.00000000000E+00 0.  1.
</event>
<event>
 7    1  0.4723144E-009  0.4778727E+02  0.7816164E-02  0.1312668E+00
        -11   -1    0    0    0    0  0.00000000000E+00  0.00000000000E+00  0.45593999997E+02  0.45594000000E+02  0.51100000000E-03 0. -1.
         11   -1    0    0    0    0 -0.00000000000E+00 -0.00000000000E+00 -0.45593999997E+02  0.45594000000E+02  0.51100000000E-03 0.  1.
    9900012    2    1    2    0    0  0.37129302546E+02 -0.22246302587E+02  0.31843403376E+01  0.47787272935E+02  0.20000008620E+02 0.  0.
         12    1    1    2    0    0 -0.37129302546E+02  0.22246302587E+02 -0.31843403376E+01  0.43400727065E+02  0.00000000000E+00 0. -1.
         11    1    3    3    0    0  0.18803296033E+02 -0.18330363259E+02 -0.36282960028E+01  0.26509068091E+02  0.51100000000E-03 0. -1.
        -11    1    3    3    0    0  0.55338090658E+01 -0.27588115879E+01 -0.97138725204E+00  0.62592074265E+01  0.51100000000E-03 0.  1.
         12    1    3    3    0    0  0.12792197448E+02 -0.11571277405E+01  0.77840235924E+01  0.15018997418E+02  0.00000000000E+00 0. -1.
</event>
<event>
 7    1  0.4723144E-009  0.4778727E+02  0.7816164E-02  0.1312668E+00
        -11   -1    0    0    0    0  0.00000000000E+00  0.00000000000E+00  0.45593999997E+02  0.45594000000E+02  0.51100000000E-03 0.  1.
         11   -1    0    0    0    0 -0.00000000000E+00 -0.00000000000E+00 -0.45593999997E+02  0.45594000000E+02  0.51100000000E-03 0. -1.
    9900012    2    1    2    0    0  0.18202525485E+02 -0.29429982781E+02  0.26194798240E+02  0.47787271028E+02  0.19999999923E+02 0.  0.
         12    1    1    2    0    0 -0.18202525485E+02  0.29429982781E+02 -0.26194798240E+02  0.43400728972E+02  0.00000000000E+00 0. -1.
         11    1    3    3    0    0  0.18133141574E+02 -0.11730025245E+02  0.10152204763E+02  0.23863603613E+02  0.51100000000E-03 0. -1.
        -11    1    3    3    0    0 -0.58111418872E+00 -0.95714105534E+01  0.84156182921E+01  0.12758221866E+02  0.51100000000E-03 0.  1.
         12    1    3    3    0    0  0.65049809959E+00 -0.81285469826E+01  0.76269751846E+01  0.11165445548E+02  0.00000000000E+00 0. -1.
</event>
<event>
 7    1  0.4723144E-009  0.4778727E+02  0.7816164E-02  0.1312668E+00
        -11   -1    0    0    0    0  0.00000000000E+00  0.00000000000E+00  0.45593999997E+02  0.45594000000E+02  0.51100000000E-03 0. -1.
         11   -1    0    0    0    0 -0.00000000000E+00 -0.00000000000E+00 -0.45593999997E+02  0.45594000000E+02  0.51100000000E-03 0.  1.
    9900012    2    1    2    0    0 -0.61717188488E+00 -0.30450921630E+02 -0.30918985709E+02  0.47787271821E+02  0.20000003539E+02 0.  0.
         12    1    1    2    0    0  0.61717188488E+00  0.30450921630E+02  0.30918985709E+02  0.43400728179E+02  0.00000000000E+00 0. -1.
         11    1    3    3    0    0 -0.56847908704E+01 -0.14712323636E+02 -0.21718773036E+02  0.26841654504E+02  0.51100000000E-03 0. -1.
        -11    1    3    3    0    0  0.32563513507E+01 -0.29300513341E+01  0.97455643354E+00  0.44876258136E+01  0.51100000000E-03 0.  1.
        -12    1    3    3    0    0  0.18112676348E+01 -0.12808546659E+02 -0.10174769106E+02  0.16457991503E+02  0.00000000000E+00 0.  1.
</event>
<event>
 7    1  0.4723144E-009  0.4778727E+02  0.7816164E-02  0.1312668E+00
        -11   -1    0    0    0    0  0.00000000000E+00  0.00000000000E+00  0.45593999997E+02  0.45594000000E+02  0.51100000000E-03 0.  1.
         11   -1    0    0    0    0 -0.00000000000E+00 -0.00000000000E+00 -0.45593999997E+02  0.45594000000E+02  0.51100000000E-03 0. -1.
    9900012    2    1    2    0    0 -0.32333636123E+02  0.22164206483E+02  0.18625444319E+02  0.47787271320E+02  0.20000001255E+02 0.  0.
         12    1    1    2    0    0  0.32333636123E+02 -0.22164206483E+02 -0.18625444319E+02  0.43400728680E+02  0.00000000000E+00 0. -1.
         11    1    3    3    0    0 -0.12161074565E+02  0.80538662981E+01 -0.68157081802E+00  0.14602090123E+02  0.51100000000E-03 0. -1.
        -11    1    3    3    0    0 -0.13347858562E+02  0.53438108508E+01  0.16176787667E+02  0.21642784065E+02  0.51100000000E-03 0.  1.
        -12    1    3    3    0    0 -0.68247029958E+01  0.87665293337E+01  0.31302274702E+01  0.11542397132E+02  0.00000000000E+00 0.  1.
</event>
<event>
 7    1  0.4723144E-009  0.4778727E+02  0.7816164E-02  0.1312668E+00
        -11   -1    0    0    0    0  0.00000000000E+00  0.00000000000E+00  0.45593999997E+02  0.45594000000E+02  0.51100000000E-03 0. -1.
         11   -1    0    0    0    0 -0.00000000000E+00 -0.00000000000E+00 -0.45593999997E+02  0.45594000000E+02  0.51100000000E-03 0.  1.
    9900012    2    1    2    0    0  0.42042813371E+02 -0.10771166576E+02 -0.86611235102E-01  0.47787266284E+02  0.19999978296E+02 0.  0.
         12    1    1    2    0    0 -0.42042813371E+02  0.10771166576E+02  0.86611235102E-01  0.43400733716E+02  0.00000000000E+00 0. -1.
         11    1    3    3    0    0  0.18463097654E+01 -0.68622829413E+01 -0.15221441919E+01  0.72675105861E+01  0.51100000000E-03 0. -1.
        -11    1    3    3    0    0  0.12473138554E+02  0.11561083119E+00  0.10224825447E+00  0.12474093403E+02  0.51100000000E-03 0.  1.
         12    1    3    3    0    0  0.27723365052E+02 -0.40244944658E+01  0.13332847024E+01  0.28045662295E+02  0.00000000000E+00 0. -1.
</event>
<event>
 7    1  0.4723144E-009  0.4778727E+02  0.7816164E-02  0.1312668E+00
        -11   -1    0    0    0    0  0.00000000000E+00  0.00000000000E+00  0.45593999997E+02  0.45594000000E+02  0.51100000000E-03 0.  1.
         11   -1    0    0    0    0 -0.00000000000E+00 -0.00000000000E+00 -0.45593999997E+02  0.45594000000E+02  0.51100000000E-03 0. -1.
    9900012    2    1    2    0    0 -0.78894754373E+00 -0.42462130820E+02  0.89424907655E+01  0.47787272666E+02  0.20000007393E+02 0.  0.
         12    1    1    2    0    0  0.78894754373E+00  0.42462130820E+02 -0.89424907655E+01  0.43400727334E+02  0.00000000000E+00 0. -1.
         11    1    3    3    0    0 -0.60563285921E+01 -0.16878825449E+02 -0.18980999278E+01  0.18032655050E+02  0.51100000000E-03 0. -1.
        -11    1    3    3    0    0  0.41497253096E+01 -0.25646716513E+02  0.88054690047E+01  0.27431926158E+02  0.51100000000E-03 0.  1.
         12    1    3    3    0    0  0.11176557388E+01  0.63411141987E-01  0.20351216886E+01  0.23226914584E+01  0.00000000000E+00 0. -1.
</event>
<event>
 7    1  0.4723144E-009  0.4778728E+02  0.7816164E-02  0.1312668E+00
        -11   -1    0    0    0    0  0.00000000000E+00  0.00000000000E+00  0.45593999997E+02  0.45594000000E+02  0.51100000000E-03 0.  1.
         11   -1    0    0    0    0 -0.00000000000E+00 -0.00000000000E+00 -0.45593999997E+02  0.45594000000E+02  0.51100000000E-03 0. -1.
    9900012    2    1    2    0    0  0.99266938331E+01  0.23418189283E+02  0.35166346785E+02  0.47787276665E+02  0.20000025628E+02 0.  0.
         12    1    1    2    0    0 -0.99266938331E+01 -0.23418189283E+02 -0.35166346785E+02  0.43400723335E+02  0.00000000000E+00 0. -1.
         11    1    3    3    0    0 -0.23522407116E+01  0.60158328439E+00 -0.13518017384E+00  0.24317098416E+01  0.51100000000E-03 0. -1.
        -11    1    3    3    0    0  0.10722583568E+02  0.75386902940E+01  0.16923523275E+02  0.21405870457E+02  0.51100000000E-03 0.  1.
         12    1    3    3    0    0  0.15563509762E+01  0.15277915705E+02  0.18378003684E+02  0.23949696367E+02  0.00000000000E+00 0. -1.
</event>
<event>
 7    1  0.4723144E-009  0.4778727E+02  0.7816164E-02  0.1312668E+00
        -11   -1    0    0    0    0  0.00000000000E+00  0.00000000000E+00  0.45593999997E+02  0.45594000000E+02  0.51100000000E-03 0.  1.
         11   -1    0    0    0    0 -0.00000000000E+00 -0.00000000000E+00 -0.45593999997E+02  0.45594000000E+02  0.51100000000E-03 0. -1.
    9900012    2    1    2    0    0 -0.24719917885E+02  0.20363845432E+02  0.29289294679E+02  0.47787270469E+02  0.19999997377E+02 0.  0.
         12    1    1    2    0    0  0.24719917885E+02 -0.20363845432E+02 -0.29289294679E+02  0.43400729531E+02  0.00000000000E+00 0. -1.
         11    1    3    3    0    0 -0.89506983002E+01  0.14930885275E+02  0.97875933099E+01  0.19971062020E+02  0.51100000000E-03 0. -1.
        -11    1    3    3    0    0 -0.36214917000E+01 -0.32791591714E+01  0.47112570399E+01  0.67870487077E+01  0.51100000000E-03 0.  1.
        -12    1    3    3    0    0 -0.12147727885E+02  0.87121193283E+01  0.14790444329E+02  0.21029159741E+02  0.00000000000E+00 0.  1.
</event>
<event>
 7    1  0.4723144E-009  0.4778727E+02  0.7816164E-02  0.1312668E+00
        -11   -1    0    0    0    0  0.00000000000E+00  0.00000000000E+00  0.45593999997E+02  0.45594000000E+02  0.51100000000E-03 0.  1.
         11   -1    0    0    0    0 -0.00000000000E+00 -0.00000000000E+00 -0.45593999997E+02  0.45594000000E+02  0.51100000000E-03 0. -1.
    9900012    2    1    2    0    0 -0.23978069979E+02  0.19961280541E+02  0.30169902763E+02  0.47787267362E+02  0.19999983210E+02 0.  0.
         12    1    1    2    0    0  0.23978069979E+02 -0.19961280541E+02 -0.30169902763E+02  0.43400732638E+02  0.00000000000E+00 0. -1.
         11    1    3    3    0    0 -0.53550983858E+01  0.73986246751E+01  0.15534164343E+02  0.18020182794E+02  0.51100000000E-03 0. -1.
        -11    1    3    3    0    0 -0.11238125901E+02  0.12500514294E+02  0.48266090336E+01  0.17488695961E+02  0.51100000000E-03 0.  1.
        -12    1    3    3    0    0 -0.73848456930E+01  0.62141571244E-01  0.98091293864E+01  0.12278388608E+02  0.00000000000E+00 0.  1.
</event>
<event>
 7    1  0.4723144E-009  0.4778727E+02  0.7816164E-02  0.1312668E+00
        -11   -1    0    0    0    0  0.00000000000E+00  0.00000000000E+00  0.45593999997E+02  0.45594000000E+02  0.51100000000E-03 0.  1.
         11   -1    0    0    0    0 -0.00000000000E+00 -0.00000000000E+00 -0.45593999997E+02  0.45594000000E+02  0.51100000000E-03 0. -1.
    9900012    2    1    2    0    0 -0.38105666808E+02 -0.18742790284E+02  0.89604272924E+01  0.47787270884E+02  0.19999999270E+02 0.  0.
         12    1    1    2    0    0  0.38105666808E+02  0.18742790284E+02 -0.89604272924E+01  0.43400729116E+02  0.00000000000E+00 0. -1.
         11    1    3    3    0    0 -0.49338955091E+01 -0.89052773338E+01  0.81582815826E+01  0.13046258005E+02  0.51100000000E-03 0. -1.
        -11    1    3    3    0    0 -0.22030771815E+02 -0.53052985397E+01 -0.30463903250E+00  0.22662610277E+02  0.51100000000E-03 0.  1.
         12    1    3    3    0    0 -0.11140999484E+02 -0.45322144103E+01  0.11067847423E+01  0.12078402603E+02  0.00000000000E+00 0. -1.
</event>
<event>
 7    1  0.4723144E-009  0.4778727E+02  0.7816164E-02  0.1312668E+00
        -11   -1    0    0    0    0  0.00000000000E+00  0.00000000000E+00  0.45593999997E+02  0.45594000000E+02  0.51100000000E-03 0.  1.
         11   -1    0    0    0    0 -0.00000000000E+00 -0.00000000000E+00 -0.45593999997E+02  0.45594000000E+02  0.51100000000E-03 0. -1.
    9900012    2    1    2    0    0  0.36858830382E+02 -0.88056423396E+00  0.22897051723E+02  0.47787265581E+02  0.19999975090E+02 0.  0.
         12    1    1    2    0    0 -0.36858830382E+02  0.88056423396E+00 -0.22897051723E+02  0.43400734419E+02  0.00000000000E+00 0. -1.
         11    1    3    3    0    0 -0.23812227510E+00 -0.27628083424E+01  0.17420608974E+01  0.32748417650E+01  0.51100000000E-03 0. -1.
        -11    1    3    3    0    0  0.33906274728E+02  0.54290848935E+01  0.17778182894E+02  0.38667482670E+02  0.51100000000E-03 0.  1.
        -12    1    3    3    0    0  0.31906779289E+01 -0.35468407851E+01  0.33768079314E+01  0.58449411466E+01  0.00000000000E+00 0.  1.
</event>
<event>
 7    1  0.4723144E-009  0.4778727E+02  0.7816164E-02  0.1312668E+00
        -11   -1    0    0    0    0  0.00000000000E+00  0.00000000000E+00  0.45593999997E+02  0.45594000000E+02  0.51100000000E-03 0.  1.
         11   -1    0    0    0    0 -0.00000000000E+00 -0.00000000000E+00 -0.45593999997E+02  0.45594000000E+02  0.51100000000E-03 0. -1.
    9900012    2    1    2    0    0 -0.36307611539E+02 -0.22736099985E+02  0.69606284507E+01  0.47787271358E+02  0.20000001431E+02 0.  0.
         12    1    1    2    0    0  0.36307611539E+02  0.22736099985E+02 -0.69606284507E+01  0.43400728642E+02  0.00000000000E+00 0. -1.
         11    1    3    3    0    0 -0.32449490176E+02 -0.24086429190E+02  0.60303135553E+01  0.40859395072E+02  0.51100000000E-03 0. -1.
        -11    1    3    3    0    0 -0.41608027313E+01  0.27483114713E+01 -0.36269574462E+00  0.49997043689E+01  0.51100000000E-03 0.  1.
         12    1    3    3    0    0  0.30268136825E+00 -0.13979822667E+01  0.12930106400E+01  0.19281719176E+01  0.00000000000E+00 0. -1.
</event>
<event>
 7    1  0.4723144E-009  0.4778729E+02  0.7816164E-02  0.1312668E+00
        -11   -1    0    0    0    0  0.00000000000E+00  0.00000000000E+00  0.45593999997E+02  0.45594000000E+02  0.51100000000E-03 0.  1.
         11   -1    0    0    0    0 -0.00000000000E+00 -0.00000000000E+00 -0.45593999997E+02  0.45594000000E+02  0.51100000000E-03 0. -1.
    9900012    2    1    2    0    0 -0.74738407216E+01 -0.19435518562E+02  0.38079183084E+02  0.47787287318E+02  0.20000074198E+02 0.  0.
         12    1    1    2    0    0  0.74738407216E+01  0.19435518562E+02 -0.38079183084E+02  0.43400712682E+02  0.00000000000E+00 0. -1.
         11    1    3    3    0    0  0.38689297987E+01  0.64993620406E-01  0.38134828094E+01  0.54328163375E+01  0.51100000000E-03 0. -1.
        -11    1    3    3    0    0 -0.11003229069E+02 -0.10293956487E+02  0.16517771500E+02  0.22357847966E+02  0.51100000000E-03 0.  1.
        -12    1    3    3    0    0 -0.33954145146E+00 -0.92065556962E+01  0.17747928775E+02  0.19996623015E+02  0.00000000000E+00 0.  1.
</event>
<event>
 7    1  0.4723144E-009  0.4778727E+02  0.7816164E-02  0.1312668E+00
        -11   -1    0    0    0    0  0.00000000000E+00  0.00000000000E+00  0.45593999997E+02  0.45594000000E+02  0.51100000000E-03 0.  1.
         11   -1    0    0    0    0 -0.00000000000E+00 -0.00000000000E+00 -0.45593999997E+02  0.45594000000E+02  0.51100000000E-03 0. -1.
    9900012    2    1    2    0    0  0.35311820844E+02 -0.19936397633E+02  0.15467339063E+02  0.47787271669E+02  0.20000002849E+02 0.  0.
         12    1    1    2    0    0 -0.35311820844E+02  0.19936397633E+02 -0.15467339063E+02  0.43400728331E+02  0.00000000000E+00 0. -1.
         11    1    3    3    0    0  0.47213584048E+00  0.25282580617E+01  0.25503386315E+01  0.36220475528E+01  0.51100000000E-03 0. -1.
        -11    1    3    3    0    0  0.20555857947E+02 -0.17846624856E+02  0.82699736566E+01  0.28450620015E+02  0.51100000000E-03 0.  1.
        -12    1    3    3    0    0  0.14283827057E+02 -0.46180308389E+01  0.46470267749E+01  0.15714604102E+02  0.00000000000E+00 0.  1.
</event>
<event>
 7    1  0.4723144E-009  0.4778728E+02  0.7816164E-02  0.1312668E+00
        -11   -1    0    0    0    0  0.00000000000E+00  0.00000000000E+00  0.45593999997E+02  0.45594000000E+02  0.51100000000E-03 0.  1.
         11   -1    0    0    0    0 -0.00000000000E+00 -0.00000000000E+00 -0.45593999997E+02  0.45594000000E+02  0.51100000000E-03 0. -1.
    9900012    2    1    2    0    0  0.42531088683E+02 -0.50069556358E+01  0.70469531066E+01  0.47787278147E+02  0.20000032382E+02 0.  0.
         12    1    1    2    0    0 -0.42531088683E+02  0.50069556358E+01 -0.70469531066E+01  0.43400721853E+02  0.00000000000E+00 0. -1.
         11    1    3    3    0    0  0.59928309374E+00 -0.38961427066E+01  0.13666838617E+01  0.41721569068E+01  0.51100000000E-03 0. -1.
        -11    1    3    3    0    0  0.41878595448E+02 -0.23908033663E+01  0.53096863318E+01  0.42281502654E+02  0.51100000000E-03 0.  1.
        -12    1    3    3    0    0  0.53210141343E-01  0.12799904371E+01  0.37058291307E+00  0.13336185863E+01  0.00000000000E+00 0.  1.
</event>
<event>
 7    1  0.4723144E-009  0.4778727E+02  0.7816164E-02  0.1312668E+00
        -11   -1    0    0    0    0  0.00000000000E+00  0.00000000000E+00  0.45593999997E+02  0.45594000000E+02  0.51100000000E-03 0. -1.
         11   -1    0    0    0    0 -0.00000000000E+00 -0.00000000000E+00 -0.45593999997E+02  0.45594000000E+02  0.51100000000E-03 0.  1.
    9900012    2    1    2    0    0  0.12947675254E+01  0.38320896040E+02 -0.20333613839E+02  0.47787270190E+02  0.19999996107E+02 0.  0.
         12    1    1    2    0    0 -0.12947675254E+01 -0.38320896040E+02  0.20333613839E+02  0.43400729810E+02  0.00000000000E+00 0. -1.
         11    1    3    3    0    0 -0.33757481344E+01  0.11303407152E+02  0.11557078127E+01  0.11853199969E+02  0.51100000000E-03 0. -1.
        -11    1    3    3    0    0  0.19480912892E+01  0.16674906564E+02 -0.18163970874E+02  0.24734134445E+02  0.51100000000E-03 0.  1.
        -12    1    3    3    0    0  0.27224243707E+01  0.10342582325E+02 -0.33253507778E+01  0.11199935776E+02  0.00000000000E+00 0.  1.
</event>
<event>
 7    1  0.4887543E-009  0.4778727E+02  0.7816164E-02  0.1312668E+00
        -11   -1    0    0    0    0  0.00000000000E+00  0.00000000000E+00  0.45593999997E+02  0.45594000000E+02  0.51100000000E-03 0.  1.
         11   -1    0    0    0    0 -0.00000000000E+00 -0.00000000000E+00 -0.45593999997E+02  0.45594000000E+02  0.51100000000E-03 0. -1.
    9900012    2    1    2    0    0 -0.38499470370E+02 -0.61512071337E+01  0.19067690226E+02  0.47787269838E+02  0.19999994502E+02 0.  0.
         12    1    1    2    0    0  0.38499470370E+02  0.61512071337E+01 -0.19067690226E+02  0.43400730162E+02  0.00000000000E+00 0. -1.
         11    1    3    3    0    0  0.57167136396E+00  0.16768127113E+01  0.86155519441E+00  0.19699712260E+01  0.51100000000E-03 0. -1.
        -11    1    3    3    0    0 -0.30517157929E+02 -0.89382040416E+01  0.19181690206E+02  0.37136581142E+02  0.51100000000E-03 0.  1.
        -12    1    3    3    0    0 -0.85539838057E+01  0.11101841966E+01 -0.97555517419E+00  0.86807174701E+01  0.00000000000E+00 0.  1.
</event>
<event>
 7    1  0.4723144E-009  0.4778727E+02  0.7816164E-02  0.1312668E+00
        -11   -1    0    0    0    0  0.00000000000E+00  0.00000000000E+00  0.45593999997E+02  0.45594000000E+02  0.51100000000E-03 0. -1.
         11   -1    0    0    0    0 -0.00000000000E+00 -0.00000000000E+00 -0.45593999997E+02  0.45594000000E+02  0.51100000000E-03 0.  1.
    9900012    2    1    2    0    0  0.12293623198E+01 -0.10694009961E+02 -0.42044621478E+02  0.47787269868E+02  0.19999994637E+02 0.  0.
         12    1    1    2    0    0 -0.12293623198E+01  0.10694009961E+02  0.42044621478E+02  0.43400730132E+02  0.00000000000E+00 0. -1.
         11    1    3    3    0    0  0.29520894627E+01 -0.63373265629E+01 -0.17748204730E+01  0.72129417114E+01  0.51100000000E-03 0. -1.
        -11    1    3    3    0    0 -0.22471499242E+00 -0.24886581684E+01 -0.23911154701E+02  0.24041365097E+02  0.51100000000E-03 0.  1.
         12    1    3    3    0    0 -0.14980121504E+01 -0.18680252296E+01 -0.16358646303E+02  0.16532963060E+02  0.00000000000E+00 0. -1.
</event>
<event>
 7    1  0.4723144E-009  0.4778727E+02  0.7816164E-02  0.1312668E+00
        -11   -1    0    0    0    0  0.00000000000E+00  0.00000000000E+00  0.45593999997E+02  0.45594000000E+02  0.51100000000E-03 0.  1.
         11   -1    0    0    0    0 -0.00000000000E+00 -0.00000000000E+00 -0.45593999997E+02  0.45594000000E+02  0.51100000000E-03 0. -1.
    9900012    2    1    2    0    0 -0.36353847347E+02  0.19877416480E+02  0.12919349117E+02  0.47787268618E+02  0.19999988937E+02 0.  0.
         12    1    1    2    0    0  0.36353847347E+02 -0.19877416480E+02 -0.12919349117E+02  0.43400731382E+02  0.00000000000E+00 0. -1.
         11    1    3    3    0    0 -0.10416835403E+02  0.14632539970E+02  0.11355949245E+02  0.21250394568E+02  0.51100000000E-03 0. -1.
        -11    1    3    3    0    0 -0.14124380186E+02  0.34812841224E+01  0.90261435744E+00  0.14575052924E+02  0.51100000000E-03 0.  1.
         12    1    3    3    0    0 -0.11812631758E+02  0.17635923877E+01  0.66078551475E+00  0.11961821126E+02  0.00000000000E+00 0. -1.
</event>
<event>
 7    1  0.4723144E-009  0.4778727E+02  0.7816164E-02  0.1312668E+00
        -11   -1    0    0    0    0  0.00000000000E+00  0.00000000000E+00  0.45593999997E+02  0.45594000000E+02  0.51100000000E-03 0. -1.
         11   -1    0    0    0    0 -0.00000000000E+00 -0.00000000000E+00 -0.45593999997E+02  0.45594000000E+02  0.51100000000E-03 0.  1.
    9900012    2    1    2    0    0 -0.28140549389E+01 -0.45732058785E+00 -0.43306989094E+02  0.47787270148E+02  0.19999995913E+02 0.  0.
         12    1    1    2    0    0  0.28140549389E+01  0.45732058785E+00  0.43306989094E+02  0.43400729852E+02  0.00000000000E+00 0. -1.
         11    1    3    3    0    0  0.53798854628E+01  0.37551846959E+01 -0.23084297102E+02  0.23998528135E+02  0.51100000000E-03 0. -1.
        -11    1    3    3    0    0 -0.61302681906E+01  0.12562102633E+01 -0.13503375125E+02  0.14882855652E+02  0.51100000000E-03 0.  1.
         12    1    3    3    0    0 -0.20636722111E+01 -0.54687155470E+01 -0.67193168670E+01  0.89058863617E+01  0.00000000000E+00 0. -1.
</event>
<event>
 7    1  0.4723144E-009  0.4778727E+02  0.7816164E-02  0.1312668E+00
        -11   -1    0    0    0    0  0.00000000000E+00  0.00000000000E+00  0.45593999997E+02  0.45594000000E+02  0.51100000000E-03 0.  1.
         11   -1    0    0    0    0 -0.00000000000E+00 -0.00000000000E+00 -0.45593999997E+02  0.45594000000E+02  0.51100000000E-03 0. -1.
    9900012    2    1    2    0    0  0.29912926120E+02 -0.27310735352E+02 -0.15587292800E+02  0.47787272916E+02  0.20000008535E+02 0.  0.
         12    1    1    2    0    0 -0.29912926120E+02  0.27310735352E+02  0.15587292800E+02  0.43400727084E+02  0.00000000000E+00 0. -1.
         11    1    3    3    0    0  0.25472594670E+02 -0.23089994902E+02 -0.46306572376E+01  0.34690689392E+02  0.51100000000E-03 0.  1.
        -11    1    3    3    0    0  0.37996355147E+01 -0.47814713961E+01 -0.82863572029E+01  0.10293853249E+02  0.51100000000E-03 0. -1.
        -12    1    3    3    0    0  0.64069593583E+00  0.56073094652E+00 -0.26702783600E+01  0.28027302753E+01  0.00000000000E+00 0.  1.
</event>
<event>
 7    1  0.4723144E-009  0.4778727E+02  0.7816164E-02  0.1312668E+00
        -11   -1    0    0    0    0  0.00000000000E+00  0.00000000000E+00  0.45593999997E+02  0.45594000000E+02  0.51100000000E-03 0. -1.
         11   -1    0    0    0    0 -0.00000000000E+00 -0.00000000000E+00 -0.45593999997E+02  0.45594000000E+02  0.51100000000E-03 0.  1.
    9900012    2    1    2    0    0 -0.19595072509E+02 -0.34893368787E+02  0.16796114591E+02  0.47787268240E+02  0.19999987215E+02 0.  0.
         12    1    1    2    0    0  0.19595072509E+02  0.34893368787E+02 -0.16796114591E+02  0.43400731760E+02  0.00000000000E+00 0. -1.
         11    1    3    3    0    0  0.71768372175E+00 -0.64866335477E+00 -0.19817686422E+01  0.22052757843E+01  0.51100000000E-03 0. -1.
        -11    1    3    3    0    0 -0.14424146038E+02 -0.12889137675E+02  0.97269059485E+01  0.21651756476E+02  0.51100000000E-03 0.  1.
        -12    1    3    3    0    0 -0.58886101929E+01 -0.21355567757E+02  0.90509772845E+01  0.23930235980E+02  0.00000000000E+00 0.  1.
</event>
<event>
 7    1  0.4723144E-009  0.4778728E+02  0.7816164E-02  0.1312668E+00
        -11   -1    0    0    0    0  0.00000000000E+00  0.00000000000E+00  0.45593999997E+02  0.45594000000E+02  0.51100000000E-03 0.  1.
         11   -1    0    0    0    0 -0.00000000000E+00 -0.00000000000E+00 -0.45593999997E+02  0.45594000000E+02  0.51100000000E-03 0. -1.
    9900012    2    1    2    0    0  0.34356635449E+02 -0.30891557728E+01  0.26338208702E+02  0.47787279725E+02  0.20000039577E+02 0.  0.
         12    1    1    2    0    0 -0.34356635449E+02  0.30891557728E+01 -0.26338208702E+02  0.43400720275E+02  0.00000000000E+00 0. -1.
         11    1    3    3    0    0  0.12930987118E+02  0.70710648726E+01  0.11849684012E+02  0.18910986165E+02  0.51100000000E-03 0. -1.
        -11    1    3    3    0    0  0.18682463085E+02 -0.54604637180E+01  0.10388945999E+02  0.22063120590E+02  0.51100000000E-03 0.  1.
         12    1    3    3    0    0  0.27431852458E+01 -0.46997569274E+01  0.40995786919E+01  0.68131729701E+01  0.00000000000E+00 0. -1.
</event>
<event>
 7    1  0.4723144E-009  0.4778727E+02  0.7816164E-02  0.1312668E+00
        -11   -1    0    0    0    0  0.00000000000E+00  0.00000000000E+00  0.45593999997E+02  0.45594000000E+02  0.51100000000E-03 0. -1.
         11   -1    0    0    0    0 -0.00000000000E+00 -0.00000000000E+00 -0.45593999997E+02  0.45594000000E+02  0.51100000000E-03 0.  1.
    9900012    2    1    2    0    0  0.69055263728E+01 -0.41474464703E+02  0.10761313898E+02  0.47787269664E+02  0.19999993706E+02 0.  0.
         12    1    1    2    0    0 -0.69055263728E+01  0.41474464703E+02 -0.10761313898E+02  0.43400730336E+02  0.00000000000E+00 0. -1.
         11    1    3    3    0    0 -0.19803260862E+01 -0.11519488716E+02 -0.42474715651E+01  0.12436290711E+02  0.51100000000E-03 0.  1.
        -11    1    3    3    0    0  0.13440746752E+01 -0.16474903008E+02  0.85312294616E+01  0.18601366677E+02  0.51100000000E-03 0. -1.
         12    1    3    3    0    0  0.75417777838E+01 -0.13480072979E+02  0.64775560011E+01  0.16749612277E+02  0.00000000000E+00 0. -1.
</event>
<event>
 7    1  0.4723144E-009  0.4778726E+02  0.7816164E-02  0.1312668E+00
        -11   -1    0    0    0    0  0.00000000000E+00  0.00000000000E+00  0.45593999997E+02  0.45594000000E+02  0.51100000000E-03 0.  1.
         11   -1    0    0    0    0 -0.00000000000E+00 -0.00000000000E+00 -0.45593999997E+02  0.45594000000E+02  0.51100000000E-03 0. -1.
    9900012    2    1    2    0    0  0.10541949196E+02 -0.41389124081E+02  0.77091994932E+01  0.47787262197E+02  0.19999959659E+02 0.  0.
         12    1    1    2    0    0 -0.10541949196E+02  0.41389124081E+02 -0.77091994932E+01  0.43400737803E+02  0.00000000000E+00 0. -1.
         11    1    3    3    0    0  0.63230456937E+01 -0.92769973824E+01 -0.40751186791E+01  0.11943625069E+02  0.51100000000E-03 0. -1.
        -11    1    3    3    0    0  0.23994848195E+01 -0.15399148880E+02  0.10881198943E+02  0.19007677510E+02  0.51100000000E-03 0.  1.
        -12    1    3    3    0    0  0.18194186830E+01 -0.16712977818E+02  0.90311922956E+00  0.16835959617E+02  0.00000000000E+00 0.  1.
</event>
<event>
 7    1  0.4723144E-009  0.4778727E+02  0.7816164E-02  0.1312668E+00
        -11   -1    0    0    0    0  0.00000000000E+00  0.00000000000E+00  0.45593999997E+02  0.45594000000E+02  0.51100000000E-03 0.  1.
         11   -1    0    0    0    0 -0.00000000000E+00 -0.00000000000E+00 -0.45593999997E+02  0.45594000000E+02  0.51100000000E-03 0. -1.
    9900012    2    1    2    0    0  0.17014977003E+02 -0.28385071857E+02  0.28078486408E+02  0.47787272521E+02  0.20000006734E+02 0.  0.
         12    1    1    2    0    0 -0.17014977003E+02  0.28385071857E+02 -0.28078486408E+02  0.43400727479E+02  0.00000000000E+00 0. -1.
         11    1    3    3    0    0  0.38402485433E+01 -0.23298572408E+02  0.15743790564E+02  0.28380238313E+02  0.51100000000E-03 0. -1.
        -11    1    3    3    0    0  0.64582214168E+01 -0.42849755099E+01  0.89625056424E+01  0.11848887992E+02  0.51100000000E-03 0.  1.
         12    1    3    3    0    0  0.67165070425E+01 -0.80152393891E+00  0.33721902016E+01  0.75581462167E+01  0.00000000000E+00 0. -1.
</event>
<event>
 7    1  0.4723144E-009  0.4778727E+02  0.7816164E-02  0.1312668E+00
        -11   -1    0    0    0    0  0.00000000000E+00  0.00000000000E+00  0.45593999997E+02  0.45594000000E+02  0.51100000000E-03 0.  1.
         11   -1    0    0    0    0 -0.00000000000E+00 -0.00000000000E+00 -0.45593999997E+02  0.45594000000E+02  0.51100000000E-03 0. -1.
    9900012    2    1    2    0    0  0.20844306279E+02  0.17689279167E+02  0.33707975985E+02  0.47787270205E+02  0.19999996174E+02 0.  0.
         12    1    1    2    0    0 -0.20844306279E+02 -0.17689279167E+02 -0.33707975985E+02  0.43400729795E+02  0.00000000000E+00 0. -1.
         11    1    3    3    0    0  0.73914365158E+01 -0.70905269367E-01  0.15006230975E+02  0.16727980442E+02  0.51100000000E-03 0. -1.
        -11    1    3    3    0    0  0.13458350992E+02  0.10170275906E+02  0.15174525290E+02  0.22689820217E+02  0.51100000000E-03 0.  1.
         12    1    3    3    0    0 -0.54812290377E-02  0.75899085297E+01  0.35272197205E+01  0.83694695465E+01  0.00000000000E+00 0. -1.
</event>
<event>
 7    1  0.4723144E-009  0.4778727E+02  0.7816164E-02  0.1312668E+00
        -11   -1    0    0    0    0  0.00000000000E+00  0.00000000000E+00  0.45593999997E+02  0.45594000000E+02  0.51100000000E-03 0. -1.
         11   -1    0    0    0    0 -0.00000000000E+00 -0.00000000000E+00 -0.45593999997E+02  0.45594000000E+02  0.51100000000E-03 0.  1.
    9900012    2    1    2    0    0 -0.41437347079E+02  0.66813628076E+01 -0.11042156675E+02  0.47787267679E+02  0.19999984656E+02 0.  0.
         12    1    1    2    0    0  0.41437347079E+02 -0.66813628076E+01  0.11042156675E+02  0.43400732321E+02  0.00000000000E+00 0. -1.
         11    1    3    3    0    0  0.39588451292E+00 -0.86826492061E+00  0.32898233295E+00  0.10093751317E+01  0.51100000000E-03 0. -1.
        -11    1    3    3    0    0 -0.41887327764E+02  0.61645126870E+01 -0.13321770141E+02  0.44384896123E+02  0.51100000000E-03 0.  1.
        -12    1    3    3    0    0  0.54096171788E-01  0.13851150412E+01  0.19506311325E+01  0.23929964246E+01  0.00000000000E+00 0.  1.
</event>
<event>
 7    1  0.4723144E-009  0.4778727E+02  0.7816164E-02  0.1312668E+00
        -11   -1    0    0    0    0  0.00000000000E+00  0.00000000000E+00  0.45593999997E+02  0.45594000000E+02  0.51100000000E-03 0. -1.
         11   -1    0    0    0    0 -0.00000000000E+00 -0.00000000000E+00 -0.45593999997E+02  0.45594000000E+02  0.51100000000E-03 0.  1.
    9900012    2    1    2    0    0  0.24937080126E+02 -0.27652249680E+02 -0.22296153618E+02  0.47787270240E+02  0.19999996331E+02 0.  0.
         12    1    1    2    0    0 -0.24937080126E+02  0.27652249680E+02  0.22296153618E+02  0.43400729760E+02  0.00000000000E+00 0. -1.
         11    1    3    3    0    0  0.13058182162E+02 -0.70144598145E+01 -0.59171534112E+00  0.14834719248E+02  0.51100000000E-03 0. -1.
        -11    1    3    3    0    0  0.43744771215E+01 -0.12880896216E+02 -0.14986148307E+02  0.20239520221E+02  0.51100000000E-03 0.  1.
         12    1    3    3    0    0  0.75044208422E+01 -0.77568936497E+01 -0.67182899692E+01  0.12713030771E+02  0.00000000000E+00 0. -1.
</event>
<event>
 7    1  0.4723144E-009  0.4778727E+02  0.7816164E-02  0.1312668E+00
        -11   -1    0    0    0    0  0.00000000000E+00  0.00000000000E+00  0.45593999997E+02  0.45594000000E+02  0.51100000000E-03 0. -1.
         11   -1    0    0    0    0 -0.00000000000E+00 -0.00000000000E+00 -0.45593999997E+02  0.45594000000E+02  0.51100000000E-03 0.  1.
    9900012    2    1    2    0    0  0.23023929862E+02 -0.33271098920E+02 -0.15702096494E+02  0.47787271850E+02  0.20000003673E+02 0.  0.
         12    1    1    2    0    0 -0.23023929862E+02  0.33271098920E+02  0.15702096494E+02  0.43400728150E+02  0.00000000000E+00 0. -1.
         11    1    3    3    0    0  0.14929668303E+02 -0.29514541268E+02 -0.11565036331E+02  0.35039309461E+02  0.51100000000E-03 0.  1.
        -11    1    3    3    0    0  0.33694802320E+01  0.21359917441E+01 -0.32450942948E+01  0.51426155805E+01  0.51100000000E-03 0. -1.
        -12    1    3    3    0    0  0.47247813266E+01 -0.58925493965E+01 -0.89196586848E+00  0.76053468089E+01  0.00000000000E+00 0.  1.
</event>
<event>
 7    1  0.4723144E-009  0.4778729E+02  0.7816164E-02  0.1312668E+00
        -11   -1    0    0    0    0  0.00000000000E+00  0.00000000000E+00  0.45593999997E+02  0.45594000000E+02  0.51100000000E-03 0. -1.
         11   -1    0    0    0    0 -0.00000000000E+00 -0.00000000000E+00 -0.45593999997E+02  0.45594000000E+02  0.51100000000E-03 0.  1.
    9900012    2    1    2    0    0 -0.39930318278E+00  0.42613885914E+02 -0.82169792380E+01  0.47787291900E+02  0.20000095091E+02 0.  0.
         12    1    1    2    0    0  0.39930318278E+00 -0.42613885914E+02  0.82169792380E+01  0.43400708100E+02  0.00000000000E+00 0. -1.
         11    1    3    3    0    0 -0.77650606913E+01  0.26483440699E+02 -0.57380441378E+01  0.28188542878E+02  0.51100000000E-03 0. -1.
        -11    1    3    3    0    0  0.55665585610E+01  0.15883250532E+02 -0.39579137718E+00  0.16835108338E+02  0.51100000000E-03 0.  1.
         12    1    3    3    0    0  0.17991989476E+01  0.24719468375E+00 -0.20831437230E+01  0.27636406849E+01  0.00000000000E+00 0. -1.
</event>
<event>
 7    1  0.4723144E-009  0.4778727E+02  0.7816164E-02  0.1312668E+00
        -11   -1    0    0    0    0  0.00000000000E+00  0.00000000000E+00  0.45593999997E+02  0.45594000000E+02  0.51100000000E-03 0.  1.
         11   -1    0    0    0    0 -0.00000000000E+00 -0.00000000000E+00 -0.45593999997E+02  0.45594000000E+02  0.51100000000E-03 0. -1.
    9900012    2    1    2    0    0 -0.38896445199E+02 -0.60095783432E+01  0.18291393106E+02  0.47787267947E+02  0.19999985876E+02 0.  0.
         12    1    1    2    0    0  0.38896445199E+02  0.60095783432E+01 -0.18291393106E+02  0.43400732053E+02  0.00000000000E+00 0. -1.
         11    1    3    3    0    0 -0.24063871362E+02  0.56483318574E+01  0.13915586829E+02  0.28365773650E+02  0.51100000000E-03 0. -1.
        -11    1    3    3    0    0 -0.72172203034E+01 -0.47658225913E+01  0.18496179776E+01  0.88443440007E+01  0.51100000000E-03 0.  1.
         12    1    3    3    0    0 -0.76153535341E+01 -0.68920876093E+01  0.25261882999E+01  0.10577150296E+02  0.00000000000E+00 0. -1.
</event>
<event>
 7    1  0.4723144E-009  0.4778727E+02  0.7816164E-02  0.1312668E+00
        -11   -1    0    0    0    0  0.00000000000E+00  0.00000000000E+00  0.45593999997E+02  0.45594000000E+02  0.51100000000E-03 0. -1.
         11   -1    0    0    0    0 -0.00000000000E+00 -0.00000000000E+00 -0.45593999997E+02  0.45594000000E+02  0.51100000000E-03 0.  1.
    9900012    2    1    2    0    0 -0.37376354455E+02 -0.21702125795E+02 -0.39558740326E+01  0.47787273327E+02  0.20000010407E+02 0.  0.
         12    1    1    2    0    0  0.37376354455E+02  0.21702125795E+02  0.39558740326E+01  0.43400726673E+02  0.00000000000E+00 0. -1.
         11    1    3    3    0    0 -0.85474693549E+01 -0.44121102582E+01 -0.70374000730E+01  0.11918512883E+02  0.51100000000E-03 0. -1.
        -11    1    3    3    0    0 -0.14687472627E+02 -0.83498862830E+01  0.76196943730E+01  0.18533812228E+02  0.51100000000E-03 0.  1.
        -12    1    3    3    0    0 -0.14141412473E+02 -0.89401292543E+01 -0.45381683326E+01  0.17334948215E+02  0.00000000000E+00 0.  1.
</event>
<event>
 7    1  0.4723144E-009  0.4778726E+02  0.7816164E-02  0.1312668E+00
        -11   -1    0    0    0    0  0.00000000000E+00  0.00000000000E+00  0.45593999997E+02  0.45594000000E+02  0.51100000000E-03 0. -1.
         11   -1    0    0    0    0 -0.00000000000E+00 -0.00000000000E+00 -0.45593999997E+02  0.45594000000E+02  0.51100000000E-03 0.  1.
    9900012    2    1    2    0    0  0.43221615444E+02  0.34843104219E+01 -0.18372263808E+01  0.47787264274E+02  0.19999969133E+02 0.  0.
         12    1    1    2    0    0 -0.43221615444E+02 -0.34843104219E+01  0.18372263808E+01  0.43400735726E+02  0.00000000000E+00 0. -1.
         11    1    3    3    0    0  0.12085793843E+01 -0.19318203745E+01 -0.37989198599E+01  0.44299420369E+01  0.51100000000E-03 0. -1.
        -11    1    3    3    0    0  0.37982653911E+02  0.40604268193E+01 -0.93779421099E+00  0.38210581288E+02  0.51100000000E-03 0.  1.
         12    1    3    3    0    0  0.40303821488E+01  0.13557039771E+01  0.28994876900E+01  0.51467409498E+01  0.00000000000E+00 0. -1.
</event>
<event>
 7    1  0.4723144E-009  0.4778728E+02  0.7816164E-02  0.1312668E+00
        -11   -1    0    0    0    0  0.00000000000E+00  0.00000000000E+00  0.45593999997E+02  0.45594000000E+02  0.51100000000E-03 0. -1.
         11   -1    0    0    0    0 -0.00000000000E+00 -0.00000000000E+00 -0.45593999997E+02  0.45594000000E+02  0.51100000000E-03 0.  1.
    9900012    2    1    2    0    0  0.26377961755E+02 -0.25235076529E+02 -0.23473746508E+02  0.47787277323E+02  0.20000028628E+02 0.  0.
         12    1    1    2    0    0 -0.26377961755E+02  0.25235076529E+02  0.23473746508E+02  0.43400722677E+02  0.00000000000E+00 0. -1.
         11    1    3    3    0    0  0.17357797858E+02 -0.21193422049E+02 -0.13072677414E+02  0.30353734196E+02  0.51100000000E-03 0. -1.
        -11    1    3    3    0    0  0.90984802567E+01 -0.62867970013E+01 -0.10408625692E+02  0.15187022373E+02  0.51100000000E-03 0.  1.
         12    1    3    3    0    0 -0.78316359750E-01  0.22451425217E+01  0.75565978288E-02  0.22465207538E+01  0.00000000000E+00 0. -1.
</event>
<event>
 7    1  0.4723144E-009  0.4778727E+02  0.7816164E-02  0.1312668E+00
        -11   -1    0    0    0    0  0.00000000000E+00  0.00000000000E+00  0.45593999997E+02  0.45594000000E+02  0.51100000000E-03 0.  1.
         11   -1    0    0    0    0 -0.00000000000E+00 -0.00000000000E+00 -0.45593999997E+02  0.45594000000E+02  0.51100000000E-03 0. -1.
    9900012    2    1    2    0    0  0.30483420138E+02  0.21121014535E+02  0.22545222771E+02  0.47787271572E+02  0.20000002404E+02 0.  0.
         12    1    1    2    0    0 -0.30483420138E+02 -0.21121014535E+02 -0.22545222771E+02  0.43400728428E+02  0.00000000000E+00 0. -1.
         11    1    3    3    0    0  0.86752269027E+01  0.14330249309E+02  0.11325121619E+02  0.20220632705E+02  0.51100000000E-03 0. -1.
        -11    1    3    3    0    0  0.12825544189E+02  0.92968968905E+01  0.74976653573E+01  0.17525463235E+02  0.51100000000E-03 0.  1.
         12    1    3    3    0    0  0.89826490470E+01 -0.25061316639E+01  0.37224357944E+01  0.10041175632E+02  0.00000000000E+00 0. -1.
</event>
<event>
 7    1  0.4723144E-009  0.4778727E+02  0.7816164E-02  0.1312668E+00
        -11   -1    0    0    0    0  0.00000000000E+00  0.00000000000E+00  0.45593999997E+02  0.45594000000E+02  0.51100000000E-03 0.  1.
         11   -1    0    0    0    0 -0.00000000000E+00 -0.00000000000E+00 -0.45593999997E+02  0.45594000000E+02  0.51100000000E-03 0. -1.
    9900012    2    1    2    0    0 -0.15411191380E+02  0.25472160013E+02  0.31579859348E+02  0.47787271067E+02  0.20000000103E+02 0.  0.
         12    1    1    2    0    0  0.15411191380E+02 -0.25472160013E+02 -0.31579859348E+02  0.43400728933E+02  0.00000000000E+00 0. -1.
         11    1    3    3    0    0 -0.84297373886E+01  0.15396652820E+01  0.72329144828E+01  0.11213656576E+02  0.51100000000E-03 0. -1.
        -11    1    3    3    0    0 -0.19776352568E+01  0.21600956687E+02  0.20495050891E+02  0.29842243251E+02  0.51100000000E-03 0.  1.
        -12    1    3    3    0    0 -0.50038187347E+01  0.23315380434E+01  0.38518939748E+01  0.67313712400E+01  0.00000000000E+00 0.  1.
</event>
<event>
 7    1  0.4723144E-009  0.4778727E+02  0.7816164E-02  0.1312668E+00
        -11   -1    0    0    0    0  0.00000000000E+00  0.00000000000E+00  0.45593999997E+02  0.45594000000E+02  0.51100000000E-03 0.  1.
         11   -1    0    0    0    0 -0.00000000000E+00 -0.00000000000E+00 -0.45593999997E+02  0.45594000000E+02  0.51100000000E-03 0. -1.
    9900012    2    1    2    0    0 -0.18787529994E+02  0.30393226947E+02 -0.24635416358E+02  0.47787271128E+02  0.20000000380E+02 0.  0.
         12    1    1    2    0    0  0.18787529994E+02 -0.30393226947E+02  0.24635416358E+02  0.43400728872E+02  0.00000000000E+00 0. -1.
         11    1    3    3    0    0 -0.13367382675E+02  0.13989154553E+02 -0.17821756239E+02  0.26305861711E+02  0.51100000000E-03 0. -1.
        -11    1    3    3    0    0 -0.35022381555E-01  0.13013011685E+02 -0.75989039399E+01  0.15069274734E+02  0.51100000000E-03 0.  1.
        -12    1    3    3    0    0 -0.53851249371E+01  0.33910607092E+01  0.78524382046E+00  0.64121346819E+01  0.00000000000E+00 0.  1.
</event>
<event>
 7    1  0.4723144E-009  0.4778727E+02  0.7816164E-02  0.1312668E+00
        -11   -1    0    0    0    0  0.00000000000E+00  0.00000000000E+00  0.45593999997E+02  0.45594000000E+02  0.51100000000E-03 0.  1.
         11   -1    0    0    0    0 -0.00000000000E+00 -0.00000000000E+00 -0.45593999997E+02  0.45594000000E+02  0.51100000000E-03 0. -1.
    9900012    2    1    2    0    0  0.40575818335E+02 -0.32832972197E+01  0.15048133711E+02  0.47787269564E+02  0.19999993250E+02 0.  0.
         12    1    1    2    0    0 -0.40575818335E+02  0.32832972197E+01 -0.15048133711E+02  0.43400730436E+02  0.00000000000E+00 0. -1.
         11    1    3    3    0    0  0.15188058472E+02 -0.90558414289E+01  0.11596488426E+02  0.21146250926E+02  0.51100000000E-03 0. -1.
        -11    1    3    3    0    0  0.15569364853E+02  0.15808825855E+01  0.31365898261E+01  0.15960654989E+02  0.51100000000E-03 0.  1.
         12    1    3    3    0    0  0.98183950097E+01  0.41916616237E+01  0.31505545818E+00  0.10680363649E+02  0.00000000000E+00 0. -1.
</event>
<event>
 7    1  0.4723144E-009  0.4778728E+02  0.7816164E-02  0.1312668E+00
        -11   -1    0    0    0    0  0.00000000000E+00  0.00000000000E+00  0.45593999997E+02  0.45594000000E+02  0.51100000000E-03 0. -1.
         11   -1    0    0    0    0 -0.00000000000E+00 -0.00000000000E+00 -0.45593999997E+02  0.45594000000E+02  0.51100000000E-03 0.  1.
    9900012    2    1    2    0    0  0.13138656272E+02  0.22828233102E+02 -0.34494491888E+02  0.47787280123E+02  0.20000041393E+02 0.  0.
         12    1    1    2    0    0 -0.13138656272E+02 -0.22828233102E+02  0.34494491888E+02  0.43400719877E+02  0.00000000000E+00 0. -1.
         11    1    3    3    0    0  0.77922532234E+01  0.81794459203E+01 -0.22146734087E+01  0.11512051269E+02  0.51100000000E-03 0. -1.
        -11    1    3    3    0    0  0.18040526327E+01  0.11902233173E+02 -0.22531823430E+02  0.25546053075E+02  0.51100000000E-03 0.  1.
         12    1    3    3    0    0  0.35423504160E+01  0.27465540091E+01 -0.97479950497E+01  0.10729175778E+02  0.00000000000E+00 0. -1.
</event>
<event>
 7    1  0.4723144E-009  0.4778725E+02  0.7816164E-02  0.1312668E+00
        -11   -1    0    0    0    0  0.00000000000E+00  0.00000000000E+00  0.45593999997E+02  0.45594000000E+02  0.51100000000E-03 0. -1.
         11   -1    0    0    0    0 -0.00000000000E+00 -0.00000000000E+00 -0.45593999997E+02  0.45594000000E+02  0.51100000000E-03 0.  1.
    9900012    2    1    2    0    0 -0.25758487819E+02 -0.24458991085E+02 -0.24937576751E+02  0.47787254916E+02  0.19999926463E+02 0.  0.
         12    1    1    2    0    0  0.25758487819E+02  0.24458991085E+02  0.24937576751E+02  0.43400745084E+02  0.00000000000E+00 0. -1.
         11    1    3    3    0    0 -0.30608318997E+01 -0.11327654192E+02 -0.21448992508E+01  0.11928329073E+02  0.51100000000E-03 0. -1.
        -11    1    3    3    0    0 -0.10500443175E+02 -0.85974530496E+01 -0.66155283337E+01  0.15097705826E+02  0.51100000000E-03 0.  1.
         12    1    3    3    0    0 -0.12197212744E+02 -0.45338838439E+01 -0.16177149167E+02  0.20761220017E+02  0.00000000000E+00 0. -1.
</event>
<event>
 7    1  0.4723144E-009  0.4778727E+02  0.7816164E-02  0.1312668E+00
        -11   -1    0    0    0    0  0.00000000000E+00  0.00000000000E+00  0.45593999997E+02  0.45594000000E+02  0.51100000000E-03 0.  1.
         11   -1    0    0    0    0 -0.00000000000E+00 -0.00000000000E+00 -0.45593999997E+02  0.45594000000E+02  0.51100000000E-03 0. -1.
    9900012    2    1    2    0    0  0.50015797028E+01  0.34590951664E+02  0.25730788451E+02  0.47787271770E+02  0.20000003310E+02 0.  0.
         12    1    1    2    0    0 -0.50015797028E+01 -0.34590951664E+02 -0.25730788451E+02  0.43400728230E+02  0.00000000000E+00 0. -1.
         11    1    3    3    0    0  0.25161828301E+01  0.21149478153E+00  0.66430587559E+01  0.71067669142E+01  0.51100000000E-03 0. -1.
        -11    1    3    3    0    0 -0.21000479948E+01  0.27917661929E+02  0.15140081857E+02  0.31828102803E+02  0.51100000000E-03 0.  1.
        -12    1    3    3    0    0  0.45854448674E+01  0.64617949530E+01  0.39476478389E+01  0.88524020529E+01  0.00000000000E+00 0.  1.
</event>
<event>
 7    1  0.4723144E-009  0.4778727E+02  0.7816164E-02  0.1312668E+00
        -11   -1    0    0    0    0  0.00000000000E+00  0.00000000000E+00  0.45593999997E+02  0.45594000000E+02  0.51100000000E-03 0.  1.
         11   -1    0    0    0    0 -0.00000000000E+00 -0.00000000000E+00 -0.45593999997E+02  0.45594000000E+02  0.51100000000E-03 0. -1.
    9900012    2    1    2    0    0 -0.10044297783E+02 -0.32146310286E+02  0.27374258229E+02  0.47787271935E+02  0.20000004060E+02 0.  0.
         12    1    1    2    0    0  0.10044297783E+02  0.32146310286E+02 -0.27374258229E+02  0.43400728065E+02  0.00000000000E+00 0. -1.
         11    1    3    3    0    0  0.33566071045E+00 -0.47205728506E+01  0.11334464027E+02  0.12282774572E+02  0.51100000000E-03 0.  1.
        -11    1    3    3    0    0 -0.64061067695E+01 -0.14758620679E+02  0.20514377095E+01  0.16219231956E+02  0.51100000000E-03 0. -1.
        -12    1    3    3    0    0 -0.39738517237E+01 -0.12667116757E+02  0.13988356493E+02  0.19285265407E+02  0.00000000000E+00 0.  1.
</event>
<event>
 7    1  0.4723144E-009  0.4778727E+02  0.7816164E-02  0.1312668E+00
        -11   -1    0    0    0    0  0.00000000000E+00  0.00000000000E+00  0.45593999997E+02  0.45594000000E+02  0.51100000000E-03 0.  1.
         11   -1    0    0    0    0 -0.00000000000E+00 -0.00000000000E+00 -0.45593999997E+02  0.45594000000E+02  0.51100000000E-03 0. -1.
    9900012    2    1    2    0    0  0.39384917015E+02 -0.12187509536E+02 -0.13561577462E+02  0.47787268897E+02  0.19999990210E+02 0.  0.
         12    1    1    2    0    0 -0.39384917015E+02  0.12187509536E+02  0.13561577462E+02  0.43400731103E+02  0.00000000000E+00 0. -1.
         11    1    3    3    0    0  0.23972696275E+02 -0.90427834257E+01 -0.12022503144E+02  0.28301990758E+02  0.51100000000E-03 0. -1.
        -11    1    3    3    0    0  0.91500494862E+01  0.39137371418E+01 -0.19274072175E+00  0.99537878852E+01  0.51100000000E-03 0.  1.
         12    1    3    3    0    0  0.62621712547E+01 -0.70584632525E+01 -0.13463335959E+01  0.95314902540E+01  0.00000000000E+00 0. -1.
</event>
<event>
 7    1  0.4723144E-009  0.4778728E+02  0.7816164E-02  0.1312668E+00
        -11   -1    0    0    0    0  0.00000000000E+00  0.00000000000E+00  0.45593999997E+02  0.45594000000E+02  0.51100000000E-03 0.  1.
         11   -1    0    0    0    0 -0.00000000000E+00 -0.00000000000E+00 -0.45593999997E+02  0.45594000000E+02  0.51100000000E-03 0. -1.
    9900012    2    1    2    0    0 -0.30272046399E+01  0.41198288073E+02  0.13310119503E+02  0.47787283539E+02  0.20000056970E+02 0.  0.
         12    1    1    2    0    0  0.30272046399E+01 -0.41198288073E+02 -0.13310119503E+02  0.43400716461E+02  0.00000000000E+00 0. -1.
         11    1    3    3    0    0 -0.10204412618E+02  0.28927463679E+02  0.67828848966E+01  0.31415533094E+02  0.51100000000E-03 0. -1.
        -11    1    3    3    0    0  0.55644215307E+01  0.12008274079E+02  0.50392910233E+01  0.14161775581E+02  0.51100000000E-03 0.  1.
         12    1    3    3    0    0  0.16127864477E+01  0.26255031491E+00  0.14879435836E+01  0.22099748645E+01  0.00000000000E+00 0. -1.
</event>
<event>
 7    1  0.4723144E-009  0.4778727E+02  0.7816164E-02  0.1312668E+00
        -11   -1    0    0    0    0  0.00000000000E+00  0.00000000000E+00  0.45593999997E+02  0.45594000000E+02  0.51100000000E-03 0.  1.
         11   -1    0    0    0    0 -0.00000000000E+00 -0.00000000000E+00 -0.45593999997E+02  0.45594000000E+02  0.51100000000E-03 0. -1.
    9900012    2    1    2    0    0 -0.93774992783E+01 -0.82348196834E+01  0.41567694185E+02  0.47787274801E+02  0.20000017128E+02 0.  0.
         12    1    1    2    0    0  0.93774992783E+01  0.82348196834E+01 -0.41567694185E+02  0.43400725199E+02  0.00000000000E+00 0. -1.
         11    1    3    3    0    0 -0.17356717443E+01  0.65785187666E+01  0.12056457348E+02  0.13843685550E+02  0.51100000000E-03 0. -1.
        -11    1    3    3    0    0 -0.54144963284E+01 -0.98603629211E+01  0.21500784753E+02  0.24265763385E+02  0.51100000000E-03 0.  1.
         12    1    3    3    0    0 -0.22273312056E+01 -0.49529755288E+01  0.80104520847E+01  0.96778258659E+01  0.00000000000E+00 0. -1.
</event>
<event>
 7    1  0.4723144E-009  0.4778727E+02  0.7816164E-02  0.1312668E+00
        -11   -1    0    0    0    0  0.00000000000E+00  0.00000000000E+00  0.45593999997E+02  0.45594000000E+02  0.51100000000E-03 0.  1.
         11   -1    0    0    0    0 -0.00000000000E+00 -0.00000000000E+00 -0.45593999997E+02  0.45594000000E+02  0.51100000000E-03 0. -1.
    9900012    2    1    2    0    0  0.17646002935E+02  0.62320743975E+01  0.39158692167E+02  0.47787270247E+02  0.19999996362E+02 0.  0.
         12    1    1    2    0    0 -0.17646002935E+02 -0.62320743975E+01 -0.39158692167E+02  0.43400729753E+02  0.00000000000E+00 0. -1.
         11    1    3    3    0    0  0.10746585672E+02  0.85098706691E+01  0.31550265917E+02  0.34399509911E+02  0.51100000000E-03 0. -1.
        -11    1    3    3    0    0  0.46769037321E+00 -0.34393804080E+01  0.55306916411E+01  0.65296724395E+01  0.51100000000E-03 0.  1.
         12    1    3    3    0    0  0.64317268893E+01  0.11615841364E+01  0.20777346093E+01  0.68580878961E+01  0.00000000000E+00 0. -1.
</event>
<event>
 7    1  0.4723144E-009  0.4778727E+02  0.7816164E-02  0.1312668E+00
        -11   -1    0    0    0    0  0.00000000000E+00  0.00000000000E+00  0.45593999997E+02  0.45594000000E+02  0.51100000000E-03 0.  1.
         11   -1    0    0    0    0 -0.00000000000E+00 -0.00000000000E+00 -0.45593999997E+02  0.45594000000E+02  0.51100000000E-03 0. -1.
    9900012    2    1    2    0    0 -0.33903856688E+01 -0.24550668497E+01  0.43198391401E+02  0.47787273187E+02  0.20000009770E+02 0.  0.
         12    1    1    2    0    0  0.33903856688E+01  0.24550668497E+01 -0.43198391401E+02  0.43400726813E+02  0.00000000000E+00 0. -1.
         11    1    3    3    0    0 -0.48340978376E-01  0.61106085028E+01  0.50989080041E+01  0.79586893532E+01  0.51100000000E-03 0. -1.
        -11    1    3    3    0    0 -0.32248253862E+01 -0.92216549624E+01  0.27067926883E+02  0.28776919311E+02  0.51100000000E-03 0.  1.
         12    1    3    3    0    0 -0.11721930418E+00  0.65597960987E+00  0.11031556514E+02  0.11051664523E+02  0.00000000000E+00 0. -1.
</event>
<event>
 7    1  0.4723144E-009  0.4778728E+02  0.7816164E-02  0.1312668E+00
        -11   -1    0    0    0    0  0.00000000000E+00  0.00000000000E+00  0.45593999997E+02  0.45594000000E+02  0.51100000000E-03 0. -1.
         11   -1    0    0    0    0 -0.00000000000E+00 -0.00000000000E+00 -0.45593999997E+02  0.45594000000E+02  0.51100000000E-03 0.  1.
    9900012    2    1    2    0    0  0.27511433491E+02  0.32179809607E+02  0.95500657044E+01  0.47787275651E+02  0.20000021005E+02 0.  0.
         12    1    1    2    0    0 -0.27511433491E+02 -0.32179809607E+02 -0.95500657044E+01  0.43400724349E+02  0.00000000000E+00 0. -1.
         11    1    3    3    0    0  0.90474979330E+01  0.10759908877E+02 -0.23495716783E+01  0.14253187195E+02  0.51100000000E-03 0. -1.
        -11    1    3    3    0    0  0.17005888866E+02  0.22389278777E+02  0.13475905548E+02  0.31178198967E+02  0.51100000000E-03 0.  1.
        -12    1    3    3    0    0  0.14580466920E+01 -0.96937804735E+00 -0.15762681650E+01  0.23558894886E+01  0.00000000000E+00 0.  1.
</event>
<event>
 7    1  0.4723144E-009  0.4778727E+02  0.7816164E-02  0.1312668E+00
        -11   -1    0    0    0    0  0.00000000000E+00  0.00000000000E+00  0.45593999997E+02  0.45594000000E+02  0.51100000000E-03 0.  1.
         11   -1    0    0    0    0 -0.00000000000E+00 -0.00000000000E+00 -0.45593999997E+02  0.45594000000E+02  0.51100000000E-03 0. -1.
    9900012    2    1    2    0    0 -0.42967887540E+02  0.42207563577E+01 -0.44237009449E+01  0.47787271044E+02  0.19999999998E+02 0.  0.
         12    1    1    2    0    0  0.42967887540E+02 -0.42207563577E+01  0.44237009449E+01  0.43400728956E+02  0.00000000000E+00 0. -1.
         11    1    3    3    0    0 -0.23620042969E+01 -0.44446374648E+01 -0.14660243758E+01  0.52424320906E+01  0.51100000000E-03 0. -1.
        -11    1    3    3    0    0 -0.37119968378E+02  0.77521981466E+01 -0.52373011775E+01  0.38280777845E+02  0.51100000000E-03 0.  1.
         12    1    3    3    0    0 -0.34859148643E+01  0.91319567596E+00  0.22796246083E+01  0.42640611087E+01  0.00000000000E+00 0. -1.
</event>
<event>
 7    1  0.4723144E-009  0.4778727E+02  0.7816164E-02  0.1312668E+00
        -11   -1    0    0    0    0  0.00000000000E+00  0.00000000000E+00  0.45593999997E+02  0.45594000000E+02  0.51100000000E-03 0. -1.
         11   -1    0    0    0    0 -0.00000000000E+00 -0.00000000000E+00 -0.45593999997E+02  0.45594000000E+02  0.51100000000E-03 0.  1.
    9900012    2    1    2    0    0  0.66482859431E+01  0.42812263198E+02 -0.25561198484E+01  0.47787270343E+02  0.19999996800E+02 0.  0.
         12    1    1    2    0    0 -0.66482859431E+01 -0.42812263198E+02  0.25561198484E+01  0.43400729657E+02  0.00000000000E+00 0. -1.
         11    1    3    3    0    0 -0.20583633619E+01  0.59236560067E+01 -0.47214083124E+01  0.78497297361E+01  0.51100000000E-03 0.  1.
        -11    1    3    3    0    0  0.82157018891E+01  0.23865880162E+02  0.67419133137E+01  0.26125301698E+02  0.51100000000E-03 0. -1.
         12    1    3    3    0    0  0.49094741598E+00  0.13022727029E+02 -0.45766248497E+01  0.13812238908E+02  0.00000000000E+00 0. -1.
</event>
<event>
 7    1  0.4723144E-009  0.4778727E+02  0.7816164E-02  0.1312668E+00
        -11   -1    0    0    0    0  0.00000000000E+00  0.00000000000E+00  0.45593999997E+02  0.45594000000E+02  0.51100000000E-03 0.  1.
         11   -1    0    0    0    0 -0.00000000000E+00 -0.00000000000E+00 -0.45593999997E+02  0.45594000000E+02  0.51100000000E-03 0. -1.
    9900012    2    1    2    0    0 -0.17407099552E+02  0.23690059083E+02  0.31928003371E+02  0.47787269437E+02  0.19999992672E+02 0.  0.
         12    1    1    2    0    0  0.17407099552E+02 -0.23690059083E+02 -0.31928003371E+02  0.43400730563E+02  0.00000000000E+00 0. -1.
         11    1    3    3    0    0 -0.27421435830E+01  0.61018932010E+00  0.13078500709E+01  0.30987343392E+01  0.51100000000E-03 0. -1.
        -11    1    3    3    0    0 -0.54162275037E+01  0.52876803916E+01  0.21244140328E+02  0.22552352047E+02  0.51100000000E-03 0.  1.
        -12    1    3    3    0    0 -0.92487284650E+01  0.17792189371E+02  0.93760129713E+01  0.22136183051E+02  0.00000000000E+00 0.  1.
</event>
<event>
 7    1  0.4723144E-009  0.4778728E+02  0.7816164E-02  0.1312668E+00
        -11   -1    0    0    0    0  0.00000000000E+00  0.00000000000E+00  0.45593999997E+02  0.45594000000E+02  0.51100000000E-03 0.  1.
         11   -1    0    0    0    0 -0.00000000000E+00 -0.00000000000E+00 -0.45593999997E+02  0.45594000000E+02  0.51100000000E-03 0. -1.
    9900012    2    1    2    0    0  0.40818526274E+02  0.21059736392E+01  0.14595719503E+02  0.47787282956E+02  0.20000054310E+02 0.  0.
         12    1    1    2    0    0 -0.40818526274E+02 -0.21059736392E+01 -0.14595719503E+02  0.43400717044E+02  0.00000000000E+00 0. -1.
         11    1    3    3    0    0  0.34064993747E+02 -0.11361589338E+01  0.67658265934E+01  0.34748972155E+02  0.51100000000E-03 0. -1.
        -11    1    3    3    0    0  0.46798254511E+01  0.30260565673E+01  0.90458198430E+01  0.10624718420E+02  0.51100000000E-03 0.  1.
        -12    1    3    3    0    0  0.20737070757E+01  0.21607600575E+00 -0.12159269332E+01  0.24135923813E+01  0.00000000000E+00 0.  1.
</event>
<event>
 7    1  0.4723144E-009  0.4778722E+02  0.7816164E-02  0.1312668E+00
        -11   -1    0    0    0    0  0.00000000000E+00  0.00000000000E+00  0.45593999997E+02  0.45594000000E+02  0.51100000000E-03 0. -1.
         11   -1    0    0    0    0 -0.00000000000E+00 -0.00000000000E+00 -0.45593999997E+02  0.45594000000E+02  0.51100000000E-03 0.  1.
    9900012    2    1    2    0    0  0.33071356572E+02  0.27162337475E+02  0.72194502246E+01  0.47787220466E+02  0.19999769391E+02 0.  0.
         12    1    1    2    0    0 -0.33071356572E+02 -0.27162337475E+02 -0.72194502246E+01  0.43400779534E+02  0.00000000000E+00 0. -1.
         11    1    3    3    0    0  0.23521961777E+02  0.14247604246E+02  0.63700860739E+01  0.28228618624E+02  0.51100000000E-03 0. -1.
        -11    1    3    3    0    0  0.89556587103E+01  0.14772676786E+02 -0.33152528349E+00  0.17278475386E+02  0.51100000000E-03 0.  1.
         12    1    3    3    0    0  0.59373608471E+00 -0.18579435574E+01  0.11808894342E+01  0.22801264562E+01  0.00000000000E+00 0. -1.
</event>
<event>
 7    1  0.4723144E-009  0.4778727E+02  0.7816164E-02  0.1312668E+00
        -11   -1    0    0    0    0  0.00000000000E+00  0.00000000000E+00  0.45593999997E+02  0.45594000000E+02  0.51100000000E-03 0.  1.
         11   -1    0    0    0    0 -0.00000000000E+00 -0.00000000000E+00 -0.45593999997E+02  0.45594000000E+02  0.51100000000E-03 0. -1.
    9900012    2    1    2    0    0  0.24867833112E+02 -0.13267236146E+00  0.35569600146E+02  0.47787272124E+02  0.20000004920E+02 0.  0.
         12    1    1    2    0    0 -0.24867833112E+02  0.13267236146E+00 -0.35569600146E+02  0.43400727876E+02  0.00000000000E+00 0. -1.
         11    1    3    3    0    0  0.13642145763E+02 -0.53204635365E+01  0.14689156173E+02  0.20740944592E+02  0.51100000000E-03 0. -1.
        -11    1    3    3    0    0  0.10025647387E+02  0.76232551070E+01  0.20816978627E+02  0.24330520409E+02  0.51100000000E-03 0.  1.
        -12    1    3    3    0    0  0.12000399631E+01 -0.24354639319E+01  0.63465346478E-01  0.27158071226E+01  0.00000000000E+00 0.  1.
</event>
<event>
 7    1  0.4723144E-009  0.4778727E+02  0.7816164E-02  0.1312668E+00
        -11   -1    0    0    0    0  0.00000000000E+00  0.00000000000E+00  0.45593999997E+02  0.45594000000E+02  0.51100000000E-03 0.  1.
         11   -1    0    0    0    0 -0.00000000000E+00 -0.00000000000E+00 -0.45593999997E+02  0.45594000000E+02  0.51100000000E-03 0. -1.
    9900012    2    1    2    0    0  0.25897399749E+02 -0.94979078769E+01  0.33507277117E+02  0.47787272039E+02  0.20000004533E+02 0.  0.
         12    1    1    2    0    0 -0.25897399749E+02  0.94979078769E+01 -0.33507277117E+02  0.43400727961E+02  0.00000000000E+00 0. -1.
         11    1    3    3    0    0  0.39095115008E+01 -0.31335516842E+01 -0.11365035130E+01  0.51376129504E+01  0.51100000000E-03 0. -1.
        -11    1    3    3    0    0  0.20804911781E+02 -0.69392391050E+01  0.26490835959E+02  0.34391303895E+02  0.51100000000E-03 0.  1.
         12    1    3    3    0    0  0.11829764674E+01  0.57488291235E+00  0.81529446708E+01  0.82583551928E+01  0.00000000000E+00 0. -1.
</event>
<event>
 7    1  0.4723144E-009  0.4778727E+02  0.7816164E-02  0.1312668E+00
        -11   -1    0    0    0    0  0.00000000000E+00  0.00000000000E+00  0.45593999997E+02  0.45594000000E+02  0.51100000000E-03 0. -1.
         11   -1    0    0    0    0 -0.00000000000E+00 -0.00000000000E+00 -0.45593999997E+02  0.45594000000E+02  0.51100000000E-03 0.  1.
    9900012    2    1    2    0    0 -0.25796738959E+02  0.12846462591E+02 -0.32451806755E+02  0.47787273005E+02  0.20000008937E+02 0.  0.
         12    1    1    2    0    0  0.25796738959E+02 -0.12846462591E+02  0.32451806755E+02  0.43400726995E+02  0.00000000000E+00 0. -1.
         11    1    3    3    0    0 -0.83913408597E+01  0.10538638373E+02 -0.19832829081E+02  0.23975375071E+02  0.51100000000E-03 0. -1.
        -11    1    3    3    0    0 -0.15904267915E+02  0.12258590558E+01 -0.61707334292E+01  0.17103403744E+02  0.51100000000E-03 0.  1.
        -12    1    3    3    0    0 -0.15011301853E+01  0.10819651624E+01 -0.64482442447E+01  0.67084941891E+01  0.00000000000E+00 0.  1.
</event>
<event>
 7    1  0.4723144E-009  0.4778727E+02  0.7816164E-02  0.1312668E+00
        -11   -1    0    0    0    0  0.00000000000E+00  0.00000000000E+00  0.45593999997E+02  0.45594000000E+02  0.51100000000E-03 0. -1.
         11   -1    0    0    0    0 -0.00000000000E+00 -0.00000000000E+00 -0.45593999997E+02  0.45594000000E+02  0.51100000000E-03 0.  1.
    9900012    2    1    2    0    0  0.11195567839E+02 -0.26513377919E+02 -0.32485739524E+02  0.47787271661E+02  0.20000002811E+02 0.  0.
         12    1    1    2    0    0 -0.11195567839E+02  0.26513377919E+02  0.32485739524E+02  0.43400728339E+02  0.00000000000E+00 0. -1.
         11    1    3    3    0    0  0.47997492590E+01  0.19787224310E+01 -0.21994992421E+01  0.56383271088E+01  0.51100000000E-03 0. -1.
        -11    1    3    3    0    0  0.30221745743E+01 -0.17934662370E+02 -0.17706474400E+02  0.25383161533E+02  0.51100000000E-03 0.  1.
         12    1    3    3    0    0  0.33736440062E+01 -0.10557437980E+02 -0.12579765882E+02  0.16765783019E+02  0.00000000000E+00 0. -1.
</event>
<event>
 7    1  0.4723144E-009  0.4778726E+02  0.7816164E-02  0.1312668E+00
        -11   -1    0    0    0    0  0.00000000000E+00  0.00000000000E+00  0.45593999997E+02  0.45594000000E+02  0.51100000000E-03 0. -1.
         11   -1    0    0    0    0 -0.00000000000E+00 -0.00000000000E+00 -0.45593999997E+02  0.45594000000E+02  0.51100000000E-03 0.  1.
    9900012    2    1    2    0    0  0.11518923965E+02 -0.35608086575E+02 -0.21977321481E+02  0.47787261547E+02  0.19999956696E+02 0.  0.
         12    1    1    2    0    0 -0.11518923965E+02  0.35608086575E+02  0.21977321481E+02  0.43400738453E+02  0.00000000000E+00 0. -1.
         11    1    3    3    0    0 -0.49019361628E+01 -0.74387680186E+01 -0.51977036653E+01  0.10314086069E+02  0.51100000000E-03 0. -1.
        -11    1    3    3    0    0  0.15492019132E+02 -0.23446394632E+02 -0.16636921612E+02  0.32657667385E+02  0.51100000000E-03 0.  1.
        -12    1    3    3    0    0  0.92884099563E+00 -0.47229239241E+01 -0.14269620358E+00  0.48155080931E+01  0.00000000000E+00 0.  1.
</event>
<event>
 7    1  0.4723144E-009  0.4778727E+02  0.7816164E-02  0.1312668E+00
        -11   -1    0    0    0    0  0.00000000000E+00  0.00000000000E+00  0.45593999997E+02  0.45594000000E+02  0.51100000000E-03 0. -1.
         11   -1    0    0    0    0 -0.00000000000E+00 -0.00000000000E+00 -0.45593999997E+02  0.45594000000E+02  0.51100000000E-03 0.  1.
    9900012    2    1    2    0    0  0.20502833370E+02 -0.18943456500E+02 -0.33232550929E+02  0.47787272338E+02  0.20000005896E+02 0.  0.
         12    1    1    2    0    0 -0.20502833370E+02  0.18943456500E+02  0.33232550929E+02  0.43400727662E+02  0.00000000000E+00 0. -1.
         11    1    3    3    0    0 -0.18177369945E+01 -0.79122674958E+01 -0.10280970505E+02  0.13099866392E+02  0.51100000000E-03 0. -1.
        -11    1    3    3    0    0  0.17173103306E+02 -0.11623289644E+02 -0.19472392475E+02  0.28446272309E+02  0.51100000000E-03 0.  1.
         12    1    3    3    0    0  0.51474670589E+01  0.59210063973E+00 -0.34791879494E+01  0.62411336372E+01  0.00000000000E+00 0. -1.
</event>
<event>
 7    1  0.4723144E-009  0.4778727E+02  0.7816164E-02  0.1312668E+00
        -11   -1    0    0    0    0  0.00000000000E+00  0.00000000000E+00  0.45593999997E+02  0.45594000000E+02  0.51100000000E-03 0. -1.
         11   -1    0    0    0    0 -0.00000000000E+00 -0.00000000000E+00 -0.45593999997E+02  0.45594000000E+02  0.51100000000E-03 0.  1.
    9900012    2    1    2    0    0  0.42048379966E+02 -0.99326359847E+01  0.41109737743E+01  0.47787267048E+02  0.19999981778E+02 0.  0.
         12    1    1    2    0    0 -0.42048379966E+02  0.99326359847E+01 -0.41109737743E+01  0.43400732952E+02  0.00000000000E+00 0. -1.
         11    1    3    3    0    0  0.29248893033E+02 -0.62618004918E+01  0.76131482744E+01  0.30865318984E+02  0.51100000000E-03 0. -1.
        -11    1    3    3    0    0  0.80200749174E+01  0.22864507237E+01  0.39218097080E+00  0.83488481103E+01  0.51100000000E-03 0.  1.
         12    1    3    3    0    0  0.47794120155E+01 -0.59572862166E+01 -0.38943554709E+01  0.85730999536E+01  0.00000000000E+00 0. -1.
</event>
<event>
 7    1  0.4723144E-009  0.4778727E+02  0.7816164E-02  0.1312668E+00
        -11   -1    0    0    0    0  0.00000000000E+00  0.00000000000E+00  0.45593999997E+02  0.45594000000E+02  0.51100000000E-03 0. -1.
         11   -1    0    0    0    0 -0.00000000000E+00 -0.00000000000E+00 -0.45593999997E+02  0.45594000000E+02  0.51100000000E-03 0.  1.
    9900012    2    1    2    0    0 -0.20915002688E+02  0.14226754735E+02 -0.35267338999E+02  0.47787273188E+02  0.20000009775E+02 0.  0.
         12    1    1    2    0    0  0.20915002688E+02 -0.14226754735E+02  0.35267338999E+02  0.43400726812E+02  0.00000000000E+00 0. -1.
         11    1    3    3    0    0 -0.10550417387E+02  0.16986298003E+02 -0.24340149988E+02  0.31500611559E+02  0.51100000000E-03 0. -1.
        -11    1    3    3    0    0 -0.72590934074E+01 -0.22908877097E+01 -0.38205939839E+01  0.85170148671E+01  0.51100000000E-03 0.  1.
         12    1    3    3    0    0 -0.31054918930E+01 -0.46865555814E+00 -0.71065950269E+01  0.77696467620E+01  0.00000000000E+00 0. -1.
</event>
<event>
 7    1  0.4723144E-009  0.4778727E+02  0.7816164E-02  0.1312668E+00
        -11   -1    0    0    0    0  0.00000000000E+00  0.00000000000E+00  0.45593999997E+02  0.45594000000E+02  0.51100000000E-03 0.  1.
         11   -1    0    0    0    0 -0.00000000000E+00 -0.00000000000E+00 -0.45593999997E+02  0.45594000000E+02  0.51100000000E-03 0. -1.
    9900012    2    1    2    0    0  0.39934344217E+01 -0.61050586685E+01  0.42783221016E+02  0.47787271201E+02  0.20000000713E+02 0.  0.
         12    1    1    2    0    0 -0.39934344217E+01  0.61050586685E+01 -0.42783221016E+02  0.43400728799E+02  0.00000000000E+00 0. -1.
         11    1    3    3    0    0 -0.29414657714E+01 -0.84891862417E+01  0.19978056095E+02  0.21905278577E+02  0.51100000000E-03 0. -1.
        -11    1    3    3    0    0 -0.23710562143E+01 -0.45588810905E+00  0.33489601749E+01  0.41285925027E+01  0.51100000000E-03 0.  1.
         12    1    3    3    0    0  0.93059564074E+01  0.28400156823E+01  0.19456204745E+02  0.21753400121E+02  0.00000000000E+00 0. -1.
</event>
<event>
 7    1  0.4723144E-009  0.4778727E+02  0.7816164E-02  0.1312668E+00
        -11   -1    0    0    0    0  0.00000000000E+00  0.00000000000E+00  0.45593999997E+02  0.45594000000E+02  0.51100000000E-03 0. -1.
         11   -1    0    0    0    0 -0.00000000000E+00 -0.00000000000E+00 -0.45593999997E+02  0.45594000000E+02  0.51100000000E-03 0.  1.
    9900012    2    1    2    0    0  0.18532316217E+02 -0.37047962075E+02 -0.12947007860E+02  0.47787271311E+02  0.20000001213E+02 0.  0.
         12    1    1    2    0    0 -0.18532316217E+02  0.37047962075E+02  0.12947007860E+02  0.43400728689E+02  0.00000000000E+00 0. -1.
         11    1    3    3    0    0  0.21471415438E+02 -0.22730892764E+02 -0.10111049305E+02  0.32862569666E+02  0.51100000000E-03 0. -1.
        -11    1    3    3    0    0 -0.12061779890E+00 -0.23065334949E+01 -0.60748639233E+00  0.23882389735E+01  0.51100000000E-03 0.  1.
         12    1    3    3    0    0 -0.28184814226E+01 -0.12010535816E+02 -0.22284721632E+01  0.12536462671E+02  0.00000000000E+00 0. -1.
</event>
<event>
 7    1  0.4723144E-009  0.4778727E+02  0.7816164E-02  0.1312668E+00
        -11   -1    0    0    0    0  0.00000000000E+00  0.00000000000E+00  0.45593999997E+02  0.45594000000E+02  0.51100000000E-03 0.  1.
         11   -1    0    0    0    0 -0.00000000000E+00 -0.00000000000E+00 -0.45593999997E+02  0.45594000000E+02  0.51100000000E-03 0. -1.
    9900012    2    1    2    0    0  0.41666698377E+02  0.11901269456E+02  0.24227334336E+01  0.47787267223E+02  0.19999982576E+02 0.  0.
         12    1    1    2    0    0 -0.41666698377E+02 -0.11901269456E+02 -0.24227334336E+01  0.43400732777E+02  0.00000000000E+00 0. -1.
         11    1    3    3    0    0  0.53966248748E+01 -0.89453729387E+00 -0.45748901193E+00  0.54893582017E+01  0.51100000000E-03 0. -1.
        -11    1    3    3    0    0 -0.12651850047E+01  0.15335214910E+00 -0.20203471735E+01  0.23887262171E+01  0.51100000000E-03 0.  1.
        -12    1    3    3    0    0  0.37535258507E+02  0.12642454601E+02  0.49005696190E+01  0.39909182804E+02  0.00000000000E+00 0.  1.
</event>
<event>
 7    1  0.4723144E-009  0.4778728E+02  0.7816164E-02  0.1312668E+00
        -11   -1    0    0    0    0  0.00000000000E+00  0.00000000000E+00  0.45593999997E+02  0.45594000000E+02  0.51100000000E-03 0.  1.
         11   -1    0    0    0    0 -0.00000000000E+00 -0.00000000000E+00 -0.45593999997E+02  0.45594000000E+02  0.51100000000E-03 0. -1.
    9900012    2    1    2    0    0  0.34222457961E+01 -0.33123048798E+02  0.27834769649E+02  0.47787279621E+02  0.20000039104E+02 0.  0.
         12    1    1    2    0    0 -0.34222457961E+01  0.33123048798E+02 -0.27834769649E+02  0.43400720379E+02  0.00000000000E+00 0. -1.
         11    1    3    3    0    0  0.63957554336E+01 -0.19223038913E+02  0.12530511789E+02  0.23821096503E+02  0.51100000000E-03 0. -1.
        -11    1    3    3    0    0 -0.38259446421E+01 -0.11056916931E+02  0.16931855818E+02  0.20581083697E+02  0.51100000000E-03 0.  1.
         12    1    3    3    0    0  0.85243500464E+00 -0.28430929539E+01 -0.16275979579E+01  0.33850994216E+01  0.00000000000E+00 0. -1.
</event>
<event>
 7    1  0.4723144E-009  0.4778727E+02  0.7816164E-02  0.1312668E+00
        -11   -1    0    0    0    0  0.00000000000E+00  0.00000000000E+00  0.45593999997E+02  0.45594000000E+02  0.51100000000E-03 0. -1.
         11   -1    0    0    0    0 -0.00000000000E+00 -0.00000000000E+00 -0.45593999997E+02  0.45594000000E+02  0.51100000000E-03 0.  1.
    9900012    2    1    2    0    0  0.34833157523E+01 -0.66413708878E+01 -0.42747887832E+02  0.47787271780E+02  0.20000003354E+02 0.  0.
         12    1    1    2    0    0 -0.34833157523E+01  0.66413708878E+01  0.42747887832E+02  0.43400728220E+02  0.00000000000E+00 0. -1.
         11    1    3    3    0    0  0.64559903007E+01  0.50785855132E+00 -0.73868065666E+01  0.98235758553E+01  0.51100000000E-03 0. -1.
        -11    1    3    3    0    0 -0.63183535866E+01 -0.48218454050E+00 -0.17216144866E+02  0.18345291992E+02  0.51100000000E-03 0.  1.
         12    1    3    3    0    0  0.33456790382E+01 -0.66670448986E+01 -0.18144936400E+02  0.19618403932E+02  0.00000000000E+00 0. -1.
</event>
<event>
 7    1  0.4723144E-009  0.4778728E+02  0.7816164E-02  0.1312668E+00
        -11   -1    0    0    0    0  0.00000000000E+00  0.00000000000E+00  0.45593999997E+02  0.45594000000E+02  0.51100000000E-03 0.  1.
         11   -1    0    0    0    0 -0.00000000000E+00 -0.00000000000E+00 -0.45593999997E+02  0.45594000000E+02  0.51100000000E-03 0. -1.
    9900012    2    1    2    0    0  0.29222362635E+02 -0.91752246716E+01  0.30748846948E+02  0.47787276338E+02  0.20000024136E+02 0.  0.
         12    1    1    2    0    0 -0.29222362635E+02  0.91752246716E+01 -0.30748846948E+02  0.43400723662E+02  0.00000000000E+00 0. -1.
         11    1    3    3    0    0  0.20746643211E+01  0.49570219981E+01  0.31572154797E+01  0.62325202753E+01  0.51100000000E-03 0. -1.
        -11    1    3    3    0    0  0.14664066248E+02 -0.10565371275E+02  0.16702002786E+02  0.24609323566E+02  0.51100000000E-03 0.  1.
        -12    1    3    3    0    0  0.12483632066E+02 -0.35668753948E+01  0.10889628683E+02  0.16945432496E+02  0.00000000000E+00 0.  1.
</event>
<event>
 7    1  0.4723144E-009  0.4778727E+02  0.7816164E-02  0.1312668E+00
        -11   -1    0    0    0    0  0.00000000000E+00  0.00000000000E+00  0.45593999997E+02  0.45594000000E+02  0.51100000000E-03 0.  1.
         11   -1    0    0    0    0 -0.00000000000E+00 -0.00000000000E+00 -0.45593999997E+02  0.45594000000E+02  0.51100000000E-03 0. -1.
    9900012    2    1    2    0    0 -0.38995629876E+02 -0.71219910151E+01  0.17670355980E+02  0.47787269754E+02  0.19999994114E+02 0.  0.
         12    1    1    2    0    0  0.38995629876E+02  0.71219910151E+01 -0.17670355980E+02  0.43400730246E+02  0.00000000000E+00 0. -1.
         11    1    3    3    0    0 -0.18048836349E+02 -0.12106085402E+02  0.52774814882E+01  0.22364472013E+02  0.51100000000E-03 0. -1.
        -11    1    3    3    0    0 -0.12544723951E+02  0.34903916929E+01  0.44391686077E+01  0.13757149101E+02  0.51100000000E-03 0.  1.
         12    1    3    3    0    0 -0.84020695754E+01  0.14937026939E+01  0.79537058842E+01  0.11665648639E+02  0.00000000000E+00 0. -1.
</event>
<event>
 7    1  0.4723144E-009  0.4778727E+02  0.7816164E-02  0.1312668E+00
        -11   -1    0    0    0    0  0.00000000000E+00  0.00000000000E+00  0.45593999997E+02  0.45594000000E+02  0.51100000000E-03 0. -1.
         11   -1    0    0    0    0 -0.00000000000E+00 -0.00000000000E+00 -0.45593999997E+02  0.45594000000E+02  0.51100000000E-03 0.  1.
    9900012    2    1    2    0    0  0.61613289422E+01 -0.42834640807E+02  0.32946738478E+01  0.47787270707E+02  0.19999998463E+02 0.  0.
         12    1    1    2    0    0 -0.61613289422E+01  0.42834640807E+02 -0.32946738478E+01  0.43400729293E+02  0.00000000000E+00 0. -1.
         11    1    3    3    0    0 -0.26962871317E+01 -0.39894271884E+00  0.34626945240E+01  0.44067417916E+01  0.51100000000E-03 0. -1.
        -11    1    3    3    0    0  0.50530441401E+01 -0.21290711536E+02  0.45704692878E+00  0.21886903503E+02  0.51100000000E-03 0.  1.
         12    1    3    3    0    0  0.38045719339E+01 -0.21144986552E+02 -0.62506760498E+00  0.21493625413E+02  0.00000000000E+00 0. -1.
</event>
<event>
 7    1  0.4723144E-009  0.4778727E+02  0.7816164E-02  0.1312668E+00
        -11   -1    0    0    0    0  0.00000000000E+00  0.00000000000E+00  0.45593999997E+02  0.45594000000E+02  0.51100000000E-03 0. -1.
         11   -1    0    0    0    0 -0.00000000000E+00 -0.00000000000E+00 -0.45593999997E+02  0.45594000000E+02  0.51100000000E-03 0.  1.
    9900012    2    1    2    0    0  0.35848726782E+02  0.40657653417E+01 -0.24123885748E+02  0.47787268171E+02  0.19999986898E+02 0.  0.
         12    1    1    2    0    0 -0.35848726782E+02 -0.40657653417E+01  0.24123885748E+02  0.43400731829E+02  0.00000000000E+00 0. -1.
         11    1    3    3    0    0  0.52713157842E+01  0.16166587184E+01 -0.98678033098E+01  0.11303711688E+02  0.51100000000E-03 0. -1.
        -11    1    3    3    0    0  0.31427547088E+02  0.39554475428E+01 -0.14298908189E+02  0.34753345981E+02  0.51100000000E-03 0.  1.
        -12    1    3    3    0    0 -0.85013608925E+00 -0.15063409195E+01  0.42825750525E-01  0.17302105019E+01  0.00000000000E+00 0.  1.
</event>
<event>
 7    1  0.4723144E-009  0.4778727E+02  0.7816164E-02  0.1312668E+00
        -11   -1    0    0    0    0  0.00000000000E+00  0.00000000000E+00  0.45593999997E+02  0.45594000000E+02  0.51100000000E-03 0. -1.
         11   -1    0    0    0    0 -0.00000000000E+00 -0.00000000000E+00 -0.45593999997E+02  0.45594000000E+02  0.51100000000E-03 0.  1.
    9900012    2    1    2    0    0 -0.28713218282E+02  0.28016309514E+02 -0.16560826691E+02  0.47787268629E+02  0.19999988987E+02 0.  0.
         12    1    1    2    0    0  0.28713218282E+02 -0.28016309514E+02  0.16560826691E+02  0.43400731371E+02  0.00000000000E+00 0. -1.
         11    1    3    3    0    0 -0.59642613939E+01  0.12416759095E+02 -0.10782456010E+02  0.17493132317E+02  0.51100000000E-03 0. -1.
        -11    1    3    3    0    0 -0.16359311301E+02  0.56179872521E+01 -0.63575712024E+01  0.18428444288E+02  0.51100000000E-03 0.  1.
         12    1    3    3    0    0 -0.63896455865E+01  0.99815631664E+01  0.57920052133E+00  0.11865692024E+02  0.00000000000E+00 0. -1.
</event>
<event>
 7    1  0.4723144E-009  0.4778727E+02  0.7816164E-02  0.1312668E+00
        -11   -1    0    0    0    0  0.00000000000E+00  0.00000000000E+00  0.45593999997E+02  0.45594000000E+02  0.51100000000E-03 0.  1.
         11   -1    0    0    0    0 -0.00000000000E+00 -0.00000000000E+00 -0.45593999997E+02  0.45594000000E+02  0.51100000000E-03 0. -1.
    9900012    2    1    2    0    0 -0.25274080167E+02  0.10764830019E+02  0.33600041124E+02  0.47787268933E+02  0.19999990375E+02 0.  0.
         12    1    1    2    0    0  0.25274080167E+02 -0.10764830019E+02 -0.33600041124E+02  0.43400731067E+02  0.00000000000E+00 0. -1.
         11    1    3    3    0    0 -0.14806290236E+02  0.14474604114E+01  0.76983455713E+01  0.16750698403E+02  0.51100000000E-03 0. -1.
        -11    1    3    3    0    0 -0.86086274858E+01  0.54614629760E+01  0.89932076981E+01  0.13594625040E+02  0.51100000000E-03 0.  1.
         12    1    3    3    0    0 -0.18591624447E+01  0.38559066319E+01  0.16908487854E+02  0.17441945490E+02  0.00000000000E+00 0. -1.
</event>
<event>
 7    1  0.4723144E-009  0.4778727E+02  0.7816164E-02  0.1312668E+00
        -11   -1    0    0    0    0  0.00000000000E+00  0.00000000000E+00  0.45593999997E+02  0.45594000000E+02  0.51100000000E-03 0. -1.
         11   -1    0    0    0    0 -0.00000000000E+00 -0.00000000000E+00 -0.45593999997E+02  0.45594000000E+02  0.51100000000E-03 0.  1.
    9900012    2    1    2    0    0 -0.23845260476E+02  0.16411549942E+02 -0.32337098114E+02  0.47787270362E+02  0.19999996888E+02 0.  0.
         12    1    1    2    0    0  0.23845260476E+02 -0.16411549942E+02  0.32337098114E+02  0.43400729638E+02  0.00000000000E+00 0. -1.
         11    1    3    3    0    0 -0.77741058219E+01 -0.32958536480E+01 -0.10906702695E+02  0.13793314922E+02  0.51100000000E-03 0. -1.
        -11    1    3    3    0    0 -0.50714624062E+01  0.43975193324E+01 -0.96813450459E+01  0.11780761833E+02  0.51100000000E-03 0.  1.
         12    1    3    3    0    0 -0.10999692248E+02  0.15309884257E+02 -0.11749050373E+02  0.22213193607E+02  0.00000000000E+00 0. -1.
</event>
<event>
 7    1  0.4723144E-009  0.4778727E+02  0.7816164E-02  0.1312668E+00
        -11   -1    0    0    0    0  0.00000000000E+00  0.00000000000E+00  0.45593999997E+02  0.45594000000E+02  0.51100000000E-03 0.  1.
         11   -1    0    0    0    0 -0.00000000000E+00 -0.00000000000E+00 -0.45593999997E+02  0.45594000000E+02  0.51100000000E-03 0. -1.
    9900012    2    1    2    0    0 -0.26101396310E+02 -0.11842753979E+02  0.32589718050E+02  0.47787269203E+02  0.19999991605E+02 0.  0.
         12    1    1    2    0    0  0.26101396310E+02  0.11842753979E+02 -0.32589718050E+02  0.43400730797E+02  0.00000000000E+00 0. -1.
         11    1    3    3    0    0  0.55922292004E+00 -0.49300933279E+01  0.27365714465E+01  0.56663369154E+01  0.51100000000E-03 0. -1.
        -11    1    3    3    0    0 -0.88071635006E+01  0.24126634481E+01  0.12834747316E+02  0.15751755863E+02  0.51100000000E-03 0.  1.
         12    1    3    3    0    0 -0.17853455729E+02 -0.93253240987E+01  0.17018399287E+02  0.26369176425E+02  0.00000000000E+00 0. -1.
</event>
<event>
 7    1  0.4723144E-009  0.4778727E+02  0.7816164E-02  0.1312668E+00
        -11   -1    0    0    0    0  0.00000000000E+00  0.00000000000E+00  0.45593999997E+02  0.45594000000E+02  0.51100000000E-03 0.  1.
         11   -1    0    0    0    0 -0.00000000000E+00 -0.00000000000E+00 -0.45593999997E+02  0.45594000000E+02  0.51100000000E-03 0. -1.
    9900012    2    1    2    0    0  0.12224258602E+02  0.87757068262E+01  0.40708446352E+02  0.47787272667E+02  0.20000007396E+02 0.  0.
         12    1    1    2    0    0 -0.12224258602E+02 -0.87757068262E+01 -0.40708446352E+02  0.43400727333E+02  0.00000000000E+00 0. -1.
         11    1    3    3    0    0  0.21794352185E+01  0.26261862438E+01  0.18494096719E+01  0.38816373419E+01  0.51100000000E-03 0. -1.
        -11    1    3    3    0    0  0.26538235221E+01 -0.52333881053E+01  0.61879405903E+01  0.85277042255E+01  0.51100000000E-03 0.  1.
        -12    1    3    3    0    0  0.73909998617E+01  0.11382908688E+02  0.32671096090E+02  0.35377931099E+02  0.00000000000E+00 0.  1.
</event>
<event>
 7    1  0.4723144E-009  0.4778727E+02  0.7816164E-02  0.1312668E+00
        -11   -1    0    0    0    0  0.00000000000E+00  0.00000000000E+00  0.45593999997E+02  0.45594000000E+02  0.51100000000E-03 0.  1.
         11   -1    0    0    0    0 -0.00000000000E+00 -0.00000000000E+00 -0.45593999997E+02  0.45594000000E+02  0.51100000000E-03 0. -1.
    9900012    2    1    2    0    0  0.15447195523E+02  0.11924530847E+02  0.38766134453E+02  0.47787268833E+02  0.19999989917E+02 0.  0.
         12    1    1    2    0    0 -0.15447195523E+02 -0.11924530847E+02 -0.38766134453E+02  0.43400731167E+02  0.00000000000E+00 0. -1.
         11    1    3    3    0    0  0.10487059041E+01 -0.40849100527E+01  0.63524692887E+01  0.76249682318E+01  0.51100000000E-03 0. -1.
        -11    1    3    3    0    0  0.85084453319E+01  0.97811860444E+01  0.10671473081E+02  0.16791235225E+02  0.51100000000E-03 0.  1.
        -12    1    3    3    0    0  0.58900442874E+01  0.62282548549E+01  0.21742192083E+02  0.23371065376E+02  0.00000000000E+00 0.  1.
</event>
<event>
 7    1  0.4723144E-009  0.4778727E+02  0.7816164E-02  0.1312668E+00
        -11   -1    0    0    0    0  0.00000000000E+00  0.00000000000E+00  0.45593999997E+02  0.45594000000E+02  0.51100000000E-03 0.  1.
         11   -1    0    0    0    0 -0.00000000000E+00 -0.00000000000E+00 -0.45593999997E+02  0.45594000000E+02  0.51100000000E-03 0. -1.
    9900012    2    1    2    0    0 -0.32316269929E+02  0.31871126072E+00  0.28968610641E+02  0.47787270957E+02  0.19999999601E+02 0.  0.
         12    1    1    2    0    0  0.32316269929E+02 -0.31871126072E+00 -0.28968610641E+02  0.43400729043E+02  0.00000000000E+00 0. -1.
         11    1    3    3    0    0 -0.19678181527E+02 -0.71388422088E+01  0.17524363193E+02  0.27300131902E+02  0.51100000000E-03 0. -1.
        -11    1    3    3    0    0 -0.91918189013E+01  0.85528080686E+01  0.11262172256E+02  0.16866433670E+02  0.51100000000E-03 0.  1.
         12    1    3    3    0    0 -0.34462695004E+01 -0.10952545991E+01  0.18207519266E+00  0.36207053846E+01  0.00000000000E+00 0. -1.
</event>
<event>
 7    1  0.4723144E-009  0.4778727E+02  0.7816164E-02  0.1312668E+00
        -11   -1    0    0    0    0  0.00000000000E+00  0.00000000000E+00  0.45593999997E+02  0.45594000000E+02  0.51100000000E-03 0.  1.
         11   -1    0    0    0    0 -0.00000000000E+00 -0.00000000000E+00 -0.45593999997E+02  0.45594000000E+02  0.51100000000E-03 0. -1.
    9900012    2    1    2    0    0  0.10518120424E+02  0.16921534931E+02  0.38557155171E+02  0.47787269401E+02  0.19999992508E+02 0.  0.
         12    1    1    2    0    0 -0.10518120424E+02 -0.16921534931E+02 -0.38557155171E+02  0.43400730599E+02  0.00000000000E+00 0. -1.
         11    1    3    3    0    0  0.86318523864E+01  0.17601194336E+02  0.17564779975E+02  0.26321709927E+02  0.51100000000E-03 0. -1.
        -11    1    3    3    0    0  0.22570231573E+01 -0.18414856230E+01  0.18000561206E+02  0.18234731334E+02  0.51100000000E-03 0.  1.
        -12    1    3    3    0    0 -0.37075511968E+00  0.11618262176E+01  0.29918139896E+01  0.32308281395E+01  0.00000000000E+00 0.  1.
</event>
<event>
 7    1  0.4723144E-009  0.4778728E+02  0.7816164E-02  0.1312668E+00
        -11   -1    0    0    0    0  0.00000000000E+00  0.00000000000E+00  0.45593999997E+02  0.45594000000E+02  0.51100000000E-03 0.  1.
         11   -1    0    0    0    0 -0.00000000000E+00 -0.00000000000E+00 -0.45593999997E+02  0.45594000000E+02  0.51100000000E-03 0. -1.
    9900012    2    1    2    0    0 -0.39204536566E+02 -0.11504998916E+02  0.14637695804E+02  0.47787276205E+02  0.20000023531E+02 0.  0.
         12    1    1    2    0    0  0.39204536566E+02  0.11504998916E+02 -0.14637695804E+02  0.43400723795E+02  0.00000000000E+00 0. -1.
         11    1    3    3    0    0 -0.30647007726E+02 -0.79154603720E+01  0.16863142046E+01  0.31697590624E+02  0.51100000000E-03 0. -1.
        -11    1    3    3    0    0 -0.25883059913E+01 -0.96367379509E+00  0.57216794495E+01  0.63533936657E+01  0.51100000000E-03 0.  1.
         12    1    3    3    0    0 -0.59692228485E+01 -0.26258647489E+01  0.72297021504E+01  0.97362919162E+01  0.00000000000E+00 0. -1.
</event>
<event>
 7    1  0.4723144E-009  0.4778727E+02  0.7816164E-02  0.1312668E+00
        -11   -1    0    0    0    0  0.00000000000E+00  0.00000000000E+00  0.45593999997E+02  0.45594000000E+02  0.51100000000E-03 0. -1.
         11   -1    0    0    0    0 -0.00000000000E+00 -0.00000000000E+00 -0.45593999997E+02  0.45594000000E+02  0.51100000000E-03 0.  1.
    9900012    2    1    2    0    0 -0.42164249832E+02 -0.93566754623E+01 -0.42722161956E+01  0.47787272232E+02  0.20000005414E+02 0.  0.
         12    1    1    2    0    0  0.42164249832E+02  0.93566754623E+01  0.42722161956E+01  0.43400727768E+02  0.00000000000E+00 0. -1.
         11    1    3    3    0    0 -0.27365119185E+02 -0.99850603291E+01  0.31472875572E+01  0.29299429978E+02  0.51100000000E-03 0. -1.
        -11    1    3    3    0    0 -0.15305605667E+01  0.28469776757E+01 -0.24520614050E+00  0.32416082192E+01  0.51100000000E-03 0.  1.
         12    1    3    3    0    0 -0.13268570080E+02 -0.22185928090E+01 -0.71742976123E+01  0.15246234035E+02  0.00000000000E+00 0. -1.
</event>
<event>
 7    1  0.4723144E-009  0.4778727E+02  0.7816164E-02  0.1312668E+00
        -11   -1    0    0    0    0  0.00000000000E+00  0.00000000000E+00  0.45593999997E+02  0.45594000000E+02  0.51100000000E-03 0. -1.
         11   -1    0    0    0    0 -0.00000000000E+00 -0.00000000000E+00 -0.45593999997E+02  0.45594000000E+02  0.51100000000E-03 0.  1.
    9900012    2    1    2    0    0  0.46817248812E+01  0.11612187618E+00 -0.43147319628E+02  0.47787271628E+02  0.20000002662E+02 0.  0.
         12    1    1    2    0    0 -0.46817248812E+01 -0.11612187618E+00  0.43147319628E+02  0.43400728372E+02  0.00000000000E+00 0. -1.
         11    1    3    3    0    0  0.26481687803E+00  0.49746349332E+01 -0.23420502225E+02  0.23944457509E+02  0.51100000000E-03 0. -1.
        -11    1    3    3    0    0  0.31986503517E+01 -0.79476663082E+01 -0.82440762100E+01  0.11889556621E+02  0.51100000000E-03 0.  1.
        -12    1    3    3    0    0  0.12182576514E+01  0.30891532512E+01 -0.11482741193E+02  0.11953257498E+02  0.00000000000E+00 0.  1.
</event>
<event>
 7    1  0.4723144E-009  0.4778727E+02  0.7816164E-02  0.1312668E+00
        -11   -1    0    0    0    0  0.00000000000E+00  0.00000000000E+00  0.45593999997E+02  0.45594000000E+02  0.51100000000E-03 0. -1.
         11   -1    0    0    0    0 -0.00000000000E+00 -0.00000000000E+00 -0.45593999997E+02  0.45594000000E+02  0.51100000000E-03 0.  1.
    9900012    2    1    2    0    0  0.11747221862E+02  0.34786140269E+02  0.23141967173E+02  0.47787269350E+02  0.19999992277E+02 0.  0.
         12    1    1    2    0    0 -0.11747221862E+02 -0.34786140269E+02 -0.23141967173E+02  0.43400730650E+02  0.00000000000E+00 0. -1.
         11    1    3    3    0    0  0.41668091224E+01 -0.11634173948E+01  0.12223151542E+01  0.44955414462E+01  0.51100000000E-03 0. -1.
        -11    1    3    3    0    0  0.96186995270E+00  0.18754282116E+02  0.92701316081E+01  0.20942388397E+02  0.51100000000E-03 0.  1.
         12    1    3    3    0    0  0.66185427866E+01  0.17195275548E+02  0.12649520411E+02  0.22349339507E+02  0.00000000000E+00 0. -1.
</event>
<event>
 7    1  0.4723144E-009  0.4778727E+02  0.7816164E-02  0.1312668E+00
        -11   -1    0    0    0    0  0.00000000000E+00  0.00000000000E+00  0.45593999997E+02  0.45594000000E+02  0.51100000000E-03 0.  1.
         11   -1    0    0    0    0 -0.00000000000E+00 -0.00000000000E+00 -0.45593999997E+02  0.45594000000E+02  0.51100000000E-03 0. -1.
    9900012    2    1    2    0    0 -0.20324379347E+02 -0.24116080556E+02  0.29815390603E+02  0.47787271273E+02  0.20000001042E+02 0.  0.
         12    1    1    2    0    0  0.20324379347E+02  0.24116080556E+02 -0.29815390603E+02  0.43400728727E+02  0.00000000000E+00 0. -1.
         11    1    3    3    0    0  0.37831880731E+01 -0.54088411688E+01  0.34106491721E+01  0.74297108169E+01  0.51100000000E-03 0. -1.
        -11    1    3    3    0    0 -0.12822751159E+02 -0.98425258011E+01  0.13592440239E+02  0.21119959596E+02  0.51100000000E-03 0.  1.
         12    1    3    3    0    0 -0.11284816261E+02 -0.88647135863E+01  0.12812301192E+02  0.19237600860E+02  0.00000000000E+00 0. -1.
</event>
<event>
 7    1  0.4723144E-009  0.4778727E+02  0.7816164E-02  0.1312668E+00
        -11   -1    0    0    0    0  0.00000000000E+00  0.00000000000E+00  0.45593999997E+02  0.45594000000E+02  0.51100000000E-03 0.  1.
         11   -1    0    0    0    0 -0.00000000000E+00 -0.00000000000E+00 -0.45593999997E+02  0.45594000000E+02  0.51100000000E-03 0. -1.
    9900012    2    1    2    0    0 -0.22852562843E+02 -0.22607720435E+02  0.29159470494E+02  0.47787269923E+02  0.19999994885E+02 0.  0.
         12    1    1    2    0    0  0.22852562843E+02  0.22607720435E+02 -0.29159470494E+02  0.43400730077E+02  0.00000000000E+00 0. -1.
         11    1    3    3    0    0  0.15084029953E+01 -0.13660143833E+01 -0.96216045126E+00  0.22510059722E+01  0.51100000000E-03 0. -1.
        -11    1    3    3    0    0 -0.12285682513E+02 -0.67452646081E+01  0.19084473945E+02  0.23678127787E+02  0.51100000000E-03 0.  1.
        -12    1    3    3    0    0 -0.12075283325E+02 -0.14496441444E+02  0.11037157000E+02  0.21858136164E+02  0.00000000000E+00 0.  1.
</event>
<event>
 7    1  0.4723144E-009  0.4778727E+02  0.7816164E-02  0.1312668E+00
        -11   -1    0    0    0    0  0.00000000000E+00  0.00000000000E+00  0.45593999997E+02  0.45594000000E+02  0.51100000000E-03 0.  1.
         11   -1    0    0    0    0 -0.00000000000E+00 -0.00000000000E+00 -0.45593999997E+02  0.45594000000E+02  0.51100000000E-03 0. -1.
    9900012    2    1    2    0    0  0.61851413994E+01  0.35747195484E+02  0.23822375955E+02  0.47787267803E+02  0.19999985220E+02 0.  0.
         12    1    1    2    0    0 -0.61851413994E+01 -0.35747195484E+02 -0.23822375955E+02  0.43400732197E+02  0.00000000000E+00 0. -1.
         11    1    3    3    0    0 -0.59356160222E+01  0.42969275936E+01  0.35750706489E+01  0.81532971683E+01  0.51100000000E-03 0. -1.
        -11    1    3    3    0    0  0.86290229453E+01  0.16532357846E+02  0.95843631407E+01  0.20967568052E+02  0.51100000000E-03 0.  1.
         12    1    3    3    0    0  0.34917344763E+01  0.14917910044E+02  0.10662942166E+02  0.18666402582E+02  0.00000000000E+00 0. -1.
</event>
<event>
 7    1  0.4723144E-009  0.4778726E+02  0.7816164E-02  0.1312668E+00
        -11   -1    0    0    0    0  0.00000000000E+00  0.00000000000E+00  0.45593999997E+02  0.45594000000E+02  0.51100000000E-03 0.  1.
         11   -1    0    0    0    0 -0.00000000000E+00 -0.00000000000E+00 -0.45593999997E+02  0.45594000000E+02  0.51100000000E-03 0. -1.
    9900012    2    1    2    0    0  0.21036465010E+02  0.32100104328E+02  0.20265110273E+02  0.47787259771E+02  0.19999948602E+02 0.  0.
         12    1    1    2    0    0 -0.21036465010E+02 -0.32100104328E+02 -0.20265110273E+02  0.43400740229E+02  0.00000000000E+00 0. -1.
         11    1    3    3    0    0 -0.68746919309E+00  0.80143301865E+01 -0.55053921494E+00  0.80625799790E+01  0.51100000000E-03 0. -1.
        -11    1    3    3    0    0  0.20555608088E+02  0.22379264923E+02  0.15692181971E+02  0.34199548208E+02  0.51100000000E-03 0.  1.
        -12    1    3    3    0    0  0.11683261155E+01  0.17065092187E+01  0.51234675173E+01  0.55251315846E+01  0.00000000000E+00 0.  1.
</event>
<event>
 7    1  0.4723144E-009  0.4778728E+02  0.7816164E-02  0.1312668E+00
        -11   -1    0    0    0    0  0.00000000000E+00  0.00000000000E+00  0.45593999997E+02  0.45594000000E+02  0.51100000000E-03 0.  1.
         11   -1    0    0    0    0 -0.00000000000E+00 -0.00000000000E+00 -0.45593999997E+02  0.45594000000E+02  0.51100000000E-03 0. -1.
    9900012    2    1    2    0    0 -0.26610456528E+01  0.25405405534E+02  0.35087129508E+02  0.47787280520E+02  0.20000043201E+02 0.  0.
         12    1    1    2    0    0  0.26610456528E+01 -0.25405405534E+02 -0.35087129508E+02  0.43400719480E+02  0.00000000000E+00 0. -1.
         11    1    3    3    0    0  0.15699019239E+01  0.23394054022E+02  0.19238290849E+02  0.30329164029E+02  0.51100000000E-03 0. -1.
        -11    1    3    3    0    0 -0.13740235383E+01  0.23873576157E+00  0.12932157803E+02  0.13007138085E+02  0.51100000000E-03 0.  1.
         12    1    3    3    0    0 -0.28569240385E+01  0.17726157504E+01  0.29166808557E+01  0.44509784064E+01  0.00000000000E+00 0. -1.
</event>
<event>
 7    1  0.4723144E-009  0.4778726E+02  0.7816164E-02  0.1312668E+00
        -11   -1    0    0    0    0  0.00000000000E+00  0.00000000000E+00  0.45593999997E+02  0.45594000000E+02  0.51100000000E-03 0.  1.
         11   -1    0    0    0    0 -0.00000000000E+00 -0.00000000000E+00 -0.45593999997E+02  0.45594000000E+02  0.51100000000E-03 0. -1.
    9900012    2    1    2    0    0  0.17662371268E+02 -0.18488490527E+02  0.35069085566E+02  0.47787258034E+02  0.19999940679E+02 0.  0.
         12    1    1    2    0    0 -0.17662371268E+02  0.18488490527E+02 -0.35069085566E+02  0.43400741966E+02  0.00000000000E+00 0. -1.
         11    1    3    3    0    0  0.41978460200E+01 -0.56601691555E+01  0.40734068445E+00  0.70587075850E+01  0.51100000000E-03 0. -1.
        -11    1    3    3    0    0  0.83102054322E+01 -0.46304117810E+01  0.82310546904E+01  0.12579765068E+02  0.51100000000E-03 0.  1.
         12    1    3    3    0    0  0.51543198156E+01 -0.81979095906E+01  0.26430690191E+02  0.28148785381E+02  0.00000000000E+00 0. -1.
</event>
<event>
 7    1  0.4723144E-009  0.4778728E+02  0.7816164E-02  0.1312668E+00
        -11   -1    0    0    0    0  0.00000000000E+00  0.00000000000E+00  0.45593999997E+02  0.45594000000E+02  0.51100000000E-03 0. -1.
         11   -1    0    0    0    0 -0.00000000000E+00 -0.00000000000E+00 -0.45593999997E+02  0.45594000000E+02  0.51100000000E-03 0.  1.
    9900012    2    1    2    0    0  0.23663094140E+02 -0.29360038874E+02 -0.21486477759E+02  0.47787278422E+02  0.20000033639E+02 0.  0.
         12    1    1    2    0    0 -0.23663094140E+02  0.29360038874E+02  0.21486477759E+02  0.43400721578E+02  0.00000000000E+00 0. -1.
         11    1    3    3    0    0  0.74471056140E+01  0.96625548166E+00 -0.22311673828E+01  0.78339734383E+01  0.51100000000E-03 0. -1.
        -11    1    3    3    0    0  0.16365439464E+02 -0.26786589302E+02 -0.16483311598E+02  0.35454880296E+02  0.51100000000E-03 0.  1.
         12    1    3    3    0    0 -0.14945093781E+00 -0.35397050534E+01 -0.27719987789E+01  0.44984246885E+01  0.00000000000E+00 0. -1.
</event>
<event>
 7    1  0.4723144E-009  0.4778727E+02  0.7816164E-02  0.1312668E+00
        -11   -1    0    0    0    0  0.00000000000E+00  0.00000000000E+00  0.45593999997E+02  0.45594000000E+02  0.51100000000E-03 0. -1.
         11   -1    0    0    0    0 -0.00000000000E+00 -0.00000000000E+00 -0.45593999997E+02  0.45594000000E+02  0.51100000000E-03 0.  1.
    9900012    2    1    2    0    0  0.17049166703E+02  0.39433957497E+02 -0.61572859608E+01  0.47787271209E+02  0.20000000752E+02 0.  0.
         12    1    1    2    0    0 -0.17049166703E+02 -0.39433957497E+02  0.61572859608E+01  0.43400728791E+02  0.00000000000E+00 0. -1.
         11    1    3    3    0    0  0.85145569495E+01  0.35470881300E+02 -0.25651795446E+01  0.36568582781E+02  0.51100000000E-03 0. -1.
        -11    1    3    3    0    0  0.63382348718E+01  0.47423835209E+01 -0.39732276164E+01  0.88571982423E+01  0.51100000000E-03 0.  1.
         12    1    3    3    0    0  0.21963748820E+01 -0.77930732433E+00  0.38112120025E+00  0.23614901858E+01  0.00000000000E+00 0. -1.
</event>
<event>
 7    1  0.4723144E-009  0.4778727E+02  0.7816164E-02  0.1312668E+00
        -11   -1    0    0    0    0  0.00000000000E+00  0.00000000000E+00  0.45593999997E+02  0.45594000000E+02  0.51100000000E-03 0.  1.
         11   -1    0    0    0    0 -0.00000000000E+00 -0.00000000000E+00 -0.45593999997E+02  0.45594000000E+02  0.51100000000E-03 0. -1.
    9900012    2    1    2    0    0  0.25050706718E+02 -0.55242406278E+01  0.35008112942E+02  0.47787272893E+02  0.20000008431E+02 0.  0.
         12    1    1    2    0    0 -0.25050706718E+02  0.55242406278E+01 -0.35008112942E+02  0.43400727107E+02  0.00000000000E+00 0. -1.
         11    1    3    3    0    0 -0.10386093077E+01 -0.99005757398E+00  0.93217877463E+01  0.94315772987E+01  0.51100000000E-03 0. -1.
        -11    1    3    3    0    0  0.22991247219E+02 -0.33071209099E+00  0.18724910613E+02  0.29653483723E+02  0.51100000000E-03 0.  1.
         12    1    3    3    0    0  0.30980688067E+01 -0.42034709628E+01  0.69614145824E+01  0.87022118713E+01  0.00000000000E+00 0. -1.
</event>
<event>
 7    1  0.4723144E-009  0.4778727E+02  0.7816164E-02  0.1312668E+00
        -11   -1    0    0    0    0  0.00000000000E+00  0.00000000000E+00  0.45593999997E+02  0.45594000000E+02  0.51100000000E-03 0. -1.
         11   -1    0    0    0    0 -0.00000000000E+00 -0.00000000000E+00 -0.45593999997E+02  0.45594000000E+02  0.51100000000E-03 0.  1.
    9900012    2    1    2    0    0 -0.12503041041E+02  0.17554323268E+02 -0.37671512478E+02  0.47787272436E+02  0.20000006344E+02 0.  0.
         12    1    1    2    0    0  0.12503041041E+02 -0.17554323268E+02  0.37671512478E+02  0.43400727564E+02  0.00000000000E+00 0. -1.
         11    1    3    3    0    0 -0.93480491585E+00  0.34489367153E+01 -0.38907588545E+01  0.52827104238E+01  0.51100000000E-03 0. -1.
        -11    1    3    3    0    0 -0.69770133754E+01  0.14340466147E+02 -0.11266953767E+02  0.19526185813E+02  0.51100000000E-03 0.  1.
        -12    1    3    3    0    0 -0.45912227498E+01 -0.23507959396E+00 -0.22513799857E+02  0.22978376199E+02  0.00000000000E+00 0.  1.
</event>
<event>
 7    1  0.4723144E-009  0.4778726E+02  0.7816164E-02  0.1312668E+00
        -11   -1    0    0    0    0  0.00000000000E+00  0.00000000000E+00  0.45593999997E+02  0.45594000000E+02  0.51100000000E-03 0.  1.
         11   -1    0    0    0    0 -0.00000000000E+00 -0.00000000000E+00 -0.45593999997E+02  0.45594000000E+02  0.51100000000E-03 0. -1.
    9900012    2    1    2    0    0  0.34878591320E+02  0.60677871742E-01  0.25828358870E+02  0.47787263414E+02  0.19999965210E+02 0.  0.
         12    1    1    2    0    0 -0.34878591320E+02 -0.60677871742E-01 -0.25828358870E+02  0.43400736586E+02  0.00000000000E+00 0. -1.
         11    1    3    3    0    0  0.25323420201E+01  0.32854027638E+01 -0.16082653933E+01  0.44489487818E+01  0.51100000000E-03 0. -1.
        -11    1    3    3    0    0  0.18582141482E+02 -0.41597522306E+01  0.20197305174E+02  0.27758433984E+02  0.51100000000E-03 0.  1.
        -12    1    3    3    0    0  0.13764107818E+02  0.93502733857E+00  0.72393190891E+01  0.15579880649E+02  0.00000000000E+00 0.  1.
</event>
<event>
 7    1  0.4723144E-009  0.4778727E+02  0.7816164E-02  0.1312668E+00
        -11   -1    0    0    0    0  0.00000000000E+00  0.00000000000E+00  0.45593999997E+02  0.45594000000E+02  0.51100000000E-03 0.  1.
         11   -1    0    0    0    0 -0.00000000000E+00 -0.00000000000E+00 -0.45593999997E+02  0.45594000000E+02  0.51100000000E-03 0. -1.
    9900012    2    1    2    0    0 -0.45021953414E+01 -0.40973528243E+02  0.13583936867E+02  0.47787272813E+02  0.20000008062E+02 0.  0.
         12    1    1    2    0    0  0.45021953414E+01  0.40973528243E+02 -0.13583936867E+02  0.43400727187E+02  0.00000000000E+00 0. -1.
         11    1    3    3    0    0  0.64260410380E+01 -0.21426832503E+02  0.40103991435E+01  0.22726338378E+02  0.51100000000E-03 0. -1.
        -11    1    3    3    0    0 -0.62028550037E+01 -0.12007728212E+02  0.26158336622E+01  0.13766028222E+02  0.51100000000E-03 0.  1.
         12    1    3    3    0    0 -0.47253813756E+01 -0.75389675280E+01  0.69577040613E+01  0.11294906212E+02  0.00000000000E+00 0. -1.
</event>
<event>
 7    1  0.4723144E-009  0.4778727E+02  0.7816164E-02  0.1312668E+00
        -11   -1    0    0    0    0  0.00000000000E+00  0.00000000000E+00  0.45593999997E+02  0.45594000000E+02  0.51100000000E-03 0. -1.
         11   -1    0    0    0    0 -0.00000000000E+00 -0.00000000000E+00 -0.45593999997E+02  0.45594000000E+02  0.51100000000E-03 0.  1.
    9900012    2    1    2    0    0 -0.21340340663E+02 -0.20998135932E+01 -0.37733326129E+02  0.47787271233E+02  0.20000000859E+02 0.  0.
         12    1    1    2    0    0  0.21340340663E+02  0.20998135932E+01  0.37733326129E+02  0.43400728767E+02  0.00000000000E+00 0. -1.
         11    1    3    3    0    0 -0.62071357646E+01 -0.37109152712E+01 -0.23169653482E+01  0.75939288406E+01  0.51100000000E-03 0. -1.
        -11    1    3    3    0    0 -0.14016045779E+02  0.24349968738E+01 -0.35983722844E+02  0.38693759949E+02  0.51100000000E-03 0.  1.
        -12    1    3    3    0    0 -0.11171591200E+01 -0.82389519584E+00  0.56736206271E+00  0.14995824430E+01  0.00000000000E+00 0.  1.
</event>
<event>
 7    1  0.4723144E-009  0.4778727E+02  0.7816164E-02  0.1312668E+00
        -11   -1    0    0    0    0  0.00000000000E+00  0.00000000000E+00  0.45593999997E+02  0.45594000000E+02  0.51100000000E-03 0. -1.
         11   -1    0    0    0    0 -0.00000000000E+00 -0.00000000000E+00 -0.45593999997E+02  0.45594000000E+02  0.51100000000E-03 0.  1.
    9900012    2    1    2    0    0  0.42076374835E+02 -0.11650610267E+01 -0.10575658614E+02  0.47787271416E+02  0.20000001696E+02 0.  0.
         12    1    1    2    0    0 -0.42076374835E+02  0.11650610267E+01  0.10575658614E+02  0.43400728584E+02  0.00000000000E+00 0. -1.
         11    1    3    3    0    0  0.40720171158E+01 -0.20629892935E+01  0.44612610339E+00  0.45865321298E+01  0.51100000000E-03 0. -1.
        -11    1    3    3    0    0 -0.47981172183E+00  0.19740449219E+01 -0.33904118234E+01  0.39524631858E+01  0.51100000000E-03 0.  1.
        -12    1    3    3    0    0  0.38484169441E+02 -0.10761166551E+01 -0.76313728937E+01  0.39248276101E+02  0.00000000000E+00 0.  1.
</event>
<event>
 7    1  0.4723144E-009  0.4778727E+02  0.7816164E-02  0.1312668E+00
        -11   -1    0    0    0    0  0.00000000000E+00  0.00000000000E+00  0.45593999997E+02  0.45594000000E+02  0.51100000000E-03 0.  1.
         11   -1    0    0    0    0 -0.00000000000E+00 -0.00000000000E+00 -0.45593999997E+02  0.45594000000E+02  0.51100000000E-03 0. -1.
    9900012    2    1    2    0    0  0.29171814714E+02 -0.23525536131E+02  0.21890128040E+02  0.47787270402E+02  0.19999997073E+02 0.  0.
         12    1    1    2    0    0 -0.29171814714E+02  0.23525536131E+02 -0.21890128040E+02  0.43400729598E+02  0.00000000000E+00 0. -1.
         11    1    3    3    0    0  0.97090614122E+01 -0.10920401986E+01  0.10043780157E+01  0.98217717730E+01  0.51100000000E-03 0. -1.
        -11    1    3    3    0    0  0.77710161253E+01 -0.12808685435E+02  0.16307858973E+02  0.22144917672E+02  0.51100000000E-03 0.  1.
        -12    1    3    3    0    0  0.11691737177E+02 -0.96248104982E+01  0.45778910517E+01  0.15820580957E+02  0.00000000000E+00 0.  1.
</event>
<event>
 7    1  0.4723144E-009  0.4778727E+02  0.7816164E-02  0.1312668E+00
        -11   -1    0    0    0    0  0.00000000000E+00  0.00000000000E+00  0.45593999997E+02  0.45594000000E+02  0.51100000000E-03 0. -1.
         11   -1    0    0    0    0 -0.00000000000E+00 -0.00000000000E+00 -0.45593999997E+02  0.45594000000E+02  0.51100000000E-03 0.  1.
    9900012    2    1    2    0    0 -0.31378651716E+02  0.98708976136E+01 -0.28311994239E+02  0.47787269350E+02  0.19999992274E+02 0.  0.
         12    1    1    2    0    0  0.31378651716E+02 -0.98708976136E+01  0.28311994239E+02  0.43400730650E+02  0.00000000000E+00 0. -1.
         11    1    3    3    0    0 -0.10340681046E+02 -0.37664779892E+00  0.72208395457E+00  0.10372702327E+02  0.51100000000E-03 0. -1.
        -11    1    3    3    0    0 -0.14150828931E+02  0.84438771770E+01 -0.20222351209E+02  0.26086174689E+02  0.51100000000E-03 0.  1.
         12    1    3    3    0    0 -0.68871417383E+01  0.18036682355E+01 -0.88117269844E+01  0.11328392334E+02  0.00000000000E+00 0. -1.
</event>
<event>
 7    1  0.4723144E-009  0.4778727E+02  0.7816164E-02  0.1312668E+00
        -11   -1    0    0    0    0  0.00000000000E+00  0.00000000000E+00  0.45593999997E+02  0.45594000000E+02  0.51100000000E-03 0. -1.
         11   -1    0    0    0    0 -0.00000000000E+00 -0.00000000000E+00 -0.45593999997E+02  0.45594000000E+02  0.51100000000E-03 0.  1.
    9900012    2    1    2    0    0 -0.35836529344E+02  0.23097799601E+02  0.81152952842E+01  0.47787271903E+02  0.20000003913E+02 0.  0.
         12    1    1    2    0    0  0.35836529344E+02 -0.23097799601E+02 -0.81152952842E+01  0.43400728097E+02  0.00000000000E+00 0. -1.
         11    1    3    3    0    0 -0.23519246099E+02  0.11126420343E+02 -0.25879724286E+01  0.26146697082E+02  0.51100000000E-03 0. -1.
        -11    1    3    3    0    0 -0.10513702731E+02  0.10213777317E+02  0.11873417824E+02  0.18863648726E+02  0.51100000000E-03 0.  1.
        -12    1    3    3    0    0 -0.18035805136E+01  0.17576019416E+01 -0.11701501108E+01  0.27769260948E+01  0.00000000000E+00 0.  1.
</event>
<event>
 7    1  0.4723144E-009  0.4778727E+02  0.7816164E-02  0.1312668E+00
        -11   -1    0    0    0    0  0.00000000000E+00  0.00000000000E+00  0.45593999997E+02  0.45594000000E+02  0.51100000000E-03 0. -1.
         11   -1    0    0    0    0 -0.00000000000E+00 -0.00000000000E+00 -0.45593999997E+02  0.45594000000E+02  0.51100000000E-03 0.  1.
    9900012    2    1    2    0    0 -0.86793425949E+01  0.28372449539E+02 -0.31674854707E+02  0.47787270727E+02  0.19999998551E+02 0.  0.
         12    1    1    2    0    0  0.86793425949E+01 -0.28372449539E+02  0.31674854707E+02  0.43400729273E+02  0.00000000000E+00 0. -1.
         11    1    3    3    0    0 -0.68839646376E+01  0.22809167238E+02 -0.19059129800E+02  0.30510613042E+02  0.51100000000E-03 0. -1.
        -11    1    3    3    0    0 -0.97963634032E-01  0.74027979372E+01 -0.12778629120E+02  0.14768357275E+02  0.51100000000E-03 0.  1.
         12    1    3    3    0    0 -0.16974143233E+01 -0.18395156361E+01  0.16290421177E+00  0.25083004091E+01  0.00000000000E+00 0. -1.
</event>
<event>
 7    1  0.4723144E-009  0.4778728E+02  0.7816164E-02  0.1312668E+00
        -11   -1    0    0    0    0  0.00000000000E+00  0.00000000000E+00  0.45593999997E+02  0.45594000000E+02  0.51100000000E-03 0.  1.
         11   -1    0    0    0    0 -0.00000000000E+00 -0.00000000000E+00 -0.45593999997E+02  0.45594000000E+02  0.51100000000E-03 0. -1.
    9900012    2    1    2    0    0 -0.31225152677E+02  0.10986161808E+02  0.28069847955E+02  0.47787282550E+02  0.20000052457E+02 0.  0.
         12    1    1    2    0    0  0.31225152677E+02 -0.10986161808E+02 -0.28069847955E+02  0.43400717450E+02  0.00000000000E+00 0. -1.
         11    1    3    3    0    0  0.14565416482E+00  0.34450308583E+01  0.24506541744E+01  0.42302670003E+01  0.51100000000E-03 0. -1.
        -11    1    3    3    0    0 -0.19675981153E+02  0.39447763839E+01  0.69524700528E+01  0.21237757301E+02  0.51100000000E-03 0.  1.
        -12    1    3    3    0    0 -0.11694825689E+02  0.35963545661E+01  0.18666723727E+02  0.22319258249E+02  0.00000000000E+00 0.  1.
</event>
<event>
 7    1  0.4723144E-009  0.4778727E+02  0.7816164E-02  0.1312668E+00
        -11   -1    0    0    0    0  0.00000000000E+00  0.00000000000E+00  0.45593999997E+02  0.45594000000E+02  0.51100000000E-03 0.  1.
         11   -1    0    0    0    0 -0.00000000000E+00 -0.00000000000E+00 -0.45593999997E+02  0.45594000000E+02  0.51100000000E-03 0. -1.
    9900012    2    1    2    0    0  0.24072472851E+01 -0.34965382948E+00  0.43332507370E+02  0.47787270833E+02  0.19999999035E+02 0.  0.
         12    1    1    2    0    0 -0.24072472851E+01  0.34965382948E+00 -0.43332507370E+02  0.43400729167E+02  0.00000000000E+00 0. -1.
         11    1    3    3    0    0  0.47989247095E+01 -0.65582682759E+01  0.10015785869E+02  0.12897927274E+02  0.51100000000E-03 0. -1.
        -11    1    3    3    0    0 -0.51348908576E+01  0.26039856071E+01  0.20624459329E+02  0.21412990637E+02  0.51100000000E-03 0.  1.
         12    1    3    3    0    0  0.27432134332E+01  0.36046288393E+01  0.12692262172E+02  0.13476352921E+02  0.00000000000E+00 0. -1.
</event>
<event>
 7    1  0.4723144E-009  0.4778727E+02  0.7816164E-02  0.1312668E+00
        -11   -1    0    0    0    0  0.00000000000E+00  0.00000000000E+00  0.45593999997E+02  0.45594000000E+02  0.51100000000E-03 0. -1.
         11   -1    0    0    0    0 -0.00000000000E+00 -0.00000000000E+00 -0.45593999997E+02  0.45594000000E+02  0.51100000000E-03 0.  1.
    9900012    2    1    2    0    0  0.21898982245E+02  0.29947111455E+02 -0.22521728977E+02  0.47787272080E+02  0.20000004722E+02 0.  0.
         12    1    1    2    0    0 -0.21898982245E+02 -0.29947111455E+02  0.22521728977E+02  0.43400727920E+02  0.00000000000E+00 0. -1.
         11    1    3    3    0    0  0.21730319338E+02  0.26470351248E+02 -0.18518234957E+02  0.38933421375E+02  0.51100000000E-03 0.  1.
        -11    1    3    3    0    0 -0.19450140671E+01 -0.11407583240E+01  0.19700910471E+00  0.22634535832E+01  0.51100000000E-03 0. -1.
         12    1    3    3    0    0  0.21136769741E+01  0.46175185304E+01 -0.42005031247E+01  0.65903971223E+01  0.00000000000E+00 0. -1.
</event>
<event>
 7    1  0.4723144E-009  0.4778727E+02  0.7816164E-02  0.1312668E+00
        -11   -1    0    0    0    0  0.00000000000E+00  0.00000000000E+00  0.45593999997E+02  0.45594000000E+02  0.51100000000E-03 0.  1.
         11   -1    0    0    0    0 -0.00000000000E+00 -0.00000000000E+00 -0.45593999997E+02  0.45594000000E+02  0.51100000000E-03 0. -1.
    9900012    2    1    2    0    0 -0.17633536542E+02 -0.16754060043E+02  0.35944167804E+02  0.47787270305E+02  0.19999996630E+02 0.  0.
         12    1    1    2    0    0  0.17633536542E+02  0.16754060043E+02 -0.35944167804E+02  0.43400729695E+02  0.00000000000E+00 0. -1.
         11    1    3    3    0    0 -0.11026856860E+02 -0.46825872147E+01  0.10813408869E+02  0.16138401621E+02  0.51100000000E-03 0. -1.
        -11    1    3    3    0    0  0.39257794876E+01 -0.16905023203E+01  0.39762643572E+01  0.58378267514E+01  0.51100000000E-03 0.  1.
        -12    1    3    3    0    0 -0.10532459169E+02 -0.10380970509E+02  0.21154494578E+02  0.25811041933E+02  0.00000000000E+00 0.  1.
</event>
<event>
 7    1  0.4723144E-009  0.4778729E+02  0.7816164E-02  0.1312668E+00
        -11   -1    0    0    0    0  0.00000000000E+00  0.00000000000E+00  0.45593999997E+02  0.45594000000E+02  0.51100000000E-03 0.  1.
         11   -1    0    0    0    0 -0.00000000000E+00 -0.00000000000E+00 -0.45593999997E+02  0.45594000000E+02  0.51100000000E-03 0. -1.
    9900012    2    1    2    0    0  0.31406003794E+02  0.73447802394E+01  0.29040301423E+02  0.47787285976E+02  0.20000068078E+02 0.  0.
         12    1    1    2    0    0 -0.31406003794E+02 -0.73447802394E+01 -0.29040301423E+02  0.43400714024E+02  0.00000000000E+00 0. -1.
         11    1    3    3    0    0  0.15286403570E+02  0.77627167469E+01  0.15602014951E+02  0.23180957188E+02  0.51100000000E-03 0.  1.
        -11    1    3    3    0    0  0.77238613735E+01 -0.25622893930E+01 -0.54480885506E+00  0.81559903384E+01  0.51100000000E-03 0. -1.
         12    1    3    3    0    0  0.83957388507E+01  0.21443528854E+01  0.13983095328E+02  0.16450338449E+02  0.00000000000E+00 0. -1.
</event>
<event>
 7    1  0.4723144E-009  0.4778728E+02  0.7816164E-02  0.1312668E+00
        -11   -1    0    0    0    0  0.00000000000E+00  0.00000000000E+00  0.45593999997E+02  0.45594000000E+02  0.51100000000E-03 0. -1.
         11   -1    0    0    0    0 -0.00000000000E+00 -0.00000000000E+00 -0.45593999997E+02  0.45594000000E+02  0.51100000000E-03 0.  1.
    9900012    2    1    2    0    0  0.33972297291E+02  0.22084768395E+02 -0.15548909634E+02  0.47787279164E+02  0.20000037020E+02 0.  0.
         12    1    1    2    0    0 -0.33972297291E+02 -0.22084768395E+02  0.15548909634E+02  0.43400720836E+02  0.00000000000E+00 0. -1.
         11    1    3    3    0    0  0.12818580929E+02  0.10261297236E+02 -0.12354001769E+02  0.20548274817E+02  0.51100000000E-03 0.  1.
        -11    1    3    3    0    0  0.13886842393E+01  0.35562477529E+01 -0.43447710394E+01  0.57838030432E+01  0.51100000000E-03 0. -1.
         12    1    3    3    0    0  0.19765032123E+02  0.82672234063E+01  0.11498631737E+01  0.21455201304E+02  0.00000000000E+00 0. -1.
</event>
<event>
 7    1  0.4723144E-009  0.4778727E+02  0.7816164E-02  0.1312668E+00
        -11   -1    0    0    0    0  0.00000000000E+00  0.00000000000E+00  0.45593999997E+02  0.45594000000E+02  0.51100000000E-03 0. -1.
         11   -1    0    0    0    0 -0.00000000000E+00 -0.00000000000E+00 -0.45593999997E+02  0.45594000000E+02  0.51100000000E-03 0.  1.
    9900012    2    1    2    0    0 -0.21397434008E+02  0.18852331304E+02 -0.32716396848E+02  0.47787271890E+02  0.20000003857E+02 0.  0.
         12    1    1    2    0    0  0.21397434008E+02 -0.18852331304E+02  0.32716396848E+02  0.43400728110E+02  0.00000000000E+00 0. -1.
         11    1    3    3    0    0 -0.82593328366E+00  0.46050972946E+01 -0.23647584656E+01  0.52422485389E+01  0.51100000000E-03 0. -1.
        -11    1    3    3    0    0 -0.13003170907E+02  0.73869705164E+01 -0.59563083879E+01  0.16097434483E+02  0.51100000000E-03 0.  1.
        -12    1    3    3    0    0 -0.75683298173E+01  0.68602634929E+01 -0.24395329995E+02  0.26447588869E+02  0.00000000000E+00 0.  1.
</event>
<event>
 7    1  0.4723144E-009  0.4778727E+02  0.7816164E-02  0.1312668E+00
        -11   -1    0    0    0    0  0.00000000000E+00  0.00000000000E+00  0.45593999997E+02  0.45594000000E+02  0.51100000000E-03 0.  1.
         11   -1    0    0    0    0 -0.00000000000E+00 -0.00000000000E+00 -0.45593999997E+02  0.45594000000E+02  0.51100000000E-03 0. -1.
    9900012    2    1    2    0    0  0.31555554222E+02  0.14043928656E+02  0.26279996477E+02  0.47787272480E+02  0.20000006547E+02 0.  0.
         12    1    1    2    0    0 -0.31555554222E+02 -0.14043928656E+02 -0.26279996477E+02  0.43400727520E+02  0.00000000000E+00 0. -1.
         11    1    3    3    0    0  0.56906795615E+01  0.10559766731E+02  0.62388782813E+01  0.13520950771E+02  0.51100000000E-03 0. -1.
        -11    1    3    3    0    0  0.47294384629E+01  0.38496190591E+01  0.18349783237E+01  0.63682258741E+01  0.51100000000E-03 0.  1.
         12    1    3    3    0    0  0.21135436198E+02 -0.36545713333E+00  0.18206139872E+02  0.27898095835E+02  0.00000000000E+00 0. -1.
</event>
<event>
 7    1  0.4723144E-009  0.4778727E+02  0.7816164E-02  0.1312668E+00
        -11   -1    0    0    0    0  0.00000000000E+00  0.00000000000E+00  0.45593999997E+02  0.45594000000E+02  0.51100000000E-03 0.  1.
         11   -1    0    0    0    0 -0.00000000000E+00 -0.00000000000E+00 -0.45593999997E+02  0.45594000000E+02  0.51100000000E-03 0. -1.
    9900012    2    1    2    0    0 -0.63587480327E+00  0.42136367250E+02 -0.10380047626E+02  0.47787272236E+02  0.20000005431E+02 0.  0.
         12    1    1    2    0    0  0.63587480327E+00 -0.42136367250E+02  0.10380047626E+02  0.43400727764E+02  0.00000000000E+00 0. -1.
         11    1    3    3    0    0  0.12047983950E+01  0.28517745810E+00  0.33128824283E+00  0.12816464084E+01  0.51100000000E-03 0. -1.
        -11    1    3    3    0    0  0.76008629204E+01  0.17874244431E+02 -0.58215847521E+01  0.20276897702E+02  0.51100000000E-03 0.  1.
        -12    1    3    3    0    0 -0.94415361186E+01  0.23976945360E+02 -0.48897511166E+01  0.26228728125E+02  0.00000000000E+00 0.  1.
</event>
<event>
 7    1  0.4723144E-009  0.4778727E+02  0.7816164E-02  0.1312668E+00
        -11   -1    0    0    0    0  0.00000000000E+00  0.00000000000E+00  0.45593999997E+02  0.45594000000E+02  0.51100000000E-03 0.  1.
         11   -1    0    0    0    0 -0.00000000000E+00 -0.00000000000E+00 -0.45593999997E+02  0.45594000000E+02  0.51100000000E-03 0. -1.
    9900012    2    1    2    0    0  0.14025658272E+02 -0.20523021330E+02  0.35576816621E+02  0.47787269875E+02  0.19999994669E+02 0.  0.
         12    1    1    2    0    0 -0.14025658272E+02  0.20523021330E+02 -0.35576816621E+02  0.43400730125E+02  0.00000000000E+00 0. -1.
         11    1    3    3    0    0  0.46950098869E+01 -0.12555106334E+02  0.48459295992E+01  0.14253310031E+02  0.51100000000E-03 0. -1.
        -11    1    3    3    0    0  0.88648411341E+01 -0.83226487679E+01  0.25286020472E+02  0.28057703442E+02  0.51100000000E-03 0.  1.
         12    1    3    3    0    0  0.46580725059E+00  0.35473377135E+00  0.54448665494E+01  0.54762564024E+01  0.00000000000E+00 0. -1.
</event>
<event>
 7    1  0.4723144E-009  0.4778727E+02  0.7816164E-02  0.1312668E+00
        -11   -1    0    0    0    0  0.00000000000E+00  0.00000000000E+00  0.45593999997E+02  0.45594000000E+02  0.51100000000E-03 0.  1.
         11   -1    0    0    0    0 -0.00000000000E+00 -0.00000000000E+00 -0.45593999997E+02  0.45594000000E+02  0.51100000000E-03 0. -1.
    9900012    2    1    2    0    0 -0.33039918472E+02  0.51189435584E+01  0.27672794132E+02  0.47787270388E+02  0.19999997006E+02 0.  0.
         12    1    1    2    0    0  0.33039918472E+02 -0.51189435584E+01 -0.27672794132E+02  0.43400729612E+02  0.00000000000E+00 0. -1.
         11    1    3    3    0    0 -0.29909566665E+01 -0.49613729097E+01  0.12203036018E+01  0.59203195920E+01  0.51100000000E-03 0. -1.
        -11    1    3    3    0    0 -0.14152823310E+02  0.64184397122E+01  0.89152366316E+01  0.17915920865E+02  0.51100000000E-03 0.  1.
         12    1    3    3    0    0 -0.15896138496E+02  0.36618767559E+01  0.17537253898E+02  0.23951029931E+02  0.00000000000E+00 0. -1.
</event>
<event>
 7    1  0.4723144E-009  0.4778728E+02  0.7816164E-02  0.1312668E+00
        -11   -1    0    0    0    0  0.00000000000E+00  0.00000000000E+00  0.45593999997E+02  0.45594000000E+02  0.51100000000E-03 0.  1.
         11   -1    0    0    0    0 -0.00000000000E+00 -0.00000000000E+00 -0.45593999997E+02  0.45594000000E+02  0.51100000000E-03 0. -1.
    9900012    2    1    2    0    0  0.27439054674E+02 -0.19600179581E+01  0.33569017399E+02  0.47787282023E+02  0.20000050056E+02 0.  0.
         12    1    1    2    0    0 -0.27439054674E+02  0.19600179581E+01 -0.33569017399E+02  0.43400717977E+02  0.00000000000E+00 0. -1.
         11    1    3    3    0    0  0.73841853412E+01  0.59216820851E+01  0.34697486235E+01  0.10081253277E+02  0.51100000000E-03 0. -1.
        -11    1    3    3    0    0  0.19543101542E+02 -0.66407292675E+01  0.29924206774E+02  0.36352307415E+02  0.51100000000E-03 0.  1.
        -12    1    3    3    0    0  0.51176779060E+00 -0.12409707757E+01  0.17506200150E+00  0.13537213310E+01  0.00000000000E+00 0.  1.
</event>
<event>
 7    1  0.4723144E-009  0.4778727E+02  0.7816164E-02  0.1312668E+00
        -11   -1    0    0    0    0  0.00000000000E+00  0.00000000000E+00  0.45593999997E+02  0.45594000000E+02  0.51100000000E-03 0.  1.
         11   -1    0    0    0    0 -0.00000000000E+00 -0.00000000000E+00 -0.45593999997E+02  0.45594000000E+02  0.51100000000E-03 0. -1.
    9900012    2    1    2    0    0  0.64910053565E+01 -0.28553989169E+02  0.32033725472E+02  0.47787274019E+02  0.20000013564E+02 0.  0.
         12    1    1    2    0    0 -0.64910053565E+01  0.28553989169E+02 -0.32033725472E+02  0.43400725981E+02  0.00000000000E+00 0. -1.
         11    1    3    3    0    0  0.13111286821E+01 -0.31485324496E+01  0.48186759986E+00  0.34444900424E+01  0.51100000000E-03 0. -1.
        -11    1    3    3    0    0  0.38766978170E+01 -0.15976252212E+02  0.67403440685E+01  0.17767995360E+02  0.51100000000E-03 0.  1.
        -12    1    3    3    0    0  0.13031788574E+01 -0.94292045078E+01  0.24811513804E+02  0.26574788617E+02  0.00000000000E+00 0.  1.
</event>
<event>
 7    1  0.4723144E-009  0.4778723E+02  0.7816164E-02  0.1312668E+00
        -11   -1    0    0    0    0  0.00000000000E+00  0.00000000000E+00  0.45593999997E+02  0.45594000000E+02  0.51100000000E-03 0.  1.
         11   -1    0    0    0    0 -0.00000000000E+00 -0.00000000000E+00 -0.45593999997E+02  0.45594000000E+02  0.51100000000E-03 0. -1.
    9900012    2    1    2    0    0  0.28186370300E+02 -0.31178886377E+01  0.32854749093E+02  0.47787225373E+02  0.19999791766E+02 0.  0.
         12    1    1    2    0    0 -0.28186370300E+02  0.31178886377E+01 -0.32854749093E+02  0.43400774627E+02  0.00000000000E+00 0. -1.
         11    1    3    3    0    0  0.17479074825E+01  0.50609601530E+00 -0.46717796610E+00  0.18787147886E+01  0.51100000000E-03 0. -1.
        -11    1    3    3    0    0  0.18285833993E+01  0.49794057304E+01  0.38124505970E+01  0.65324557780E+01  0.51100000000E-03 0.  1.
        -12    1    3    3    0    0  0.24609879418E+02 -0.86033903834E+01  0.29509476462E+02  0.39376054807E+02  0.00000000000E+00 0.  1.
</event>
<event>
 7    1  0.4723144E-009  0.4778727E+02  0.7816164E-02  0.1312668E+00
        -11   -1    0    0    0    0  0.00000000000E+00  0.00000000000E+00  0.45593999997E+02  0.45594000000E+02  0.51100000000E-03 0.  1.
         11   -1    0    0    0    0 -0.00000000000E+00 -0.00000000000E+00 -0.45593999997E+02  0.45594000000E+02  0.51100000000E-03 0. -1.
    9900012    2    1    2    0    0  0.19038643386E+02 -0.21736151961E+02  0.32383528807E+02  0.47787272103E+02  0.20000004825E+02 0.  0.
         12    1    1    2    0    0 -0.19038643386E+02  0.21736151961E+02 -0.32383528807E+02  0.43400727897E+02  0.00000000000E+00 0. -1.
         11    1    3    3    0    0 -0.15018354796E+01  0.11833366431E+01  0.13053325051E+01  0.23151001336E+01  0.51100000000E-03 0. -1.
        -11    1    3    3    0    0  0.15502325087E+02 -0.12907840398E+02  0.12369001152E+02  0.23662768575E+02  0.51100000000E-03 0.  1.
        -12    1    3    3    0    0  0.50381537787E+01 -0.10011648205E+02  0.18709195149E+02  0.21809403395E+02  0.00000000000E+00 0.  1.
</event>
<event>
 7    1  0.4723144E-009  0.4778727E+02  0.7816164E-02  0.1312668E+00
        -11   -1    0    0    0    0  0.00000000000E+00  0.00000000000E+00  0.45593999997E+02  0.45594000000E+02  0.51100000000E-03 0.  1.
         11   -1    0    0    0    0 -0.00000000000E+00 -0.00000000000E+00 -0.45593999997E+02  0.45594000000E+02  0.51100000000E-03 0. -1.
    9900012    2    1    2    0    0 -0.85057468674E+01 -0.34976269131E+02  0.24247395249E+02  0.47787270646E+02  0.19999998183E+02 0.  0.
         12    1    1    2    0    0  0.85057468674E+01  0.34976269131E+02 -0.24247395249E+02  0.43400729354E+02  0.00000000000E+00 0. -1.
         11    1    3    3    0    0  0.50659593349E+01 -0.11586659077E+02  0.10034988248E+02  0.16143593217E+02  0.51100000000E-03 0. -1.
        -11    1    3    3    0    0 -0.13886338463E+02 -0.19965356035E+02  0.14284048451E+02  0.28204252834E+02  0.51100000000E-03 0.  1.
        -12    1    3    3    0    0  0.31463226037E+00 -0.34242540197E+01 -0.71641450569E-01  0.34394245955E+01  0.00000000000E+00 0.  1.
</event>
<event>
 7    1  0.4723144E-009  0.4778727E+02  0.7816164E-02  0.1312668E+00
        -11   -1    0    0    0    0  0.00000000000E+00  0.00000000000E+00  0.45593999997E+02  0.45594000000E+02  0.51100000000E-03 0. -1.
         11   -1    0    0    0    0 -0.00000000000E+00 -0.00000000000E+00 -0.45593999997E+02  0.45594000000E+02  0.51100000000E-03 0.  1.
    9900012    2    1    2    0    0  0.35665515712E+02 -0.87115495986E+01 -0.23145258477E+02  0.47787273078E+02  0.20000009271E+02 0.  0.
         12    1    1    2    0    0 -0.35665515712E+02  0.87115495986E+01  0.23145258477E+02  0.43400726922E+02  0.00000000000E+00 0. -1.
         11    1    3    3    0    0  0.15069588928E+01  0.23697475055E+01 -0.13556673046E+01  0.31184070367E+01  0.51100000000E-03 0. -1.
        -11    1    3    3    0    0  0.34337835315E+00 -0.97536393692E+00  0.18995286925E+01  0.21627420136E+01  0.51100000000E-03 0.  1.
        -12    1    3    3    0    0  0.33815178466E+02 -0.10105933167E+02 -0.23689119865E+02  0.42506124027E+02  0.00000000000E+00 0.  1.
</event>
<event>
 7    1  0.4723144E-009  0.4778727E+02  0.7816164E-02  0.1312668E+00
        -11   -1    0    0    0    0  0.00000000000E+00  0.00000000000E+00  0.45593999997E+02  0.45594000000E+02  0.51100000000E-03 0.  1.
         11   -1    0    0    0    0 -0.00000000000E+00 -0.00000000000E+00 -0.45593999997E+02  0.45594000000E+02  0.51100000000E-03 0. -1.
    9900012    2    1    2    0    0 -0.17243758471E+02 -0.27944063938E+02  0.28379660591E+02  0.47787273614E+02  0.20000011717E+02 0.  0.
         12    1    1    2    0    0  0.17243758471E+02  0.27944063938E+02 -0.28379660591E+02  0.43400726386E+02  0.00000000000E+00 0. -1.
         11    1    3    3    0    0 -0.16723877881E+01 -0.66876542495E+01  0.31503970047E+01  0.75793536547E+01  0.51100000000E-03 0. -1.
        -11    1    3    3    0    0 -0.11031921453E+02 -0.63427972978E+01  0.20113145274E+02  0.23800692880E+02  0.51100000000E-03 0.  1.
        -12    1    3    3    0    0 -0.45394492296E+01 -0.14913612390E+02  0.51161183119E+01  0.16407227079E+02  0.00000000000E+00 0.  1.
</event>
<event>
 7    1  0.4723144E-009  0.4778727E+02  0.7816164E-02  0.1312668E+00
        -11   -1    0    0    0    0  0.00000000000E+00  0.00000000000E+00  0.45593999997E+02  0.45594000000E+02  0.51100000000E-03 0.  1.
         11   -1    0    0    0    0 -0.00000000000E+00 -0.00000000000E+00 -0.45593999997E+02  0.45594000000E+02  0.51100000000E-03 0. -1.
    9900012    2    1    2    0    0 -0.20051761339E+02  0.32864212800E+01  0.38350359382E+02  0.47787265417E+02  0.19999974342E+02 0.  0.
         12    1    1    2    0    0  0.20051761339E+02 -0.32864212800E+01 -0.38350359382E+02  0.43400734583E+02  0.00000000000E+00 0. -1.
         11    1    3    3    0    0  0.12417488145E+01 -0.56916558204E+00  0.12966194402E+02  0.13037947964E+02  0.51100000000E-03 0. -1.
        -11    1    3    3    0    0 -0.13771006651E+02  0.64678594552E+01  0.12927361424E+02  0.19964731498E+02  0.51100000000E-03 0.  1.
        -12    1    3    3    0    0 -0.75225035025E+01 -0.26122725931E+01  0.12456803556E+02  0.14784585956E+02  0.00000000000E+00 0.  1.
</event>
<event>
 7    1  0.4723144E-009  0.4778727E+02  0.7816164E-02  0.1312668E+00
        -11   -1    0    0    0    0  0.00000000000E+00  0.00000000000E+00  0.45593999997E+02  0.45594000000E+02  0.51100000000E-03 0.  1.
         11   -1    0    0    0    0 -0.00000000000E+00 -0.00000000000E+00 -0.45593999997E+02  0.45594000000E+02  0.51100000000E-03 0. -1.
    9900012    2    1    2    0    0 -0.40682409478E+02  0.15620012141E+01  0.15037458077E+02  0.47787269198E+02  0.19999991581E+02 0.  0.
         12    1    1    2    0    0  0.40682409478E+02 -0.15620012141E+01 -0.15037458077E+02  0.43400730802E+02  0.00000000000E+00 0. -1.
         11    1    3    3    0    0 -0.25690536508E+01 -0.51909067580E+01 -0.55681508460E+00  0.58185559145E+01  0.51100000000E-03 0. -1.
        -11    1    3    3    0    0 -0.80890975085E+01 -0.37114416729E-01  0.20931345683E+01  0.83556022263E+01  0.51100000000E-03 0.  1.
         12    1    3    3    0    0 -0.30024258319E+02  0.67900223888E+01  0.13501138593E+02  0.33613111057E+02  0.00000000000E+00 0. -1.
</event>
<event>
 7    1  0.4723144E-009  0.4778727E+02  0.7816164E-02  0.1312668E+00
        -11   -1    0    0    0    0  0.00000000000E+00  0.00000000000E+00  0.45593999997E+02  0.45594000000E+02  0.51100000000E-03 0.  1.
         11   -1    0    0    0    0 -0.00000000000E+00 -0.00000000000E+00 -0.45593999997E+02  0.45594000000E+02  0.51100000000E-03 0. -1.
    9900012    2    1    2    0    0  0.33261418994E+02 -0.15732562128E+02  0.23017117077E+02  0.47787272090E+02  0.20000004767E+02 0.  0.
         12    1    1    2    0    0 -0.33261418994E+02  0.15732562128E+02 -0.23017117077E+02  0.43400727910E+02  0.00000000000E+00 0. -1.
         11    1    3    3    0    0  0.88594623822E+01 -0.46079535150E+01 -0.13949595512E+01  0.10083115675E+02  0.51100000000E-03 0. -1.
        -11    1    3    3    0    0  0.17845829596E+02 -0.95789529758E+01  0.23307542866E+02  0.30878334295E+02  0.51100000000E-03 0.  1.
        -12    1    3    3    0    0  0.65561270156E+01 -0.15456556369E+01  0.11045337619E+01  0.68258221208E+01  0.00000000000E+00 0.  1.
</event>
<event>
 7    1  0.4723144E-009  0.4778727E+02  0.7816164E-02  0.1312668E+00
        -11   -1    0    0    0    0  0.00000000000E+00  0.00000000000E+00  0.45593999997E+02  0.45594000000E+02  0.51100000000E-03 0. -1.
         11   -1    0    0    0    0 -0.00000000000E+00 -0.00000000000E+00 -0.45593999997E+02  0.45594000000E+02  0.51100000000E-03 0.  1.
    9900012    2    1    2    0    0 -0.92819699358E+01  0.36800102450E+02 -0.21052819654E+02  0.47787265886E+02  0.19999976482E+02 0.  0.
         12    1    1    2    0    0  0.92819699358E+01 -0.36800102450E+02  0.21052819654E+02  0.43400734114E+02  0.00000000000E+00 0. -1.
         11    1    3    3    0    0 -0.75980718317E+01  0.11991947720E+02 -0.13090140591E+02  0.19310341443E+02  0.51100000000E-03 0. -1.
        -11    1    3    3    0    0  0.40782416395E+01  0.17830154131E+02 -0.54313686573E+01  0.19079995204E+02  0.51100000000E-03 0.  1.
        -12    1    3    3    0    0 -0.57621397436E+01  0.69780005981E+01 -0.25313104063E+01  0.93969292402E+01  0.00000000000E+00 0.  1.
</event>
<event>
 7    1  0.4723144E-009  0.4778727E+02  0.7816164E-02  0.1312668E+00
        -11   -1    0    0    0    0  0.00000000000E+00  0.00000000000E+00  0.45593999997E+02  0.45594000000E+02  0.51100000000E-03 0.  1.
         11   -1    0    0    0    0 -0.00000000000E+00 -0.00000000000E+00 -0.45593999997E+02  0.45594000000E+02  0.51100000000E-03 0. -1.
    9900012    2    1    2    0    0 -0.22776440399E+01 -0.37669698937E+02  0.21434307185E+02  0.47787269535E+02  0.19999993119E+02 0.  0.
         12    1    1    2    0    0  0.22776440399E+01  0.37669698937E+02 -0.21434307185E+02  0.43400730465E+02  0.00000000000E+00 0. -1.
         11    1    3    3    0    0 -0.56941203631E+01 -0.16682964425E+02  0.40851447223E+01  0.18095102000E+02  0.51100000000E-03 0. -1.
        -11    1    3    3    0    0  0.25282476385E+01 -0.17877518174E+02  0.79055549231E+01  0.19710288965E+02  0.51100000000E-03 0.  1.
         12    1    3    3    0    0  0.88822868460E+00 -0.31092163377E+01  0.94436075393E+01  0.99818785701E+01  0.00000000000E+00 0. -1.
</event>
<event>
 7    1  0.4723144E-009  0.4778728E+02  0.7816164E-02  0.1312668E+00
        -11   -1    0    0    0    0  0.00000000000E+00  0.00000000000E+00  0.45593999997E+02  0.45594000000E+02  0.51100000000E-03 0. -1.
         11   -1    0    0    0    0 -0.00000000000E+00 -0.00000000000E+00 -0.45593999997E+02  0.45594000000E+02  0.51100000000E-03 0.  1.
    9900012    2    1    2    0    0  0.17394451729E+02 -0.30558783819E+02 -0.25440450350E+02  0.47787277271E+02  0.20000028387E+02 0.  0.
         12    1    1    2    0    0 -0.17394451729E+02  0.30558783819E+02  0.25440450350E+02  0.43400722729E+02  0.00000000000E+00 0. -1.
         11    1    3    3    0    0  0.32040249817E+00  0.13929348697E+01 -0.31006849928E+00  0.14625553144E+01  0.51100000000E-03 0. -1.
        -11    1    3    3    0    0  0.19259366420E+02 -0.29545820315E+02 -0.20922258296E+02  0.41007555224E+02  0.51100000000E-03 0.  1.
        -12    1    3    3    0    0 -0.21853171898E+01 -0.24058983737E+01 -0.42081235548E+01  0.53171667321E+01  0.00000000000E+00 0.  1.
</event>
<event>
 7    1  0.4723144E-009  0.4778727E+02  0.7816164E-02  0.1312668E+00
        -11   -1    0    0    0    0  0.00000000000E+00  0.00000000000E+00  0.45593999997E+02  0.45594000000E+02  0.51100000000E-03 0.  1.
         11   -1    0    0    0    0 -0.00000000000E+00 -0.00000000000E+00 -0.45593999997E+02  0.45594000000E+02  0.51100000000E-03 0. -1.
    9900012    2    1    2    0    0  0.30011262109E+02  0.10018159236E+02  0.29708321890E+02  0.47787265474E+02  0.19999974602E+02 0.  0.
         12    1    1    2    0    0 -0.30011262109E+02 -0.10018159236E+02 -0.29708321890E+02  0.43400734526E+02  0.00000000000E+00 0. -1.
         11    1    3    3    0    0  0.95793792927E+01 -0.17049499860E+01  0.18712126676E+02  0.21090638849E+02  0.51100000000E-03 0. -1.
        -11    1    3    3    0    0  0.16046123618E+02  0.11702283289E+02  0.81442449654E+01  0.21465093609E+02  0.51100000000E-03 0.  1.
        -12    1    3    3    0    0  0.43857591983E+01  0.20825933735E-01  0.28519502492E+01  0.52315330152E+01  0.00000000000E+00 0.  1.
</event>
<event>
 7    1  0.4723144E-009  0.4778727E+02  0.7816164E-02  0.1312668E+00
        -11   -1    0    0    0    0  0.00000000000E+00  0.00000000000E+00  0.45593999997E+02  0.45594000000E+02  0.51100000000E-03 0. -1.
         11   -1    0    0    0    0 -0.00000000000E+00 -0.00000000000E+00 -0.45593999997E+02  0.45594000000E+02  0.51100000000E-03 0.  1.
    9900012    2    1    2    0    0 -0.11005033131E+02  0.11240953892E+02 -0.40449394329E+02  0.47787270742E+02  0.19999998619E+02 0.  0.
         12    1    1    2    0    0  0.11005033131E+02 -0.11240953892E+02  0.40449394329E+02  0.43400729258E+02  0.00000000000E+00 0. -1.
         11    1    3    3    0    0 -0.18008028514E+01 -0.30487318660E+01 -0.34641443448E+01  0.49535798372E+01  0.51100000000E-03 0. -1.
        -11    1    3    3    0    0 -0.12384235944E+02  0.12668161610E+02 -0.33198865149E+02  0.37629991576E+02  0.51100000000E-03 0.  1.
         12    1    3    3    0    0  0.31800056648E+01  0.16215241475E+01 -0.37863848345E+01  0.52036993287E+01  0.00000000000E+00 0. -1.
</event>
<event>
 7    1  0.4723144E-009  0.4778727E+02  0.7816164E-02  0.1312668E+00
        -11   -1    0    0    0    0  0.00000000000E+00  0.00000000000E+00  0.45593999997E+02  0.45594000000E+02  0.51100000000E-03 0.  1.
         11   -1    0    0    0    0 -0.00000000000E+00 -0.00000000000E+00 -0.45593999997E+02  0.45594000000E+02  0.51100000000E-03 0. -1.
    9900012    2    1    2    0    0  0.21993976837E+01 -0.26769418174E+02  0.34090821085E+02  0.47787272105E+02  0.20000004835E+02 0.  0.
         12    1    1    2    0    0 -0.21993976837E+01  0.26769418174E+02 -0.34090821085E+02  0.43400727895E+02  0.00000000000E+00 0. -1.
         11    1    3    3    0    0  0.11660338311E+01 -0.19177549715E+02  0.12004064022E+02  0.22654703734E+02  0.51100000000E-03 0. -1.
        -11    1    3    3    0    0 -0.20320575043E+00 -0.56409464287E+01  0.22113566805E+02  0.22822607350E+02  0.51100000000E-03 0.  1.
         12    1    3    3    0    0  0.12365696030E+01 -0.19509220304E+01 -0.26809741633E-01  0.23099610200E+01  0.00000000000E+00 0. -1.
</event>
<event>
 7    1  0.4723144E-009  0.4778727E+02  0.7816164E-02  0.1312668E+00
        -11   -1    0    0    0    0  0.00000000000E+00  0.00000000000E+00  0.45593999997E+02  0.45594000000E+02  0.51100000000E-03 0.  1.
         11   -1    0    0    0    0 -0.00000000000E+00 -0.00000000000E+00 -0.45593999997E+02  0.45594000000E+02  0.51100000000E-03 0. -1.
    9900012    2    1    2    0    0  0.32173008728E+02 -0.72838043549E+01  0.28204020673E+02  0.47787273294E+02  0.20000010257E+02 0.  0.
         12    1    1    2    0    0 -0.32173008728E+02  0.72838043549E+01 -0.28204020673E+02  0.43400726706E+02  0.00000000000E+00 0. -1.
         11    1    3    3    0    0  0.11994823189E+02 -0.22298999569E+01  0.18769507224E+01  0.12343872221E+02  0.51100000000E-03 0. -1.
        -11    1    3    3    0    0  0.36785759211E+01 -0.59378180060E+01  0.10136019754E+02  0.12309691312E+02  0.51100000000E-03 0.  1.
        -12    1    3    3    0    0  0.16499609618E+02  0.88391360795E+00  0.16191050196E+02  0.23133709760E+02  0.00000000000E+00 0.  1.
</event>
<event>
 7    1  0.4723144E-009  0.4778728E+02  0.7816164E-02  0.1312668E+00
        -11   -1    0    0    0    0  0.00000000000E+00  0.00000000000E+00  0.45593999997E+02  0.45594000000E+02  0.51100000000E-03 0.  1.
         11   -1    0    0    0    0 -0.00000000000E+00 -0.00000000000E+00 -0.45593999997E+02  0.45594000000E+02  0.51100000000E-03 0. -1.
    9900012    2    1    2    0    0 -0.89944176811E+01  0.29613685436E+02  0.30426188324E+02  0.47787275923E+02  0.20000022244E+02 0.  0.
         12    1    1    2    0    0  0.89944176811E+01 -0.29613685436E+02 -0.30426188324E+02  0.43400724077E+02  0.00000000000E+00 0. -1.
         11    1    3    3    0    0 -0.25204576757E+00  0.11122126600E+02  0.93449378173E+00  0.11164161682E+02  0.51100000000E-03 0. -1.
        -11    1    3    3    0    0 -0.68582220623E+01  0.62177602395E+01  0.11516760633E+02  0.14776045750E+02  0.51100000000E-03 0.  1.
         12    1    3    3    0    0 -0.18841498512E+01  0.12273798596E+02  0.17974933909E+02  0.21847068491E+02  0.00000000000E+00 0. -1.
</event>
<event>
 7    1  0.4723144E-009  0.4778725E+02  0.7816164E-02  0.1312668E+00
        -11   -1    0    0    0    0  0.00000000000E+00  0.00000000000E+00  0.45593999997E+02  0.45594000000E+02  0.51100000000E-03 0.  1.
         11   -1    0    0    0    0 -0.00000000000E+00 -0.00000000000E+00 -0.45593999997E+02  0.45594000000E+02  0.51100000000E-03 0. -1.
    9900012    2    1    2    0    0  0.42233066999E+02 -0.13148479660E+01 -0.99128210754E+01  0.47787253520E+02  0.19999920100E+02 0.  0.
         12    1    1    2    0    0 -0.42233066999E+02  0.13148479660E+01  0.99128210754E+01  0.43400746480E+02  0.00000000000E+00 0. -1.
         11    1    3    3    0    0  0.11145740042E+02  0.34986590972E+01 -0.55733847150E+01  0.12943367182E+02  0.51100000000E-03 0. -1.
        -11    1    3    3    0    0  0.21485096071E+02 -0.91859580947E+01 -0.60941560122E+01  0.24148083093E+02  0.51100000000E-03 0.  1.
        -12    1    3    3    0    0  0.96022308859E+01  0.43724510314E+01  0.17547196518E+01  0.10695803245E+02  0.00000000000E+00 0.  1.
</event>
<event>
 7    1  0.4723144E-009  0.4778727E+02  0.7816164E-02  0.1312668E+00
        -11   -1    0    0    0    0  0.00000000000E+00  0.00000000000E+00  0.45593999997E+02  0.45594000000E+02  0.51100000000E-03 0.  1.
         11   -1    0    0    0    0 -0.00000000000E+00 -0.00000000000E+00 -0.45593999997E+02  0.45594000000E+02  0.51100000000E-03 0. -1.
    9900012    2    1    2    0    0 -0.39339586796E+02  0.17128090789E+01  0.18250656359E+02  0.47787271184E+02  0.20000000635E+02 0.  0.
         12    1    1    2    0    0  0.39339586796E+02 -0.17128090789E+01 -0.18250656359E+02  0.43400728816E+02  0.00000000000E+00 0. -1.
         11    1    3    3    0    0 -0.51467532910E+01 -0.39798543026E+01  0.32353895940E+01  0.72660894430E+01  0.51100000000E-03 0. -1.
        -11    1    3    3    0    0 -0.27267403375E+02  0.88943766548E+01  0.71412795658E+01  0.29557048178E+02  0.51100000000E-03 0.  1.
        -12    1    3    3    0    0 -0.69254301305E+01 -0.32017132733E+01  0.78739871990E+01  0.10964133563E+02  0.00000000000E+00 0.  1.
</event>
<event>
 7    1  0.4723144E-009  0.4778728E+02  0.7816164E-02  0.1312668E+00
        -11   -1    0    0    0    0  0.00000000000E+00  0.00000000000E+00  0.45593999997E+02  0.45594000000E+02  0.51100000000E-03 0.  1.
         11   -1    0    0    0    0 -0.00000000000E+00 -0.00000000000E+00 -0.45593999997E+02  0.45594000000E+02  0.51100000000E-03 0. -1.
    9900012    2    1    2    0    0  0.14142552856E+00  0.26695868425E+02  0.34218905611E+02  0.47787275428E+02  0.20000019987E+02 0.  0.
         12    1    1    2    0    0 -0.14142552856E+00 -0.26695868425E+02 -0.34218905611E+02  0.43400724572E+02  0.00000000000E+00 0. -1.
         11    1    3    3    0    0 -0.14488735531E+01  0.27256986163E+01  0.22508752153E+01  0.38203543050E+01  0.51100000000E-03 0. -1.
        -11    1    3    3    0    0  0.83850700974E+01  0.10314273020E+02  0.78710374779E+01  0.15448199238E+02  0.51100000000E-03 0.  1.
        -12    1    3    3    0    0 -0.67947710157E+01  0.13655896789E+02  0.24096992918E+02  0.28518721885E+02  0.00000000000E+00 0.  1.
</event>
<event>
 7    1  0.4723144E-009  0.4778726E+02  0.7816164E-02  0.1312668E+00
        -11   -1    0    0    0    0  0.00000000000E+00  0.00000000000E+00  0.45593999997E+02  0.45594000000E+02  0.51100000000E-03 0.  1.
         11   -1    0    0    0    0 -0.00000000000E+00 -0.00000000000E+00 -0.45593999997E+02  0.45594000000E+02  0.51100000000E-03 0. -1.
    9900012    2    1    2    0    0  0.26675183542E+02  0.14899230877E+02  0.30823235018E+02  0.47787259054E+02  0.19999945329E+02 0.  0.
         12    1    1    2    0    0 -0.26675183542E+02 -0.14899230877E+02 -0.30823235018E+02  0.43400740946E+02  0.00000000000E+00 0. -1.
         11    1    3    3    0    0  0.22183731806E+01  0.81501624675E+01  0.10299124524E+02  0.13319845872E+02  0.51100000000E-03 0. -1.
        -11    1    3    3    0    0  0.24081676930E+02  0.84634998101E+01  0.17425787784E+02  0.30906570061E+02  0.51100000000E-03 0.  1.
        -12    1    3    3    0    0  0.37513343152E+00 -0.17144314004E+01  0.30983227093E+01  0.35608431206E+01  0.00000000000E+00 0.  1.
</event>
<event>
 7    1  0.4723144E-009  0.4778727E+02  0.7816164E-02  0.1312668E+00
        -11   -1    0    0    0    0  0.00000000000E+00  0.00000000000E+00  0.45593999997E+02  0.45594000000E+02  0.51100000000E-03 0. -1.
         11   -1    0    0    0    0 -0.00000000000E+00 -0.00000000000E+00 -0.45593999997E+02  0.45594000000E+02  0.51100000000E-03 0.  1.
    9900012    2    1    2    0    0 -0.32914465082E+02  0.18785086815E+02 -0.21151400119E+02  0.47787271604E+02  0.20000002550E+02 0.  0.
         12    1    1    2    0    0  0.32914465082E+02 -0.18785086815E+02  0.21151400119E+02  0.43400728396E+02  0.00000000000E+00 0. -1.
         11    1    3    3    0    0 -0.35631216802E+01  0.10934774180E+02 -0.66425501698E+01  0.13281136830E+02  0.51100000000E-03 0. -1.
        -11    1    3    3    0    0 -0.13590176692E+02  0.37203118295E+01 -0.10909649393E+02  0.17820046935E+02  0.51100000000E-03 0.  1.
         12    1    3    3    0    0 -0.15761166710E+02  0.41300008055E+01 -0.35992005569E+01  0.16686087839E+02  0.00000000000E+00 0. -1.
</event>
<event>
 7    1  0.4723144E-009  0.4778727E+02  0.7816164E-02  0.1312668E+00
        -11   -1    0    0    0    0  0.00000000000E+00  0.00000000000E+00  0.45593999997E+02  0.45594000000E+02  0.51100000000E-03 0. -1.
         11   -1    0    0    0    0 -0.00000000000E+00 -0.00000000000E+00 -0.45593999997E+02  0.45594000000E+02  0.51100000000E-03 0.  1.
    9900012    2    1    2    0    0  0.13449779677E+02  0.34757283099E+02  0.22240916106E+02  0.47787266699E+02  0.19999980189E+02 0.  0.
         12    1    1    2    0    0 -0.13449779677E+02 -0.34757283099E+02 -0.22240916106E+02  0.43400733301E+02  0.00000000000E+00 0. -1.
         11    1    3    3    0    0  0.51241018404E+01  0.59023102133E+00  0.79255465362E+01  0.94561662680E+01  0.51100000000E-03 0. -1.
        -11    1    3    3    0    0  0.13047099092E+01  0.11945188793E+02  0.28067030370E+01  0.12339667153E+02  0.51100000000E-03 0.  1.
         12    1    3    3    0    0  0.70209679272E+01  0.22221863285E+02  0.11508666533E+02  0.25991433279E+02  0.00000000000E+00 0. -1.
</event>
<event>
 7    1  0.4723144E-009  0.4778727E+02  0.7816164E-02  0.1312668E+00
        -11   -1    0    0    0    0  0.00000000000E+00  0.00000000000E+00  0.45593999997E+02  0.45594000000E+02  0.51100000000E-03 0. -1.
         11   -1    0    0    0    0 -0.00000000000E+00 -0.00000000000E+00 -0.45593999997E+02  0.45594000000E+02  0.51100000000E-03 0.  1.
    9900012    2    1    2    0    0  0.36908669459E+02  0.20489948333E+02 -0.10076465896E+02  0.47787273867E+02  0.20000012869E+02 0.  0.
         12    1    1    2    0    0 -0.36908669459E+02 -0.20489948333E+02  0.10076465896E+02  0.43400726133E+02  0.00000000000E+00 0. -1.
         11    1    3    3    0    0 -0.16474035430E-01 -0.17926507213E+00 -0.35244732439E+00  0.39576096008E+00  0.51100000000E-03 0. -1.
        -11    1    3    3    0    0  0.27092693335E+02  0.23548536859E+02 -0.95486611677E+01  0.37144643634E+02  0.51100000000E-03 0.  1.
        -12    1    3    3    0    0  0.98324501589E+01 -0.28793234534E+01 -0.17535740380E+00  0.10246869273E+02  0.00000000000E+00 0.  1.
</event>
<event>
 7    1  0.4723144E-009  0.4778727E+02  0.7816164E-02  0.1312668E+00
        -11   -1    0    0    0    0  0.00000000000E+00  0.00000000000E+00  0.45593999997E+02  0.45594000000E+02  0.51100000000E-03 0.  1.
         11   -1    0    0    0    0 -0.00000000000E+00 -0.00000000000E+00 -0.45593999997E+02  0.45594000000E+02  0.51100000000E-03 0. -1.
    9900012    2    1    2    0    0  0.16411200550E+02  0.21980829617E+02  0.33632411651E+02  0.47787268582E+02  0.19999988772E+02 0.  0.
         12    1    1    2    0    0 -0.16411200550E+02 -0.21980829617E+02 -0.33632411651E+02  0.43400731418E+02  0.00000000000E+00 0. -1.
         11    1    3    3    0    0  0.10672342502E+02  0.92733330446E+01  0.54378758642E+01  0.15148072300E+02  0.51100000000E-03 0. -1.
        -11    1    3    3    0    0  0.41089405475E+01  0.12122891350E+01  0.11770510911E+02  0.12525891774E+02  0.51100000000E-03 0.  1.
         12    1    3    3    0    0  0.16299175007E+01  0.11495207438E+02  0.16424024876E+02  0.20113304508E+02  0.00000000000E+00 0. -1.
</event>
<event>
 7    1  0.4723144E-009  0.4778729E+02  0.7816164E-02  0.1312668E+00
        -11   -1    0    0    0    0  0.00000000000E+00  0.00000000000E+00  0.45593999997E+02  0.45594000000E+02  0.51100000000E-03 0.  1.
         11   -1    0    0    0    0 -0.00000000000E+00 -0.00000000000E+00 -0.45593999997E+02  0.45594000000E+02  0.51100000000E-03 0. -1.
    9900012    2    1    2    0    0 -0.12392711535E+02  0.38076712717E+02  0.16739373157E+02  0.47787286132E+02  0.20000068792E+02 0.  0.
         12    1    1    2    0    0  0.12392711535E+02 -0.38076712717E+02 -0.16739373157E+02  0.43400713868E+02  0.00000000000E+00 0. -1.
         11    1    3    3    0    0 -0.35995355377E+01  0.17518352479E+01  0.46259669073E+00  0.40298360739E+01  0.51100000000E-03 0. -1.
        -11    1    3    3    0    0 -0.10160357715E+02  0.30239242133E+02  0.71319964068E+01  0.32688071321E+02  0.51100000000E-03 0.  1.
        -12    1    3    3    0    0  0.13671817184E+01  0.60856353363E+01  0.91447800595E+01  0.11069378738E+02  0.00000000000E+00 0.  1.
</event>
<event>
 7    1  0.4723144E-009  0.4778727E+02  0.7816164E-02  0.1312668E+00
        -11   -1    0    0    0    0  0.00000000000E+00  0.00000000000E+00  0.45593999997E+02  0.45594000000E+02  0.51100000000E-03 0.  1.
         11   -1    0    0    0    0 -0.00000000000E+00 -0.00000000000E+00 -0.45593999997E+02  0.45594000000E+02  0.51100000000E-03 0. -1.
    9900012    2    1    2    0    0 -0.20224552257E+01 -0.35946535857E+02  0.24235911347E+02  0.47787272309E+02  0.20000005765E+02 0.  0.
         12    1    1    2    0    0  0.20224552257E+01  0.35946535857E+02 -0.24235911347E+02  0.43400727691E+02  0.00000000000E+00 0. -1.
         11    1    3    3    0    0 -0.32853509642E+01 -0.30695439594E+02  0.19080786462E+02  0.36291596205E+02  0.51100000000E-03 0. -1.
        -11    1    3    3    0    0  0.34590465025E+01 -0.49183118754E+01  0.65352924490E+01  0.88805879346E+01  0.51100000000E-03 0.  1.
         12    1    3    3    0    0 -0.21961507640E+01 -0.33278438746E+00 -0.13801675640E+01  0.26150881690E+01  0.00000000000E+00 0. -1.
</event>
<event>
 7    1  0.4723144E-009  0.4778727E+02  0.7816164E-02  0.1312668E+00
        -11   -1    0    0    0    0  0.00000000000E+00  0.00000000000E+00  0.45593999997E+02  0.45594000000E+02  0.51100000000E-03 0.  1.
         11   -1    0    0    0    0 -0.00000000000E+00 -0.00000000000E+00 -0.45593999997E+02  0.45594000000E+02  0.51100000000E-03 0. -1.
    9900012    2    1    2    0    0  0.13609761793E+02 -0.27727980086E+02  0.30488641513E+02  0.47787265478E+02  0.19999974621E+02 0.  0.
         12    1    1    2    0    0 -0.13609761793E+02  0.27727980086E+02 -0.30488641513E+02  0.43400734522E+02  0.00000000000E+00 0. -1.
         11    1    3    3    0    0 -0.76703264737E+00 -0.85187242114E+01  0.12241459187E+02  0.14933530211E+02  0.51100000000E-03 0. -1.
        -11    1    3    3    0    0  0.16240366962E+01 -0.11612784046E+02  0.11910665811E+02  0.16714012350E+02  0.51100000000E-03 0.  1.
        -12    1    3    3    0    0  0.12752757744E+02 -0.75964718289E+01  0.63365165150E+01  0.16139722918E+02  0.00000000000E+00 0.  1.
</event>
<event>
 7    1  0.4723144E-009  0.4778727E+02  0.7816164E-02  0.1312668E+00
        -11   -1    0    0    0    0  0.00000000000E+00  0.00000000000E+00  0.45593999997E+02  0.45594000000E+02  0.51100000000E-03 0.  1.
         11   -1    0    0    0    0 -0.00000000000E+00 -0.00000000000E+00 -0.45593999997E+02  0.45594000000E+02  0.51100000000E-03 0. -1.
    9900012    2    1    2    0    0 -0.30106032541E+02 -0.30994694397E+02  0.40717107217E+01  0.47787272998E+02  0.20000008908E+02 0.  0.
         12    1    1    2    0    0  0.30106032541E+02  0.30994694397E+02 -0.40717107217E+01  0.43400727002E+02  0.00000000000E+00 0. -1.
         11    1    3    3    0    0 -0.44100514431E+01 -0.16886963571E+02  0.80633784533E+00  0.17471928152E+02  0.51100000000E-03 0. -1.
        -11    1    3    3    0    0 -0.16794175606E+02 -0.12840013772E+02  0.25916348123E+01  0.21298517770E+02  0.51100000000E-03 0.  1.
         12    1    3    3    0    0 -0.89018054918E+01 -0.12677170543E+01  0.67373806410E+00  0.90168270763E+01  0.00000000000E+00 0. -1.
</event>
<event>
 7    1  0.4723144E-009  0.4778727E+02  0.7816164E-02  0.1312668E+00
        -11   -1    0    0    0    0  0.00000000000E+00  0.00000000000E+00  0.45593999997E+02  0.45594000000E+02  0.51100000000E-03 0.  1.
         11   -1    0    0    0    0 -0.00000000000E+00 -0.00000000000E+00 -0.45593999997E+02  0.45594000000E+02  0.51100000000E-03 0. -1.
    9900012    2    1    2    0    0 -0.31050260078E+01 -0.16462186765E+02  0.40037213954E+02  0.47787270965E+02  0.19999999638E+02 0.  0.
         12    1    1    2    0    0  0.31050260078E+01  0.16462186765E+02 -0.40037213954E+02  0.43400729035E+02  0.00000000000E+00 0. -1.
         11    1    3    3    0    0  0.56890501016E+01 -0.10692364851E+01  0.14521046497E+02  0.15632317465E+02  0.51100000000E-03 0. -1.
        -11    1    3    3    0    0 -0.46415475666E+01 -0.14404056004E+02  0.18050275697E+02  0.23554898560E+02  0.51100000000E-03 0.  1.
        -12    1    3    3    0    0 -0.41525285428E+01 -0.98889427554E+00  0.74658917603E+01  0.86000549396E+01  0.00000000000E+00 0.  1.
</event>
<event>
 7    1  0.4723144E-009  0.4778727E+02  0.7816164E-02  0.1312668E+00
        -11   -1    0    0    0    0  0.00000000000E+00  0.00000000000E+00  0.45593999997E+02  0.45594000000E+02  0.51100000000E-03 0.  1.
         11   -1    0    0    0    0 -0.00000000000E+00 -0.00000000000E+00 -0.45593999997E+02  0.45594000000E+02  0.51100000000E-03 0. -1.
    9900012    2    1    2    0    0  0.97027223660E+01 -0.27529737838E+02  0.32118436299E+02  0.47787271469E+02  0.20000001935E+02 0.  0.
         12    1    1    2    0    0 -0.97027223660E+01  0.27529737838E+02 -0.32118436299E+02  0.43400728531E+02  0.00000000000E+00 0. -1.
         11    1    3    3    0    0  0.39972047181E+00 -0.27523523390E-01 -0.15051059278E+00  0.42800432193E+00  0.51100000000E-03 0. -1.
        -11    1    3    3    0    0  0.47723130736E+01  0.11576395783E+01  0.86459781761E+01  0.99432409378E+01  0.51100000000E-03 0.  1.
        -12    1    3    3    0    0  0.45306888206E+01 -0.28659853893E+02  0.23622968716E+02  0.37416026209E+02  0.00000000000E+00 0.  1.
</event>
<event>
 7    1  0.4723144E-009  0.4778727E+02  0.7816164E-02  0.1312668E+00
        -11   -1    0    0    0    0  0.00000000000E+00  0.00000000000E+00  0.45593999997E+02  0.45594000000E+02  0.51100000000E-03 0.  1.
         11   -1    0    0    0    0 -0.00000000000E+00 -0.00000000000E+00 -0.45593999997E+02  0.45594000000E+02  0.51100000000E-03 0. -1.
    9900012    2    1    2    0    0 -0.14966876994E+01  0.36439939179E+02  0.23526872126E+02  0.47787274735E+02  0.20000016829E+02 0.  0.
         12    1    1    2    0    0  0.14966876994E+01 -0.36439939179E+02 -0.23526872126E+02  0.43400725265E+02  0.00000000000E+00 0. -1.
         11    1    3    3    0    0 -0.32170549362E+01 -0.99048725093E+00  0.30620999487E+01  0.45504905026E+01  0.51100000000E-03 0. -1.
        -11    1    3    3    0    0  0.34310009962E+01  0.27198101167E+02  0.17191802001E+02  0.32358407427E+02  0.51100000000E-03 0.  1.
         12    1    3    3    0    0 -0.17106337594E+01  0.10232325263E+02  0.32729701763E+01  0.10878376806E+02  0.00000000000E+00 0. -1.
</event>
<event>
 7    1  0.4723144E-009  0.4778727E+02  0.7816164E-02  0.1312668E+00
        -11   -1    0    0    0    0  0.00000000000E+00  0.00000000000E+00  0.45593999997E+02  0.45594000000E+02  0.51100000000E-03 0.  1.
         11   -1    0    0    0    0 -0.00000000000E+00 -0.00000000000E+00 -0.45593999997E+02  0.45594000000E+02  0.51100000000E-03 0. -1.
    9900012    2    1    2    0    0 -0.31171285061E+02  0.18383144764E+01  0.30142914733E+02  0.47787265892E+02  0.19999976509E+02 0.  0.
         12    1    1    2    0    0  0.31171285061E+02 -0.18383144764E+01 -0.30142914733E+02  0.43400734108E+02  0.00000000000E+00 0. -1.
         11    1    3    3    0    0 -0.34104673355E+01 -0.28355126061E+01 -0.13527160634E+01  0.46369451361E+01  0.51100000000E-03 0. -1.
        -11    1    3    3    0    0 -0.24215778654E+02  0.89489796017E+00  0.27115211316E+02  0.36365360760E+02  0.51100000000E-03 0.  1.
         12    1    3    3    0    0 -0.35450390715E+01  0.37789291223E+01  0.43804194802E+01  0.67849599963E+01  0.00000000000E+00 0. -1.
</event>
<event>
 7    1  0.4723144E-009  0.4778726E+02  0.7816164E-02  0.1312668E+00
        -11   -1    0    0    0    0  0.00000000000E+00  0.00000000000E+00  0.45593999997E+02  0.45594000000E+02  0.51100000000E-03 0.  1.
         11   -1    0    0    0    0 -0.00000000000E+00 -0.00000000000E+00 -0.45593999997E+02  0.45594000000E+02  0.51100000000E-03 0. -1.
    9900012    2    1    2    0    0 -0.36419873439E+02  0.23094689936E+02 -0.48838490766E+01  0.47787264219E+02  0.19999968879E+02 0.  0.
         12    1    1    2    0    0  0.36419873439E+02 -0.23094689936E+02  0.48838490766E+01  0.43400735781E+02  0.00000000000E+00 0. -1.
         11    1    3    3    0    0  0.12365363457E+01  0.22872845872E+01 -0.22464936712E+01  0.34361936780E+01  0.51100000000E-03 0. -1.
        -11    1    3    3    0    0 -0.19533641134E+02  0.52638148867E+01 -0.31263998358E+01  0.20470594991E+02  0.51100000000E-03 0.  1.
         12    1    3    3    0    0 -0.18122768651E+02  0.15543590462E+02  0.48904443038E+00  0.23880475550E+02  0.00000000000E+00 0. -1.
</event>
<event>
 7    1  0.4723144E-009  0.4778727E+02  0.7816164E-02  0.1312668E+00
        -11   -1    0    0    0    0  0.00000000000E+00  0.00000000000E+00  0.45593999997E+02  0.45594000000E+02  0.51100000000E-03 0. -1.
         11   -1    0    0    0    0 -0.00000000000E+00 -0.00000000000E+00 -0.45593999997E+02  0.45594000000E+02  0.51100000000E-03 0.  1.
    9900012    2    1    2    0    0  0.27772207455E+02  0.63536051557E+01 -0.32740787277E+02  0.47787274695E+02  0.20000016646E+02 0.  0.
         12    1    1    2    0    0 -0.27772207455E+02 -0.63536051557E+01  0.32740787277E+02  0.43400725305E+02  0.00000000000E+00 0. -1.
         11    1    3    3    0    0  0.16276064622E+01  0.41247869740E+01 -0.31255217861E+01  0.54251135540E+01  0.51100000000E-03 0. -1.
        -11    1    3    3    0    0  0.17033696788E+02 -0.19590872303E+01 -0.88334210268E+01  0.19287669023E+02  0.51100000000E-03 0.  1.
        -12    1    3    3    0    0  0.91109042050E+01  0.41879054120E+01 -0.20781844464E+02  0.23074492118E+02  0.00000000000E+00 0.  1.
</event>
<event>
 7    1  0.4723144E-009  0.4778727E+02  0.7816164E-02  0.1312668E+00
        -11   -1    0    0    0    0  0.00000000000E+00  0.00000000000E+00  0.45593999997E+02  0.45594000000E+02  0.51100000000E-03 0.  1.
         11   -1    0    0    0    0 -0.00000000000E+00 -0.00000000000E+00 -0.45593999997E+02  0.45594000000E+02  0.51100000000E-03 0. -1.
    9900012    2    1    2    0    0 -0.19317597000E+02  0.17086905714E+02  0.34906897461E+02  0.47787269694E+02  0.19999993845E+02 0.  0.
         12    1    1    2    0    0  0.19317597000E+02 -0.17086905714E+02 -0.34906897461E+02  0.43400730306E+02  0.00000000000E+00 0. -1.
         11    1    3    3    0    0 -0.88562477320E+01  0.21558908652E+01  0.21570582242E+02  0.23417322815E+02  0.51100000000E-03 0. -1.
        -11    1    3    3    0    0 -0.47371235892E+01  0.97019083744E+01  0.12583400576E+02  0.16580390114E+02  0.51100000000E-03 0.  1.
         12    1    3    3    0    0 -0.57242256786E+01  0.52291064744E+01  0.75291464256E+00  0.77895567653E+01  0.00000000000E+00 0. -1.
</event>
<event>
 7    1  0.4723144E-009  0.4778727E+02  0.7816164E-02  0.1312668E+00
        -11   -1    0    0    0    0  0.00000000000E+00  0.00000000000E+00  0.45593999997E+02  0.45594000000E+02  0.51100000000E-03 0.  1.
         11   -1    0    0    0    0 -0.00000000000E+00 -0.00000000000E+00 -0.45593999997E+02  0.45594000000E+02  0.51100000000E-03 0. -1.
    9900012    2    1    2    0    0  0.73525496872E+01  0.51443892256E+01  0.42462911067E+02  0.47787267936E+02  0.19999985826E+02 0.  0.
         12    1    1    2    0    0 -0.73525496872E+01 -0.51443892256E+01 -0.42462911067E+02  0.43400732064E+02  0.00000000000E+00 0. -1.
         11    1    3    3    0    0  0.37459449303E+01 -0.44904888580E+01  0.25232067289E+02  0.25900845808E+02  0.51100000000E-03 0. -1.
        -11    1    3    3    0    0  0.54743836516E+01  0.34995024977E+01  0.11851666095E+02  0.13515819753E+02  0.51100000000E-03 0.  1.
         12    1    3    3    0    0 -0.18677788948E+01  0.61353755859E+01  0.53791776833E+01  0.83706023755E+01  0.00000000000E+00 0. -1.
</event>
<event>
 7    1  0.4723144E-009  0.4778727E+02  0.7816164E-02  0.1312668E+00
        -11   -1    0    0    0    0  0.00000000000E+00  0.00000000000E+00  0.45593999997E+02  0.45594000000E+02  0.51100000000E-03 0.  1.
         11   -1    0    0    0    0 -0.00000000000E+00 -0.00000000000E+00 -0.45593999997E+02  0.45594000000E+02  0.51100000000E-03 0. -1.
    9900012    2    1    2    0    0  0.12129869046E+01 -0.24501902807E+01  0.43314535039E+02  0.47787265959E+02  0.19999976813E+02 0.  0.
         12    1    1    2    0    0 -0.12129869046E+01  0.24501902807E+01 -0.43314535039E+02  0.43400734041E+02  0.00000000000E+00 0. -1.
         11    1    3    3    0    0 -0.27972806044E+01 -0.16182669364E+01 -0.17484908099E-01  0.32316981048E+01  0.51100000000E-03 0. -1.
        -11    1    3    3    0    0  0.16354626407E+01 -0.50459966866E+01  0.27265109809E+02  0.27776303457E+02  0.51100000000E-03 0.  1.
         12    1    3    3    0    0  0.23748048682E+01  0.42140733423E+01  0.16066910138E+02  0.16779264397E+02  0.00000000000E+00 0. -1.
</event>
<event>
 7    1  0.4723144E-009  0.4778727E+02  0.7816164E-02  0.1312668E+00
        -11   -1    0    0    0    0  0.00000000000E+00  0.00000000000E+00  0.45593999997E+02  0.45594000000E+02  0.51100000000E-03 0.  1.
         11   -1    0    0    0    0 -0.00000000000E+00 -0.00000000000E+00 -0.45593999997E+02  0.45594000000E+02  0.51100000000E-03 0. -1.
    9900012    2    1    2    0    0 -0.34315283665E+02 -0.18926063777E+02  0.18651770645E+02  0.47787272687E+02  0.20000007489E+02 0.  0.
         12    1    1    2    0    0  0.34315283665E+02  0.18926063777E+02 -0.18651770645E+02  0.43400727313E+02  0.00000000000E+00 0. -1.
         11    1    3    3    0    0 -0.11590534425E+02 -0.10458290165E+02  0.16514507030E+02  0.22725432100E+02  0.51100000000E-03 0.  1.
        -11    1    3    3    0    0 -0.22494113045E+02 -0.90030605902E+01  0.16207649646E+01  0.24283062019E+02  0.51100000000E-03 0. -1.
         12    1    3    3    0    0 -0.23063619513E+00  0.53528697778E+00  0.51649865035E+00  0.77877856859E+00  0.00000000000E+00 0. -1.
</event>
<event>
 7    1  0.4723144E-009  0.4778727E+02  0.7816164E-02  0.1312668E+00
        -11   -1    0    0    0    0  0.00000000000E+00  0.00000000000E+00  0.45593999997E+02  0.45594000000E+02  0.51100000000E-03 0. -1.
         11   -1    0    0    0    0 -0.00000000000E+00 -0.00000000000E+00 -0.45593999997E+02  0.45594000000E+02  0.51100000000E-03 0.  1.
    9900012    2    1    2    0    0  0.20143303243E+02  0.32020184625E+02 -0.21273891795E+02  0.47787270040E+02  0.19999995420E+02 0.  0.
         12    1    1    2    0    0 -0.20143303243E+02 -0.32020184625E+02  0.21273891795E+02  0.43400729960E+02  0.00000000000E+00 0. -1.
         11    1    3    3    0    0  0.13744163268E+02  0.71512584800E+01 -0.10484537986E+02  0.18707433251E+02  0.51100000000E-03 0. -1.
        -11    1    3    3    0    0  0.80731831466E+01  0.18132464696E+02 -0.95587070989E+01  0.22030239302E+02  0.51100000000E-03 0.  1.
         12    1    3    3    0    0 -0.16740431716E+01  0.67364614495E+01 -0.12306467096E+01  0.70495974867E+01  0.00000000000E+00 0. -1.
</event>
<event>
 7    1  0.4723144E-009  0.4778726E+02  0.7816164E-02  0.1312668E+00
        -11   -1    0    0    0    0  0.00000000000E+00  0.00000000000E+00  0.45593999997E+02  0.45594000000E+02  0.51100000000E-03 0.  1.
         11   -1    0    0    0    0 -0.00000000000E+00 -0.00000000000E+00 -0.45593999997E+02  0.45594000000E+02  0.51100000000E-03 0. -1.
    9900012    2    1    2    0    0 -0.17509664842E+02  0.85349474599E+01  0.38783895750E+02  0.47787259677E+02  0.19999948173E+02 0.  0.
         12    1    1    2    0    0  0.17509664842E+02 -0.85349474599E+01 -0.38783895750E+02  0.43400740323E+02  0.00000000000E+00 0. -1.
         11    1    3    3    0    0 -0.46984681661E+01  0.82002014945E+01  0.17235029558E+02  0.19656173376E+02  0.51100000000E-03 0. -1.
        -11    1    3    3    0    0 -0.72637477739E+01  0.10484027933E+01  0.17328129091E+01  0.75408103662E+01  0.51100000000E-03 0.  1.
        -12    1    3    3    0    0 -0.55474489023E+01 -0.71365682792E+00  0.19816053283E+02  0.20590275935E+02  0.00000000000E+00 0.  1.
</event>
<event>
 7    1  0.4723144E-009  0.4778727E+02  0.7816164E-02  0.1312668E+00
        -11   -1    0    0    0    0  0.00000000000E+00  0.00000000000E+00  0.45593999997E+02  0.45594000000E+02  0.51100000000E-03 0.  1.
         11   -1    0    0    0    0 -0.00000000000E+00 -0.00000000000E+00 -0.45593999997E+02  0.45594000000E+02  0.51100000000E-03 0. -1.
    9900012    2    1    2    0    0  0.25305256750E+02 -0.15292227493E+01  0.35226819049E+02  0.47787270494E+02  0.19999997489E+02 0.  0.
         12    1    1    2    0    0 -0.25305256750E+02  0.15292227493E+01 -0.35226819049E+02  0.43400729506E+02  0.00000000000E+00 0. -1.
         11    1    3    3    0    0  0.85753999541E+01 -0.64852165905E+01  0.22465993117E+02  0.24906151160E+02  0.51100000000E-03 0. -1.
        -11    1    3    3    0    0  0.12952253318E+02  0.42716693124E+01  0.13245118608E+02  0.19011606769E+02  0.51100000000E-03 0.  1.
         12    1    3    3    0    0  0.37776034777E+01  0.68432452876E+00 -0.48429267656E+00  0.38695125651E+01  0.00000000000E+00 0. -1.
</event>
<event>
 7    1  0.4723144E-009  0.4778728E+02  0.7816164E-02  0.1312668E+00
        -11   -1    0    0    0    0  0.00000000000E+00  0.00000000000E+00  0.45593999997E+02  0.45594000000E+02  0.51100000000E-03 0.  1.
         11   -1    0    0    0    0 -0.00000000000E+00 -0.00000000000E+00 -0.45593999997E+02  0.45594000000E+02  0.51100000000E-03 0. -1.
    9900012    2    1    2    0    0 -0.40225190874E+02  0.14976049977E+02  0.64245417875E+01  0.47787276609E+02  0.20000025369E+02 0.  0.
         12    1    1    2    0    0  0.40225190874E+02 -0.14976049977E+02 -0.64245417875E+01  0.43400723391E+02  0.00000000000E+00 0. -1.
         11    1    3    3    0    0 -0.63630042125E+01  0.53118289032E-01 -0.30886082130E+01  0.70731990722E+01  0.51100000000E-03 0. -1.
        -11    1    3    3    0    0 -0.27871887940E+02  0.13331655248E+02  0.13093597527E+02  0.33556183715E+02  0.51100000000E-03 0.  1.
        -12    1    3    3    0    0 -0.59902987207E+01  0.15912764395E+01 -0.35804475268E+01  0.71578938217E+01  0.00000000000E+00 0.  1.
</event>
<event>
 7    1  0.4723144E-009  0.4778727E+02  0.7816164E-02  0.1312668E+00
        -11   -1    0    0    0    0  0.00000000000E+00  0.00000000000E+00  0.45593999997E+02  0.45594000000E+02  0.51100000000E-03 0.  1.
         11   -1    0    0    0    0 -0.00000000000E+00 -0.00000000000E+00 -0.45593999997E+02  0.45594000000E+02  0.51100000000E-03 0. -1.
    9900012    2    1    2    0    0 -0.22218421951E+02 -0.33948492706E+02 -0.15409909918E+02  0.47787265505E+02  0.19999974744E+02 0.  0.
         12    1    1    2    0    0  0.22218421951E+02  0.33948492706E+02  0.15409909918E+02  0.43400734495E+02  0.00000000000E+00 0. -1.
         11    1    3    3    0    0 -0.25471686725E+00 -0.11398418796E+02  0.16439834771E+01  0.11519180252E+02  0.51100000000E-03 0. -1.
        -11    1    3    3    0    0 -0.12479762820E+02 -0.86672700282E+01 -0.82476916562E+01  0.17288448967E+02  0.51100000000E-03 0.  1.
         12    1    3    3    0    0 -0.94839422639E+01 -0.13882803882E+02 -0.88062017386E+01  0.18979636286E+02  0.00000000000E+00 0. -1.
</event>
<event>
 7    1  0.4723144E-009  0.4778726E+02  0.7816164E-02  0.1312668E+00
        -11   -1    0    0    0    0  0.00000000000E+00  0.00000000000E+00  0.45593999997E+02  0.45594000000E+02  0.51100000000E-03 0.  1.
         11   -1    0    0    0    0 -0.00000000000E+00 -0.00000000000E+00 -0.45593999997E+02  0.45594000000E+02  0.51100000000E-03 0. -1.
    9900012    2    1    2    0    0 -0.35784280128E+02 -0.17146624859E+02 -0.17581310429E+02  0.47787263546E+02  0.19999965814E+02 0.  0.
         12    1    1    2    0    0  0.35784280128E+02  0.17146624859E+02  0.17581310429E+02  0.43400736454E+02  0.00000000000E+00 0. -1.
         11    1    3    3    0    0  0.35443542654E+00  0.20809525780E+01 -0.31281710569E+01  0.37737835823E+01  0.51100000000E-03 0. -1.
        -11    1    3    3    0    0 -0.22587140706E+02 -0.99375872629E+01 -0.11864534034E+02  0.27380681766E+02  0.51100000000E-03 0.  1.
         12    1    3    3    0    0 -0.13551574848E+02 -0.92899901741E+01 -0.25886053390E+01  0.16632798198E+02  0.00000000000E+00 0. -1.
</event>
<event>
 7    1  0.4723144E-009  0.4778727E+02  0.7816164E-02  0.1312668E+00
        -11   -1    0    0    0    0  0.00000000000E+00  0.00000000000E+00  0.45593999997E+02  0.45594000000E+02  0.51100000000E-03 0.  1.
         11   -1    0    0    0    0 -0.00000000000E+00 -0.00000000000E+00 -0.45593999997E+02  0.45594000000E+02  0.51100000000E-03 0. -1.
    9900012    2    1    2    0    0 -0.18349938995E+02  0.30523330204E+02  0.24803816354E+02  0.47787271278E+02  0.20000001066E+02 0.  0.
         12    1    1    2    0    0  0.18349938995E+02 -0.30523330204E+02 -0.24803816354E+02  0.43400728722E+02  0.00000000000E+00 0. -1.
         11    1    3    3    0    0 -0.10449504604E+02  0.11035118038E+02  0.18901467970E+02  0.24253483632E+02  0.51100000000E-03 0. -1.
        -11    1    3    3    0    0 -0.64812958073E+01  0.94761383118E+01  0.68639311605E+01  0.13376021228E+02  0.51100000000E-03 0.  1.
         12    1    3    3    0    0 -0.14191385832E+01  0.10012073854E+02 -0.96158277667E+00  0.10157766419E+02  0.00000000000E+00 0. -1.
</event>
<event>
 7    1  0.4723144E-009  0.4778727E+02  0.7816164E-02  0.1312668E+00
        -11   -1    0    0    0    0  0.00000000000E+00  0.00000000000E+00  0.45593999997E+02  0.45594000000E+02  0.51100000000E-03 0.  1.
         11   -1    0    0    0    0 -0.00000000000E+00 -0.00000000000E+00 -0.45593999997E+02  0.45594000000E+02  0.51100000000E-03 0. -1.
    9900012    2    1    2    0    0 -0.15947401544E+02  0.32753932469E+02  0.23589908779E+02  0.47787268389E+02  0.19999987892E+02 0.  0.
         12    1    1    2    0    0  0.15947401544E+02 -0.32753932469E+02 -0.23589908779E+02  0.43400731611E+02  0.00000000000E+00 0. -1.
         11    1    3    3    0    0 -0.93080485939E+01  0.24104751070E+02  0.13597803325E+02  0.29198956288E+02  0.51100000000E-03 0.  1.
        -11    1    3    3    0    0 -0.93514032970E+01  0.37683303785E+01  0.67213887486E+01  0.12117183024E+02  0.51100000000E-03 0. -1.
        -12    1    3    3    0    0  0.27120503466E+01  0.48808510203E+01  0.32707167049E+01  0.64711290768E+01  0.00000000000E+00 0.  1.
</event>
<event>
 7    1 -0.4723144E-009  0.4778727E+02  0.7816164E-02  0.1312668E+00
        -11   -1    0    0    0    0  0.00000000000E+00  0.00000000000E+00  0.45593999997E+02  0.45594000000E+02  0.51100000000E-03 0.  1.
         11   -1    0    0    0    0 -0.00000000000E+00 -0.00000000000E+00 -0.45593999997E+02  0.45594000000E+02  0.51100000000E-03 0. -1.
    9900012    2    1    2    0    0  0.23143909405E+02  0.24249633348E+01  0.36634717635E+02  0.47787268141E+02  0.19999986763E+02 0.  0.
         12    1    1    2    0    0 -0.23143909405E+02 -0.24249633348E+01 -0.36634717635E+02  0.43400731859E+02  0.00000000000E+00 0. -1.
         11    1    3    3    0    0  0.42544510294E+01 -0.62854613523E+01  0.12793885783E+02  0.14875849275E+02  0.51100000000E-03 0. -1.
        -11    1    3    3    0    0  0.11475065616E+02  0.30691301265E+00  0.12318166938E+02  0.16837712537E+02  0.51100000000E-03 0.  1.
         12    1    3    3    0    0  0.74143927599E+01  0.84035116745E+01  0.11522664913E+02  0.16073706329E+02  0.00000000000E+00 0. -1.
</event>
<event>
 7    1  0.4723144E-009  0.4778727E+02  0.7816164E-02  0.1312668E+00
        -11   -1    0    0    0    0  0.00000000000E+00  0.00000000000E+00  0.45593999997E+02  0.45594000000E+02  0.51100000000E-03 0. -1.
         11   -1    0    0    0    0 -0.00000000000E+00 -0.00000000000E+00 -0.45593999997E+02  0.45594000000E+02  0.51100000000E-03 0.  1.
    9900012    2    1    2    0    0 -0.39174329800E+01  0.41425913559E+02  0.12335750088E+02  0.47787270449E+02  0.19999997284E+02 0.  0.
         12    1    1    2    0    0  0.39174329800E+01 -0.41425913559E+02 -0.12335750088E+02  0.43400729551E+02  0.00000000000E+00 0. -1.
         11    1    3    3    0    0 -0.19594916234E+01 -0.12590862189E+01  0.31156317363E+01  0.38899957463E+01  0.51100000000E-03 0. -1.
        -11    1    3    3    0    0 -0.19657624707E+01  0.35002908044E+02  0.90759830038E+01  0.36213826936E+02  0.51100000000E-03 0.  1.
         12    1    3    3    0    0  0.78211141597E-02  0.76820917339E+01  0.14413534771E+00  0.76834477662E+01  0.00000000000E+00 0. -1.
</event>
<event>
 7    1  0.4723144E-009  0.4778726E+02  0.7816164E-02  0.1312668E+00
        -11   -1    0    0    0    0  0.00000000000E+00  0.00000000000E+00  0.45593999997E+02  0.45594000000E+02  0.51100000000E-03 0.  1.
         11   -1    0    0    0    0 -0.00000000000E+00 -0.00000000000E+00 -0.45593999997E+02  0.45594000000E+02  0.51100000000E-03 0. -1.
    9900012    2    1    2    0    0  0.25788917710E+02 -0.16538888768E+02  0.30741193696E+02  0.47787261432E+02  0.19999956175E+02 0.  0.
         12    1    1    2    0    0 -0.25788917710E+02  0.16538888768E+02 -0.30741193696E+02  0.43400738568E+02  0.00000000000E+00 0. -1.
         11    1    3    3    0    0  0.16854396098E+01 -0.70681279512E+01  0.56723312326E+01  0.92181604068E+01  0.51100000000E-03 0. -1.
        -11    1    3    3    0    0  0.25487699150E+02 -0.94777684352E+01  0.25327497676E+02  0.37160907433E+02  0.51100000000E-03 0.  1.
         12    1    3    3    0    0 -0.13842210493E+01  0.70076179499E-02 -0.25863521313E+00  0.14081935923E+01  0.00000000000E+00 0. -1.
</event>
<event>
 7    1  0.4723144E-009  0.4778727E+02  0.7816164E-02  0.1312668E+00
        -11   -1    0    0    0    0  0.00000000000E+00  0.00000000000E+00  0.45593999997E+02  0.45594000000E+02  0.51100000000E-03 0.  1.
         11   -1    0    0    0    0 -0.00000000000E+00 -0.00000000000E+00 -0.45593999997E+02  0.45594000000E+02  0.51100000000E-03 0. -1.
    9900012    2    1    2    0    0  0.24829587390E+02  0.32015635392E+02 -0.15560010843E+02  0.47787271240E+02  0.20000000890E+02 0.  0.
         12    1    1    2    0    0 -0.24829587390E+02 -0.32015635392E+02  0.15560010843E+02  0.43400728760E+02  0.00000000000E+00 0. -1.
         11    1    3    3    0    0 -0.66280484695E+00  0.60851097430E+01 -0.31648702262E+01  0.68908834455E+01  0.51100000000E-03 0. -1.
        -11    1    3    3    0    0  0.17725765860E+02  0.22450588768E+02 -0.38963041976E+01  0.28868891527E+02  0.51100000000E-03 0.  1.
        -12    1    3    3    0    0  0.77666263768E+01  0.34799368807E+01 -0.84988364192E+01  0.12027496267E+02  0.00000000000E+00 0.  1.
</event>
<event>
 7    1  0.4723144E-009  0.4778727E+02  0.7816164E-02  0.1312668E+00
        -11   -1    0    0    0    0  0.00000000000E+00  0.00000000000E+00  0.45593999997E+02  0.45594000000E+02  0.51100000000E-03 0.  1.
         11   -1    0    0    0    0 -0.00000000000E+00 -0.00000000000E+00 -0.45593999997E+02  0.45594000000E+02  0.51100000000E-03 0. -1.
    9900012    2    1    2    0    0  0.22916099627E+02 -0.24117620321E+02  0.27871425761E+02  0.47787267218E+02  0.19999982555E+02 0.  0.
         12    1    1    2    0    0 -0.22916099627E+02  0.24117620321E+02 -0.27871425761E+02  0.43400732782E+02  0.00000000000E+00 0. -1.
         11    1    3    3    0    0  0.53177231056E+01 -0.11467577706E+02  0.23622244858E+01  0.12859378766E+02  0.51100000000E-03 0. -1.
        -11    1    3    3    0    0  0.30229817259E+01 -0.42279824514E+01  0.12862429533E+02  0.13872863723E+02  0.51100000000E-03 0.  1.
         12    1    3    3    0    0  0.14575394796E+02 -0.84220601631E+01  0.12646771741E+02  0.21055024729E+02  0.00000000000E+00 0. -1.
</event>
<event>
 7    1  0.4723144E-009  0.4778727E+02  0.7816164E-02  0.1312668E+00
        -11   -1    0    0    0    0  0.00000000000E+00  0.00000000000E+00  0.45593999997E+02  0.45594000000E+02  0.51100000000E-03 0.  1.
         11   -1    0    0    0    0 -0.00000000000E+00 -0.00000000000E+00 -0.45593999997E+02  0.45594000000E+02  0.51100000000E-03 0. -1.
    9900012    2    1    2    0    0 -0.32755046595E+02  0.21094541816E+02  0.19124612452E+02  0.47787267595E+02  0.19999984273E+02 0.  0.
         12    1    1    2    0    0  0.32755046595E+02 -0.21094541816E+02 -0.19124612452E+02  0.43400732405E+02  0.00000000000E+00 0. -1.
         11    1    3    3    0    0 -0.26855538941E+02  0.10459253569E+02  0.58152771208E+01  0.29401248363E+02  0.51100000000E-03 0. -1.
        -11    1    3    3    0    0 -0.38617361160E+01  0.41014772530E+01  0.76775531357E+01  0.95226017400E+01  0.51100000000E-03 0.  1.
         12    1    3    3    0    0 -0.20377715376E+01  0.65338109940E+01  0.56317821955E+01  0.88634174923E+01  0.00000000000E+00 0. -1.
</event>
<event>
 7    1  0.4723144E-009  0.4778727E+02  0.7816164E-02  0.1312668E+00
        -11   -1    0    0    0    0  0.00000000000E+00  0.00000000000E+00  0.45593999997E+02  0.45594000000E+02  0.51100000000E-03 0.  1.
         11   -1    0    0    0    0 -0.00000000000E+00 -0.00000000000E+00 -0.45593999997E+02  0.45594000000E+02  0.51100000000E-03 0. -1.
    9900012    2    1    2    0    0 -0.63915758713E+01 -0.41832911886E+02 -0.96321689737E+01  0.47787269153E+02  0.19999991374E+02 0.  0.
         12    1    1    2    0    0  0.63915758713E+01  0.41832911886E+02  0.96321689737E+01  0.43400730847E+02  0.00000000000E+00 0. -1.
         11    1    3    3    0    0 -0.97441357182E+01 -0.21447753012E+02 -0.74838705731E+01  0.24717657842E+02  0.51100000000E-03 0. -1.
        -11    1    3    3    0    0  0.49336409833E+01 -0.16061530208E+02 -0.51500966361E+01  0.17573760599E+02  0.51100000000E-03 0.  1.
        -12    1    3    3    0    0 -0.15810811364E+01 -0.43236286653E+01  0.30017982355E+01  0.54958507114E+01  0.00000000000E+00 0.  1.
</event>
<event>
 7    1  0.4723144E-009  0.4778728E+02  0.7816164E-02  0.1312668E+00
        -11   -1    0    0    0    0  0.00000000000E+00  0.00000000000E+00  0.45593999997E+02  0.45594000000E+02  0.51100000000E-03 0.  1.
         11   -1    0    0    0    0 -0.00000000000E+00 -0.00000000000E+00 -0.45593999997E+02  0.45594000000E+02  0.51100000000E-03 0. -1.
    9900012    2    1    2    0    0 -0.24674802945E+02 -0.25760303580E+02  0.24722118549E+02  0.47787282420E+02  0.20000051866E+02 0.  0.
         12    1    1    2    0    0  0.24674802945E+02  0.25760303580E+02 -0.24722118549E+02  0.43400717580E+02  0.00000000000E+00 0. -1.
         11    1    3    3    0    0 -0.76856040464E+01 -0.16890353359E+02  0.50823442345E+01  0.19240134338E+02  0.51100000000E-03 0. -1.
        -11    1    3    3    0    0 -0.16184864755E+02 -0.96627561645E+01  0.15963331972E+02  0.24701147175E+02  0.51100000000E-03 0.  1.
         12    1    3    3    0    0 -0.80433414371E+00  0.79280594419E+00  0.36764423430E+01  0.38460009076E+01  0.00000000000E+00 0. -1.
</event>
<event>
 7    1  0.4723144E-009  0.4778727E+02  0.7816164E-02  0.1312668E+00
        -11   -1    0    0    0    0  0.00000000000E+00  0.00000000000E+00  0.45593999997E+02  0.45594000000E+02  0.51100000000E-03 0.  1.
         11   -1    0    0    0    0 -0.00000000000E+00 -0.00000000000E+00 -0.45593999997E+02  0.45594000000E+02  0.51100000000E-03 0. -1.
    9900012    2    1    2    0    0  0.19582901765E+02  0.20295620430E+02  0.32988195880E+02  0.47787270541E+02  0.19999997704E+02 0.  0.
         12    1    1    2    0    0 -0.19582901765E+02 -0.20295620430E+02 -0.32988195880E+02  0.43400729459E+02  0.00000000000E+00 0. -1.
         11    1    3    3    0    0  0.70991728753E+01  0.10074912377E+02  0.25998571988E+01  0.12596085608E+02  0.51100000000E-03 0. -1.
        -11    1    3    3    0    0  0.81598043418E+01  0.31084473183E+01  0.20394446598E+02  0.22185091930E+02  0.51100000000E-03 0.  1.
        -12    1    3    3    0    0  0.43239245479E+01  0.71122607342E+01  0.99938920832E+01  0.13006093004E+02  0.00000000000E+00 0.  1.
</event>
<event>
 7    1  0.4723144E-009  0.4778727E+02  0.7816164E-02  0.1312668E+00
        -11   -1    0    0    0    0  0.00000000000E+00  0.00000000000E+00  0.45593999997E+02  0.45594000000E+02  0.51100000000E-03 0. -1.
         11   -1    0    0    0    0 -0.00000000000E+00 -0.00000000000E+00 -0.45593999997E+02  0.45594000000E+02  0.51100000000E-03 0.  1.
    9900012    2    1    2    0    0  0.20936864767E+02  0.36478800401E+02 -0.10703647893E+02  0.47787271168E+02  0.20000000562E+02 0.  0.
         12    1    1    2    0    0 -0.20936864767E+02 -0.36478800401E+02  0.10703647893E+02  0.43400728832E+02  0.00000000000E+00 0. -1.
         11    1    3    3    0    0 -0.21604374208E+01  0.61747605594E+00  0.38305537922E+00  0.22793635545E+01  0.51100000000E-03 0. -1.
        -11    1    3    3    0    0  0.19948510044E+02  0.33476559692E+02 -0.13050540300E+02  0.41096711598E+02  0.51100000000E-03 0.  1.
        -12    1    3    3    0    0  0.31487921435E+01  0.23847646530E+01  0.19638370277E+01  0.44111960152E+01  0.00000000000E+00 0.  1.
</event>
<event>
 7    1  0.4723144E-009  0.4778727E+02  0.7816164E-02  0.1312668E+00
        -11   -1    0    0    0    0  0.00000000000E+00  0.00000000000E+00  0.45593999997E+02  0.45594000000E+02  0.51100000000E-03 0. -1.
         11   -1    0    0    0    0 -0.00000000000E+00 -0.00000000000E+00 -0.45593999997E+02  0.45594000000E+02  0.51100000000E-03 0.  1.
    9900012    2    1    2    0    0  0.23967231437E+02 -0.31307577718E+02 -0.18139203164E+02  0.47787270781E+02  0.19999998798E+02 0.  0.
         12    1    1    2    0    0 -0.23967231437E+02  0.31307577718E+02  0.18139203164E+02  0.43400729219E+02  0.00000000000E+00 0. -1.
         11    1    3    3    0    0  0.71813202310E+00 -0.52033793481E+01 -0.49251681951E+01  0.72005661065E+01  0.51100000000E-03 0. -1.
        -11    1    3    3    0    0  0.75882090015E+01 -0.18344867796E+02 -0.23094707360E+01  0.19986213889E+02  0.51100000000E-03 0.  1.
        -12    1    3    3    0    0  0.15660890412E+02 -0.77593305742E+01 -0.10904564233E+02  0.20600490785E+02  0.00000000000E+00 0.  1.
</event>
<event>
 7    1  0.4723144E-009  0.4778727E+02  0.7816164E-02  0.1312668E+00
        -11   -1    0    0    0    0  0.00000000000E+00  0.00000000000E+00  0.45593999997E+02  0.45594000000E+02  0.51100000000E-03 0. -1.
         11   -1    0    0    0    0 -0.00000000000E+00 -0.00000000000E+00 -0.45593999997E+02  0.45594000000E+02  0.51100000000E-03 0.  1.
    9900012    2    1    2    0    0  0.39672054116E+02  0.14101768485E+01 -0.17543170363E+02  0.47787270710E+02  0.19999998475E+02 0.  0.
         12    1    1    2    0    0 -0.39672054116E+02 -0.14101768485E+01  0.17543170363E+02  0.43400729290E+02  0.00000000000E+00 0. -1.
         11    1    3    3    0    0  0.90733523472E+01 -0.37505133734E+01  0.26156952455E+01  0.10160410192E+02  0.51100000000E-03 0. -1.
        -11    1    3    3    0    0  0.12607153146E+02  0.17895407231E+01 -0.12308087123E+02  0.17709652039E+02  0.51100000000E-03 0.  1.
         12    1    3    3    0    0  0.17991548623E+02  0.33711494988E+01 -0.78507784848E+01  0.19917208480E+02  0.00000000000E+00 0. -1.
</event>
<event>
 7    1  0.4723144E-009  0.4778727E+02  0.7816164E-02  0.1312668E+00
        -11   -1    0    0    0    0  0.00000000000E+00  0.00000000000E+00  0.45593999997E+02  0.45594000000E+02  0.51100000000E-03 0.  1.
         11   -1    0    0    0    0 -0.00000000000E+00 -0.00000000000E+00 -0.45593999997E+02  0.45594000000E+02  0.51100000000E-03 0. -1.
    9900012    2    1    2    0    0 -0.33997794374E+02  0.18729498138E+02  0.19415949670E+02  0.47787271615E+02  0.20000002602E+02 0.  0.
         12    1    1    2    0    0  0.33997794374E+02 -0.18729498138E+02 -0.19415949670E+02  0.43400728385E+02  0.00000000000E+00 0. -1.
         11    1    3    3    0    0 -0.24766445125E+01  0.17161564529E+00  0.79624833850E+01  0.83405252765E+01  0.51100000000E-03 0. -1.
        -11    1    3    3    0    0 -0.28487426936E+02  0.12810306814E+02  0.98705068258E+01  0.32757661078E+02  0.51100000000E-03 0.  1.
         12    1    3    3    0    0 -0.30337229257E+01  0.57475756787E+01  0.15829594587E+01  0.66890852603E+01  0.00000000000E+00 0. -1.
</event>
<event>
 7    1  0.4723144E-009  0.4778727E+02  0.7816164E-02  0.1312668E+00
        -11   -1    0    0    0    0  0.00000000000E+00  0.00000000000E+00  0.45593999997E+02  0.45594000000E+02  0.51100000000E-03 0. -1.
         11   -1    0    0    0    0 -0.00000000000E+00 -0.00000000000E+00 -0.45593999997E+02  0.45594000000E+02  0.51100000000E-03 0.  1.
    9900012    2    1    2    0    0  0.34382887544E+02  0.17394644629E+02 -0.19971643858E+02  0.47787272172E+02  0.20000005139E+02 0.  0.
         12    1    1    2    0    0 -0.34382887544E+02 -0.17394644629E+02  0.19971643858E+02  0.43400727828E+02  0.00000000000E+00 0. -1.
         11    1    3    3    0    0  0.25567927883E+02  0.40168467567E+01 -0.12413215165E+02  0.28704388255E+02  0.51100000000E-03 0. -1.
        -11    1    3    3    0    0  0.95954238494E+01  0.12754136322E+02 -0.56542366225E+01  0.16932529173E+02  0.51100000000E-03 0.  1.
         12    1    3    3    0    0 -0.78046418830E+00  0.62366155018E+00 -0.19041920710E+01  0.21503547432E+01  0.00000000000E+00 0. -1.
</event>
<event>
 7    1  0.4723144E-009  0.4778726E+02  0.7816164E-02  0.1312668E+00
        -11   -1    0    0    0    0  0.00000000000E+00  0.00000000000E+00  0.45593999997E+02  0.45594000000E+02  0.51100000000E-03 0.  1.
         11   -1    0    0    0    0 -0.00000000000E+00 -0.00000000000E+00 -0.45593999997E+02  0.45594000000E+02  0.51100000000E-03 0. -1.
    9900012    2    1    2    0    0 -0.39857170076E+02  0.23054963844E+01  0.17021011140E+02  0.47787261063E+02  0.19999954489E+02 0.  0.
         12    1    1    2    0    0  0.39857170076E+02 -0.23054963844E+01 -0.17021011140E+02  0.43400738937E+02  0.00000000000E+00 0. -1.
         11    1    3    3    0    0 -0.10418808585E+02 -0.80419780158E+00 -0.37498424812E+01  0.11102235150E+02  0.51100000000E-03 0. -1.
        -11    1    3    3    0    0 -0.15255069111E+02  0.43027693273E+01  0.90870368189E+01  0.18270336501E+02  0.51100000000E-03 0.  1.
         12    1    3    3    0    0 -0.14183292381E+02 -0.11930751413E+01  0.11683816802E+02  0.18414689412E+02  0.00000000000E+00 0. -1.
</event>
<event>
 7    1  0.4723144E-009  0.4778727E+02  0.7816164E-02  0.1312668E+00
        -11   -1    0    0    0    0  0.00000000000E+00  0.00000000000E+00  0.45593999997E+02  0.45594000000E+02  0.51100000000E-03 0.  1.
         11   -1    0    0    0    0 -0.00000000000E+00 -0.00000000000E+00 -0.45593999997E+02  0.45594000000E+02  0.51100000000E-03 0. -1.
    9900012    2    1    2    0    0  0.16924935243E-01  0.12133604066E+02  0.41670116446E+02  0.47787271449E+02  0.20000001845E+02 0.  0.
         12    1    1    2    0    0 -0.16924935243E-01 -0.12133604066E+02 -0.41670116446E+02  0.43400728551E+02  0.00000000000E+00 0. -1.
         11    1    3    3    0    0 -0.37478769069E+01  0.81364976583E+01  0.61551557826E+01  0.10868998041E+02  0.51100000000E-03 0. -1.
        -11    1    3    3    0    0  0.59029906567E+01  0.80444974343E+00  0.17140294385E+02  0.18146132645E+02  0.51100000000E-03 0.  1.
         12    1    3    3    0    0 -0.21381888145E+01  0.31926566641E+01  0.18374666279E+02  0.18772140763E+02  0.00000000000E+00 0. -1.
</event>
<event>
 7    1  0.4723144E-009  0.4778727E+02  0.7816164E-02  0.1312668E+00
        -11   -1    0    0    0    0  0.00000000000E+00  0.00000000000E+00  0.45593999997E+02  0.45594000000E+02  0.51100000000E-03 0.  1.
         11   -1    0    0    0    0 -0.00000000000E+00 -0.00000000000E+00 -0.45593999997E+02  0.45594000000E+02  0.51100000000E-03 0. -1.
    9900012    2    1    2    0    0 -0.58428278102E+01  0.34766528571E+02  0.25313496056E+02  0.47787271569E+02  0.20000002394E+02 0.  0.
         12    1    1    2    0    0  0.58428278102E+01 -0.34766528571E+02 -0.25313496056E+02  0.43400728431E+02  0.00000000000E+00 0. -1.
         11    1    3    3    0    0  0.36743502341E+01  0.11934015043E+02  0.12235429949E+02  0.17482199833E+02  0.51100000000E-03 0. -1.
        -11    1    3    3    0    0 -0.60426077942E+01  0.22158136266E+02  0.84359673533E+01  0.24467563368E+02  0.51100000000E-03 0.  1.
         12    1    3    3    0    0 -0.34745702501E+01  0.67437726269E+00  0.46420987536E+01  0.58375083686E+01  0.00000000000E+00 0. -1.
</event>
<event>
 7    1  0.4723144E-009  0.4778727E+02  0.7816164E-02  0.1312668E+00
        -11   -1    0    0    0    0  0.00000000000E+00  0.00000000000E+00  0.45593999997E+02  0.45594000000E+02  0.51100000000E-03 0.  1.
         11   -1    0    0    0    0 -0.00000000000E+00 -0.00000000000E+00 -0.45593999997E+02  0.45594000000E+02  0.51100000000E-03 0. -1.
    9900012    2    1    2    0    0 -0.24655873210E+02 -0.27744777826E+02  0.22493087852E+02  0.47787265197E+02  0.19999973338E+02 0.  0.
         12    1    1    2    0    0  0.24655873210E+02  0.27744777826E+02 -0.22493087852E+02  0.43400734803E+02  0.00000000000E+00 0. -1.
         11    1    3    3    0    0 -0.15211777214E+01 -0.12619602770E+02  0.42535468661E+01  0.13403768759E+02  0.51100000000E-03 0. -1.
        -11    1    3    3    0    0 -0.12127519173E+02 -0.63430823809E+01  0.37761913307E+01  0.14197571504E+02  0.51100000000E-03 0.  1.
         12    1    3    3    0    0 -0.11007176316E+02 -0.87820926749E+01  0.14463349655E+02  0.20185924934E+02  0.00000000000E+00 0. -1.
</event>
<event>
 7    1  0.4723144E-009  0.4778727E+02  0.7816164E-02  0.1312668E+00
        -11   -1    0    0    0    0  0.00000000000E+00  0.00000000000E+00  0.45593999997E+02  0.45594000000E+02  0.51100000000E-03 0.  1.
         11   -1    0    0    0    0 -0.00000000000E+00 -0.00000000000E+00 -0.45593999997E+02  0.45594000000E+02  0.51100000000E-03 0. -1.
    9900012    2    1    2    0    0  0.11373986734E+02  0.28142399296E+02  0.31020329676E+02  0.47787273444E+02  0.20000010943E+02 0.  0.
         12    1    1    2    0    0 -0.11373986734E+02 -0.28142399296E+02 -0.31020329676E+02  0.43400726556E+02  0.00000000000E+00 0. -1.
         11    1    3    3    0    0 -0.10628451126E+01  0.22883308613E+01  0.18780129866E+00  0.25300923804E+01  0.51100000000E-03 0. -1.
        -11    1    3    3    0    0 -0.17448298494E+01  0.15070703125E+02  0.16280530880E+02  0.22253678569E+02  0.51100000000E-03 0.  1.
        -12    1    3    3    0    0  0.14181661696E+02  0.10783365310E+02  0.14551997498E+02  0.23003502495E+02  0.00000000000E+00 0.  1.
</event>
<event>
 7    1  0.4723144E-009  0.4778727E+02  0.7816164E-02  0.1312668E+00
        -11   -1    0    0    0    0  0.00000000000E+00  0.00000000000E+00  0.45593999997E+02  0.45594000000E+02  0.51100000000E-03 0. -1.
         11   -1    0    0    0    0 -0.00000000000E+00 -0.00000000000E+00 -0.45593999997E+02  0.45594000000E+02  0.51100000000E-03 0.  1.
    9900012    2    1    2    0    0  0.90490837769E+01  0.42417828753E+02  0.15700037042E+01  0.47787273912E+02  0.20000013074E+02 0.  0.
         12    1    1    2    0    0 -0.90490837769E+01 -0.42417828753E+02 -0.15700037042E+01  0.43400726088E+02  0.00000000000E+00 0. -1.
         11    1    3    3    0    0 -0.28439916878E+01  0.67464409202E+01  0.50338816246E+01  0.88849714846E+01  0.51100000000E-03 0. -1.
        -11    1    3    3    0    0  0.83737778686E+01  0.32604082744E+02 -0.11255805801E+01  0.33681052526E+02  0.51100000000E-03 0.  1.
        -12    1    3    3    0    0  0.35192975961E+01  0.30673050890E+01 -0.23382973403E+01  0.52212499012E+01  0.00000000000E+00 0.  1.
</event>
<event>
 7    1  0.4723144E-009  0.4778727E+02  0.7816164E-02  0.1312668E+00
        -11   -1    0    0    0    0  0.00000000000E+00  0.00000000000E+00  0.45593999997E+02  0.45594000000E+02  0.51100000000E-03 0.  1.
         11   -1    0    0    0    0 -0.00000000000E+00 -0.00000000000E+00 -0.45593999997E+02  0.45594000000E+02  0.51100000000E-03 0. -1.
    9900012    2    1    2    0    0 -0.22231267376E+02 -0.28181570947E+02  0.24396577602E+02  0.47787272024E+02  0.20000004464E+02 0.  0.
         12    1    1    2    0    0  0.22231267376E+02  0.28181570947E+02 -0.24396577602E+02  0.43400727976E+02  0.00000000000E+00 0. -1.
         11    1    3    3    0    0 -0.26906655454E+01 -0.14429816208E+02  0.82052652021E+01  0.16816231866E+02  0.51100000000E-03 0. -1.
        -11    1    3    3    0    0 -0.18240642817E+02 -0.77291796769E+01  0.98310181674E+01  0.22115835669E+02  0.51100000000E-03 0.  1.
         12    1    3    3    0    0 -0.12999590139E+01 -0.60225750618E+01  0.63602942325E+01  0.88552044887E+01  0.00000000000E+00 0. -1.
</event>
<event>
 7    1  0.4723144E-009  0.4778726E+02  0.7816164E-02  0.1312668E+00
        -11   -1    0    0    0    0  0.00000000000E+00  0.00000000000E+00  0.45593999997E+02  0.45594000000E+02  0.51100000000E-03 0.  1.
         11   -1    0    0    0    0 -0.00000000000E+00 -0.00000000000E+00 -0.45593999997E+02  0.45594000000E+02  0.51100000000E-03 0. -1.
    9900012    2    1    2    0    0 -0.17476470257E+01  0.24440603875E+02  0.35822151955E+02  0.47787263156E+02  0.19999964032E+02 0.  0.
         12    1    1    2    0    0  0.17476470257E+01 -0.24440603875E+02 -0.35822151955E+02  0.43400736844E+02  0.00000000000E+00 0. -1.
         11    1    3    3    0    0  0.41887691407E+01  0.23839459754E+01  0.28011179574E+01  0.55745176831E+01  0.51100000000E-03 0. -1.
        -11    1    3    3    0    0 -0.51320665157E+01  0.17657093223E+02  0.15253696398E+02  0.23891134378E+02  0.51100000000E-03 0.  1.
        -12    1    3    3    0    0 -0.80434965064E+00  0.43995646768E+01  0.17767337600E+02  0.18321611094E+02  0.00000000000E+00 0.  1.
</event>
<event>
 7    1  0.4723144E-009  0.4778727E+02  0.7816164E-02  0.1312668E+00
        -11   -1    0    0    0    0  0.00000000000E+00  0.00000000000E+00  0.45593999997E+02  0.45594000000E+02  0.51100000000E-03 0.  1.
         11   -1    0    0    0    0 -0.00000000000E+00 -0.00000000000E+00 -0.45593999997E+02  0.45594000000E+02  0.51100000000E-03 0. -1.
    9900012    2    1    2    0    0 -0.32204602325E+02  0.26916719736E+02 -0.11044318872E+02  0.47787271993E+02  0.20000004323E+02 0.  0.
         12    1    1    2    0    0  0.32204602325E+02 -0.26916719736E+02  0.11044318872E+02  0.43400728007E+02  0.00000000000E+00 0. -1.
         11    1    3    3    0    0 -0.26230737788E+01  0.24065090938E+01 -0.62757263851E+01  0.72150221059E+01  0.51100000000E-03 0. -1.
        -11    1    3    3    0    0 -0.25526362500E+02  0.16469102535E+02 -0.72493213400E+01  0.31231061156E+02  0.51100000000E-03 0.  1.
        -12    1    3    3    0    0 -0.40551660454E+01  0.80411081076E+01  0.24807288534E+01  0.93411887305E+01  0.00000000000E+00 0.  1.
</event>
<event>
 7    1  0.4723144E-009  0.4778727E+02  0.7816164E-02  0.1312668E+00
        -11   -1    0    0    0    0  0.00000000000E+00  0.00000000000E+00  0.45593999997E+02  0.45594000000E+02  0.51100000000E-03 0.  1.
         11   -1    0    0    0    0 -0.00000000000E+00 -0.00000000000E+00 -0.45593999997E+02  0.45594000000E+02  0.51100000000E-03 0. -1.
    9900012    2    1    2    0    0 -0.32300521691E+02  0.22509244857E+02  0.18265643235E+02  0.47787268113E+02  0.19999986633E+02 0.  0.
         12    1    1    2    0    0  0.32300521691E+02 -0.22509244857E+02 -0.18265643235E+02  0.43400731887E+02  0.00000000000E+00 0. -1.
         11    1    3    3    0    0 -0.15497764548E+02  0.38624029132E+01  0.12524628597E+02  0.20296925482E+02  0.51100000000E-03 0. -1.
        -11    1    3    3    0    0 -0.34180375443E+01  0.25933726440E-01  0.27029565923E+01  0.43577090097E+01  0.51100000000E-03 0.  1.
         12    1    3    3    0    0 -0.13384719599E+02  0.18620908217E+02  0.30380580459E+01  0.23132633621E+02  0.00000000000E+00 0. -1.
</event>
<event>
 7    1  0.4723144E-009  0.4778727E+02  0.7816164E-02  0.1312668E+00
        -11   -1    0    0    0    0  0.00000000000E+00  0.00000000000E+00  0.45593999997E+02  0.45594000000E+02  0.51100000000E-03 0.  1.
         11   -1    0    0    0    0 -0.00000000000E+00 -0.00000000000E+00 -0.45593999997E+02  0.45594000000E+02  0.51100000000E-03 0. -1.
    9900012    2    1    2    0    0  0.77661922909E+00  0.41051799331E+02  0.14063067275E+02  0.47787271585E+02  0.20000002466E+02 0.  0.
         12    1    1    2    0    0 -0.77661922909E+00 -0.41051799331E+02 -0.14063067275E+02  0.43400728415E+02  0.00000000000E+00 0. -1.
         11    1    3    3    0    0 -0.42468906013E+00  0.23655252601E+00 -0.11845383372E+01  0.12804097894E+01  0.51100000000E-03 0. -1.
        -11    1    3    3    0    0  0.45607926930E+01  0.24103044892E+01  0.32787447772E+00  0.51689360272E+01  0.51100000000E-03 0.  1.
        -12    1    3    3    0    0 -0.33594844038E+01  0.38404942316E+02  0.14919731134E+02  0.41337925769E+02  0.00000000000E+00 0.  1.
</event>
<event>
 7    1  0.4723144E-009  0.4778728E+02  0.7816164E-02  0.1312668E+00
        -11   -1    0    0    0    0  0.00000000000E+00  0.00000000000E+00  0.45593999997E+02  0.45594000000E+02  0.51100000000E-03 0. -1.
         11   -1    0    0    0    0 -0.00000000000E+00 -0.00000000000E+00 -0.45593999997E+02  0.45594000000E+02  0.51100000000E-03 0.  1.
    9900012    2    1    2    0    0 -0.27880438326E+02 -0.30657372203E+02 -0.12900753658E+02  0.47787277003E+02  0.20000027169E+02 0.  0.
         12    1    1    2    0    0  0.27880438326E+02  0.30657372203E+02  0.12900753658E+02  0.43400722997E+02  0.00000000000E+00 0. -1.
         11    1    3    3    0    0 -0.25886449168E+02 -0.20597266734E+02 -0.25711652591E+01  0.33180815820E+02  0.51100000000E-03 0. -1.
        -11    1    3    3    0    0 -0.16979862111E+01 -0.92928906366E+01 -0.90287189016E+01  0.13067468723E+02  0.51100000000E-03 0.  1.
         12    1    3    3    0    0 -0.29600294701E+00 -0.76721483285E+00 -0.13008694972E+01  0.15389924604E+01  0.00000000000E+00 0. -1.
</event>
<event>
 7    1  0.4723144E-009  0.4778727E+02  0.7816164E-02  0.1312668E+00
        -11   -1    0    0    0    0  0.00000000000E+00  0.00000000000E+00  0.45593999997E+02  0.45594000000E+02  0.51100000000E-03 0.  1.
         11   -1    0    0    0    0 -0.00000000000E+00 -0.00000000000E+00 -0.45593999997E+02  0.45594000000E+02  0.51100000000E-03 0. -1.
    9900012    2    1    2    0    0 -0.15652030110E+02 -0.35535254704E+02  0.19387698937E+02  0.47787271394E+02  0.20000001594E+02 0.  0.
         12    1    1    2    0    0  0.15652030110E+02  0.35535254704E+02 -0.19387698937E+02  0.43400728606E+02  0.00000000000E+00 0. -1.
         11    1    3    3    0    0  0.92771174369E+00 -0.27925758982E+01  0.11297598558E+01  0.31520607258E+01  0.51100000000E-03 0. -1.
        -11    1    3    3    0    0 -0.15333260610E+01 -0.57428687381E+01 -0.34424658173E+01  0.68689301436E+01  0.51100000000E-03 0.  1.
        -12    1    3    3    0    0 -0.15046415793E+02 -0.26999810068E+02  0.21700404898E+02  0.37766280525E+02  0.00000000000E+00 0.  1.
</event>
<event>
 7    1  0.4723144E-009  0.4778727E+02  0.7816164E-02  0.1312668E+00
        -11   -1    0    0    0    0  0.00000000000E+00  0.00000000000E+00  0.45593999997E+02  0.45594000000E+02  0.51100000000E-03 0.  1.
         11   -1    0    0    0    0 -0.00000000000E+00 -0.00000000000E+00 -0.45593999997E+02  0.45594000000E+02  0.51100000000E-03 0. -1.
    9900012    2    1    2    0    0  0.20319288168E+02  0.10027608891E+02  0.37016175185E+02  0.47787266860E+02  0.19999980923E+02 0.  0.
         12    1    1    2    0    0 -0.20319288168E+02 -0.10027608891E+02 -0.37016175185E+02  0.43400733140E+02  0.00000000000E+00 0. -1.
         11    1    3    3    0    0  0.22840818688E+01  0.43769642679E+01  0.20087967495E+01  0.53301135849E+01  0.51100000000E-03 0. -1.
        -11    1    3    3    0    0  0.11107577131E+02 -0.40373795418E+01  0.20749520467E+02  0.23879307008E+02  0.51100000000E-03 0.  1.
        -12    1    3    3    0    0  0.69276291685E+01  0.96880241645E+01  0.14257857968E+02  0.18577846268E+02  0.00000000000E+00 0.  1.
</event>
<event>
 7    1  0.4723144E-009  0.4778727E+02  0.7816164E-02  0.1312668E+00
        -11   -1    0    0    0    0  0.00000000000E+00  0.00000000000E+00  0.45593999997E+02  0.45594000000E+02  0.51100000000E-03 0. -1.
         11   -1    0    0    0    0 -0.00000000000E+00 -0.00000000000E+00 -0.45593999997E+02  0.45594000000E+02  0.51100000000E-03 0.  1.
    9900012    2    1    2    0    0  0.13022440754E+02 -0.39543785149E+02  0.12260842723E+02  0.47787272225E+02  0.20000005382E+02 0.  0.
         12    1    1    2    0    0 -0.13022440754E+02  0.39543785149E+02 -0.12260842723E+02  0.43400727775E+02  0.00000000000E+00 0. -1.
         11    1    3    3    0    0  0.13117772462E+02 -0.26968128658E+02  0.97111647006E+00  0.30004982672E+02  0.51100000000E-03 0.  1.
        -11    1    3    3    0    0 -0.12728405959E+00 -0.47419586753E+01  0.79684597474E+01  0.92735497150E+01  0.51100000000E-03 0. -1.
        -12    1    3    3    0    0  0.31952351688E-01 -0.78336978161E+01  0.33212665053E+01  0.85087398377E+01  0.00000000000E+00 0.  1.
</event>
<event>
 7    1  0.4723144E-009  0.4778727E+02  0.7816164E-02  0.1312668E+00
        -11   -1    0    0    0    0  0.00000000000E+00  0.00000000000E+00  0.45593999997E+02  0.45594000000E+02  0.51100000000E-03 0.  1.
         11   -1    0    0    0    0 -0.00000000000E+00 -0.00000000000E+00 -0.45593999997E+02  0.45594000000E+02  0.51100000000E-03 0. -1.
    9900012    2    1    2    0    0  0.20639678400E+02 -0.18203760393E+02  0.33559651834E+02  0.47787269037E+02  0.19999990848E+02 0.  0.
         12    1    1    2    0    0 -0.20639678400E+02  0.18203760393E+02 -0.33559651834E+02  0.43400730963E+02  0.00000000000E+00 0. -1.
         11    1    3    3    0    0 -0.85101226902E+00 -0.22223234958E+01  0.44599520369E+01  0.50551079152E+01  0.51100000000E-03 0.  1.
        -11    1    3    3    0    0  0.89318313066E+01  0.52465942764E+00  0.15604333738E+02  0.17987443111E+02  0.51100000000E-03 0. -1.
        -12    1    3    3    0    0  0.12558859363E+02 -0.16506096325E+02  0.13495366059E+02  0.24744718011E+02  0.00000000000E+00 0.  1.
</event>
<event>
 7    1  0.4723144E-009  0.4778727E+02  0.7816164E-02  0.1312668E+00
        -11   -1    0    0    0    0  0.00000000000E+00  0.00000000000E+00  0.45593999997E+02  0.45594000000E+02  0.51100000000E-03 0. -1.
         11   -1    0    0    0    0 -0.00000000000E+00 -0.00000000000E+00 -0.45593999997E+02  0.45594000000E+02  0.51100000000E-03 0.  1.
    9900012    2    1    2    0    0  0.36087261325E+02 -0.24041428526E+02 -0.18282872766E+01  0.47787270168E+02  0.19999996006E+02 0.  0.
         12    1    1    2    0    0 -0.36087261325E+02  0.24041428526E+02  0.18282872766E+01  0.43400729832E+02  0.00000000000E+00 0. -1.
         11    1    3    3    0    0  0.17199985078E+02 -0.14207328355E+02 -0.56453003078E+01  0.23012107280E+02  0.51100000000E-03 0. -1.
        -11    1    3    3    0    0  0.96509971779E+01 -0.81574713011E+01 -0.32231680894E+01  0.13041276676E+02  0.51100000000E-03 0.  1.
         12    1    3    3    0    0  0.92362790697E+01 -0.16766288703E+01  0.70401811205E+01  0.11733886212E+02  0.00000000000E+00 0. -1.
</event>
<event>
 7    1  0.4723144E-009  0.4778727E+02  0.7816164E-02  0.1312668E+00
        -11   -1    0    0    0    0  0.00000000000E+00  0.00000000000E+00  0.45593999997E+02  0.45594000000E+02  0.51100000000E-03 0. -1.
         11   -1    0    0    0    0 -0.00000000000E+00 -0.00000000000E+00 -0.45593999997E+02  0.45594000000E+02  0.51100000000E-03 0.  1.
    9900012    2    1    2    0    0 -0.19343740132E+02  0.44323996180E+01 -0.38597889490E+02  0.47787268189E+02  0.19999986981E+02 0.  0.
         12    1    1    2    0    0  0.19343740132E+02 -0.44323996180E+01  0.38597889490E+02  0.43400731811E+02  0.00000000000E+00 0. -1.
         11    1    3    3    0    0 -0.76472853368E+01 -0.37001349232E+01 -0.54506761653E+01  0.10093653570E+02  0.51100000000E-03 0. -1.
        -11    1    3    3    0    0 -0.11934488100E+02  0.34058110861E+01 -0.28384942259E+02  0.30979614308E+02  0.51100000000E-03 0.  1.
         12    1    3    3    0    0  0.23803330509E+00  0.47267234551E+01 -0.47622710651E+01  0.67140003107E+01  0.00000000000E+00 0. -1.
</event>
<event>
 7    1  0.4723144E-009  0.4778727E+02  0.7816164E-02  0.1312668E+00
        -11   -1    0    0    0    0  0.00000000000E+00  0.00000000000E+00  0.45593999997E+02  0.45594000000E+02  0.51100000000E-03 0.  1.
         11   -1    0    0    0    0 -0.00000000000E+00 -0.00000000000E+00 -0.45593999997E+02  0.45594000000E+02  0.51100000000E-03 0. -1.
    9900012    2    1    2    0    0 -0.80234936922E+01  0.42326014991E+02  0.52683411517E+01  0.47787269424E+02  0.19999992612E+02 0.  0.
         12    1    1    2    0    0  0.80234936922E+01 -0.42326014991E+02 -0.52683411517E+01  0.43400730576E+02  0.00000000000E+00 0. -1.
         11    1    3    3    0    0  0.44836830232E+01  0.13425070648E+02 -0.28104902453E+01  0.14430342721E+02  0.51100000000E-03 0. -1.
        -11    1    3    3    0    0 -0.77549624340E+01  0.25117621070E+02  0.67067494695E+01  0.27129593054E+02  0.51100000000E-03 0.  1.
         12    1    3    3    0    0 -0.47522142814E+01  0.37833232727E+01  0.13720819275E+01  0.62273336491E+01  0.00000000000E+00 0. -1.
</event>
<event>
 7    1  0.4723144E-009  0.4778727E+02  0.7816164E-02  0.1312668E+00
        -11   -1    0    0    0    0  0.00000000000E+00  0.00000000000E+00  0.45593999997E+02  0.45594000000E+02  0.51100000000E-03 0.  1.
         11   -1    0    0    0    0 -0.00000000000E+00 -0.00000000000E+00 -0.45593999997E+02  0.45594000000E+02  0.51100000000E-03 0. -1.
    9900012    2    1    2    0    0 -0.11299180368E+02  0.32964452365E+01  0.41774218100E+02  0.47787270443E+02  0.19999997258E+02 0.  0.
         12    1    1    2    0    0  0.11299180368E+02 -0.32964452365E+01 -0.41774218100E+02  0.43400729557E+02  0.00000000000E+00 0. -1.
         11    1    3    3    0    0  0.36838514509E+01  0.91507878585E+00  0.31662632549E+01  0.49430106167E+01  0.51100000000E-03 0. -1.
        -11    1    3    3    0    0 -0.11213902500E+02  0.47706677437E+01  0.17858195686E+02  0.21620037776E+02  0.51100000000E-03 0.  1.
         12    1    3    3    0    0 -0.37691293188E+01 -0.23893012930E+01  0.20749759159E+02  0.21224222051E+02  0.00000000000E+00 0. -1.
</event>
<event>
 7    1  0.4723144E-009  0.4778727E+02  0.7816164E-02  0.1312668E+00
        -11   -1    0    0    0    0  0.00000000000E+00  0.00000000000E+00  0.45593999997E+02  0.45594000000E+02  0.51100000000E-03 0.  1.
         11   -1    0    0    0    0 -0.00000000000E+00 -0.00000000000E+00 -0.45593999997E+02  0.45594000000E+02  0.51100000000E-03 0. -1.
    9900012    2    1    2    0    0  0.14163391870E+02 -0.31815159865E+02  0.25900139360E+02  0.47787270912E+02  0.19999999394E+02 0.  0.
         12    1    1    2    0    0 -0.14163391870E+02  0.31815159865E+02 -0.25900139360E+02  0.43400729088E+02  0.00000000000E+00 0. -1.
         11    1    3    3    0    0 -0.30680997932E+01 -0.12347253703E+02  0.10038710121E+02  0.16206283087E+02  0.51100000000E-03 0. -1.
        -11    1    3    3    0    0  0.16414043395E+01 -0.58301986177E+01  0.63919065072E+01  0.88057874824E+01  0.51100000000E-03 0.  1.
         12    1    3    3    0    0  0.15590087324E+02 -0.13637707545E+02  0.94695227322E+01  0.22775200342E+02  0.00000000000E+00 0. -1.
</event>
<event>
 7    1  0.4723144E-009  0.4778727E+02  0.7816164E-02  0.1312668E+00
        -11   -1    0    0    0    0  0.00000000000E+00  0.00000000000E+00  0.45593999997E+02  0.45594000000E+02  0.51100000000E-03 0. -1.
         11   -1    0    0    0    0 -0.00000000000E+00 -0.00000000000E+00 -0.45593999997E+02  0.45594000000E+02  0.51100000000E-03 0.  1.
    9900012    2    1    2    0    0  0.83031855983E+01  0.98106292183E+01 -0.41453975080E+02  0.47787269745E+02  0.19999994075E+02 0.  0.
         12    1    1    2    0    0 -0.83031855983E+01 -0.98106292183E+01  0.41453975080E+02  0.43400730255E+02  0.00000000000E+00 0. -1.
         11    1    3    3    0    0 -0.36697118475E+01  0.25048080421E+01 -0.23413390009E+01  0.50222223118E+01  0.51100000000E-03 0. -1.
        -11    1    3    3    0    0  0.13537773910E+02  0.50827576714E+01 -0.34546814379E+02  0.37451143266E+02  0.51100000000E-03 0.  1.
        -12    1    3    3    0    0 -0.15648764639E+01  0.22230635048E+01 -0.45658217005E+01  0.53139041669E+01  0.00000000000E+00 0.  1.
</event>
<event>
 7    1  0.4723144E-009  0.4778727E+02  0.7816164E-02  0.1312668E+00
        -11   -1    0    0    0    0  0.00000000000E+00  0.00000000000E+00  0.45593999997E+02  0.45594000000E+02  0.51100000000E-03 0.  1.
         11   -1    0    0    0    0 -0.00000000000E+00 -0.00000000000E+00 -0.45593999997E+02  0.45594000000E+02  0.51100000000E-03 0. -1.
    9900012    2    1    2    0    0  0.11401667642E+02 -0.12890253181E+02  0.39843027444E+02  0.47787268578E+02  0.19999988753E+02 0.  0.
         12    1    1    2    0    0 -0.11401667642E+02  0.12890253181E+02 -0.39843027444E+02  0.43400731422E+02  0.00000000000E+00 0. -1.
         11    1    3    3    0    0 -0.11475225789E+01  0.10624229598E+01 -0.46294651695E+00  0.16309108968E+01  0.51100000000E-03 0. -1.
        -11    1    3    3    0    0  0.11644459524E+02 -0.13215867966E+02  0.41119951537E+02  0.44733689970E+02  0.51100000000E-03 0.  1.
        -12    1    3    3    0    0  0.90473069743E+00 -0.73680817511E+00 -0.81397757590E+00  0.14226677110E+01  0.00000000000E+00 0.  1.
</event>
<event>
 7    1  0.4723144E-009  0.4778727E+02  0.7816164E-02  0.1312668E+00
        -11   -1    0    0    0    0  0.00000000000E+00  0.00000000000E+00  0.45593999997E+02  0.45594000000E+02  0.51100000000E-03 0.  1.
         11   -1    0    0    0    0 -0.00000000000E+00 -0.00000000000E+00 -0.45593999997E+02  0.45594000000E+02  0.51100000000E-03 0. -1.
    9900012    2    1    2    0    0  0.18803945844E+02 -0.10575264539E+02  0.37658979190E+02  0.47787270594E+02  0.19999997945E+02 0.  0.
         12    1    1    2    0    0 -0.18803945844E+02  0.10575264539E+02 -0.37658979190E+02  0.43400729406E+02  0.00000000000E+00 0. -1.
         11    1    3    3    0    0  0.23221997673E+01 -0.61862291856E+01  0.22921658858E+02  0.23855072592E+02  0.51100000000E-03 0. -1.
        -11    1    3    3    0    0  0.62912323790E+01 -0.37224201435E+01  0.10682899260E+02  0.12944510552E+02  0.51100000000E-03 0.  1.
         12    1    3    3    0    0  0.10190513698E+02 -0.66661520972E+00  0.40544210715E+01  0.10987687449E+02  0.00000000000E+00 0. -1.
</event>
<event>
 7    1  0.4723144E-009  0.4778726E+02  0.7816164E-02  0.1312668E+00
        -11   -1    0    0    0    0  0.00000000000E+00  0.00000000000E+00  0.45593999997E+02  0.45594000000E+02  0.51100000000E-03 0.  1.
         11   -1    0    0    0    0 -0.00000000000E+00 -0.00000000000E+00 -0.45593999997E+02  0.45594000000E+02  0.51100000000E-03 0. -1.
    9900012    2    1    2    0    0  0.36866926748E+02 -0.12477803412E+02  0.19203071501E+02  0.47787264743E+02  0.19999971268E+02 0.  0.
         12    1    1    2    0    0 -0.36866926748E+02  0.12477803412E+02 -0.19203071501E+02  0.43400735257E+02  0.00000000000E+00 0. -1.
         11    1    3    3    0    0  0.67417064344E+01  0.78220385094E+00  0.70204389647E+01  0.97646818704E+01  0.51100000000E-03 0. -1.
        -11    1    3    3    0    0  0.11126716872E+02 -0.10600740667E+02  0.13344210341E+00  0.15368712962E+02  0.51100000000E-03 0.  1.
        -12    1    3    3    0    0  0.18998503441E+02 -0.26592665953E+01  0.12049190433E+02  0.22653869911E+02  0.00000000000E+00 0.  1.
</event>
<event>
 7    1  0.4723144E-009  0.4778727E+02  0.7816164E-02  0.1312668E+00
        -11   -1    0    0    0    0  0.00000000000E+00  0.00000000000E+00  0.45593999997E+02  0.45594000000E+02  0.51100000000E-03 0. -1.
         11   -1    0    0    0    0 -0.00000000000E+00 -0.00000000000E+00 -0.45593999997E+02  0.45594000000E+02  0.51100000000E-03 0.  1.
    9900012    2    1    2    0    0  0.26171346628E+02  0.84841206339E+00 -0.34611615057E+02  0.47787273230E+02  0.20000009964E+02 0.  0.
         12    1    1    2    0    0 -0.26171346628E+02 -0.84841206339E+00  0.34611615057E+02  0.43400726770E+02  0.00000000000E+00 0. -1.
         11    1    3    3    0    0  0.10592588783E+02  0.77065554891E+00 -0.25824354751E+02  0.27923003879E+02  0.51100000000E-03 0. -1.
        -11    1    3    3    0    0  0.96456505589E+01  0.42663507377E+01 -0.49659826729E+01  0.11657671615E+02  0.51100000000E-03 0.  1.
         12    1    3    3    0    0  0.59331072863E+01 -0.41885942232E+01 -0.38212776329E+01  0.82065977351E+01  0.00000000000E+00 0. -1.
</event>
<event>
 7    1  0.4723144E-009  0.4778727E+02  0.7816164E-02  0.1312668E+00
        -11   -1    0    0    0    0  0.00000000000E+00  0.00000000000E+00  0.45593999997E+02  0.45594000000E+02  0.51100000000E-03 0.  1.
         11   -1    0    0    0    0 -0.00000000000E+00 -0.00000000000E+00 -0.45593999997E+02  0.45594000000E+02  0.51100000000E-03 0. -1.
    9900012    2    1    2    0    0 -0.65226565296E+01  0.15388837552E+02  0.40053238017E+02  0.47787271377E+02  0.20000001514E+02 0.  0.
         12    1    1    2    0    0  0.65226565296E+01 -0.15388837552E+02 -0.40053238017E+02  0.43400728623E+02  0.00000000000E+00 0. -1.
         11    1    3    3    0    0 -0.20545759687E+01  0.49173337113E+01  0.26717282900E+01  0.59615086645E+01  0.51100000000E-03 0. -1.
        -11    1    3    3    0    0 -0.69090086541E+01  0.13322825522E+02  0.29731909343E+02  0.33304932276E+02  0.51100000000E-03 0.  1.
        -12    1    3    3    0    0  0.24409280933E+01 -0.28513216813E+01  0.76496003842E+01  0.85208304364E+01  0.00000000000E+00 0.  1.
</event>
<event>
 7    1  0.4723144E-009  0.4778727E+02  0.7816164E-02  0.1312668E+00
        -11   -1    0    0    0    0  0.00000000000E+00  0.00000000000E+00  0.45593999997E+02  0.45594000000E+02  0.51100000000E-03 0.  1.
         11   -1    0    0    0    0 -0.00000000000E+00 -0.00000000000E+00 -0.45593999997E+02  0.45594000000E+02  0.51100000000E-03 0. -1.
    9900012    2    1    2    0    0  0.14736783997E+02  0.36223247525E+02  0.18823573879E+02  0.47787269621E+02  0.19999993512E+02 0.  0.
         12    1    1    2    0    0 -0.14736783997E+02 -0.36223247525E+02 -0.18823573879E+02  0.43400730379E+02  0.00000000000E+00 0. -1.
         11    1    3    3    0    0  0.78251006514E+01  0.22413573365E+02  0.21937679691E+01  0.23841415423E+02  0.51100000000E-03 0. -1.
        -11    1    3    3    0    0  0.81410018884E+01  0.89772867535E+01  0.10425763267E+02  0.15986373233E+02  0.51100000000E-03 0.  1.
         12    1    3    3    0    0 -0.12293185423E+01  0.48323874060E+01  0.62040426429E+01  0.79594809652E+01  0.00000000000E+00 0. -1.
</event>
<event>
 7    1  0.4723144E-009  0.4778727E+02  0.7816164E-02  0.1312668E+00
        -11   -1    0    0    0    0  0.00000000000E+00  0.00000000000E+00  0.45593999997E+02  0.45594000000E+02  0.51100000000E-03 0.  1.
         11   -1    0    0    0    0 -0.00000000000E+00 -0.00000000000E+00 -0.45593999997E+02  0.45594000000E+02  0.51100000000E-03 0. -1.
    9900012    2    1    2    0    0 -0.66381260025E+00  0.18764918909E+01  0.43355059488E+02  0.47787273598E+02  0.20000011642E+02 0.  0.
         12    1    1    2    0    0  0.66381260025E+00 -0.18764918909E+01 -0.43355059488E+02  0.43400726402E+02  0.00000000000E+00 0. -1.
         11    1    3    3    0    0  0.60818639937E+01 -0.40145708712E+01  0.15231036612E+02  0.16884618013E+02  0.51100000000E-03 0. -1.
        -11    1    3    3    0    0 -0.28284890391E+01  0.69421160167E+01  0.23894608128E+02  0.25042875692E+02  0.51100000000E-03 0.  1.
        -12    1    3    3    0    0 -0.39171875548E+01 -0.10510532547E+01  0.42294147479E+01  0.58597798929E+01  0.00000000000E+00 0.  1.
</event>
<event>
 7    1  0.4723144E-009  0.4778727E+02  0.7816164E-02  0.1312668E+00
        -11   -1    0    0    0    0  0.00000000000E+00  0.00000000000E+00  0.45593999997E+02  0.45594000000E+02  0.51100000000E-03 0.  1.
         11   -1    0    0    0    0 -0.00000000000E+00 -0.00000000000E+00 -0.45593999997E+02  0.45594000000E+02  0.51100000000E-03 0. -1.
    9900012    2    1    2    0    0 -0.34798822754E+02  0.10985687409E+02  0.23494261679E+02  0.47787265850E+02  0.19999976318E+02 0.  0.
         12    1    1    2    0    0  0.34798822754E+02 -0.10985687409E+02 -0.23494261679E+02  0.43400734150E+02  0.00000000000E+00 0. -1.
         11    1    3    3    0    0  0.12061981947E+01  0.21573960411E+01  0.26248887218E+01  0.36054559803E+01  0.51100000000E-03 0. -1.
        -11    1    3    3    0    0 -0.19309062302E+02  0.22018665995E+01  0.46565431658E+01  0.19984281273E+02  0.51100000000E-03 0.  1.
        -12    1    3    3    0    0 -0.16695958647E+02  0.66264247686E+01  0.16212829791E+02  0.24197528597E+02  0.00000000000E+00 0.  1.
</event>
<event>
 7    1  0.4723144E-009  0.4778728E+02  0.7816164E-02  0.1312668E+00
        -11   -1    0    0    0    0  0.00000000000E+00  0.00000000000E+00  0.45593999997E+02  0.45594000000E+02  0.51100000000E-03 0.  1.
         11   -1    0    0    0    0 -0.00000000000E+00 -0.00000000000E+00 -0.45593999997E+02  0.45594000000E+02  0.51100000000E-03 0. -1.
    9900012    2    1    2    0    0  0.29537892567E+02 -0.11003525121E+02  0.29833839174E+02  0.47787278551E+02  0.20000034227E+02 0.  0.
         12    1    1    2    0    0 -0.29537892567E+02  0.11003525121E+02 -0.29833839174E+02  0.43400721449E+02  0.00000000000E+00 0. -1.
         11    1    3    3    0    0 -0.34856609822E+00 -0.57359217238E+00  0.63919481061E+01  0.64270916562E+01  0.51100000000E-03 0. -1.
        -11    1    3    3    0    0  0.25225340982E+02 -0.11821005942E+02  0.23574685862E+02  0.36494106688E+02  0.51100000000E-03 0.  1.
        -12    1    3    3    0    0  0.46611176830E+01  0.13910729937E+01 -0.13279479442E+00  0.48660802075E+01  0.00000000000E+00 0.  1.
</event>
<event>
 7    1  0.4723144E-009  0.4778727E+02  0.7816164E-02  0.1312668E+00
        -11   -1    0    0    0    0  0.00000000000E+00  0.00000000000E+00  0.45593999997E+02  0.45594000000E+02  0.51100000000E-03 0. -1.
         11   -1    0    0    0    0 -0.00000000000E+00 -0.00000000000E+00 -0.45593999997E+02  0.45594000000E+02  0.51100000000E-03 0.  1.
    9900012    2    1    2    0    0  0.27578122384E+02 -0.33397794366E+02 -0.27673200422E+01  0.47787267714E+02  0.19999984815E+02 0.  0.
         12    1    1    2    0    0 -0.27578122384E+02  0.33397794366E+02  0.27673200422E+01  0.43400732286E+02  0.00000000000E+00 0. -1.
         11    1    3    3    0    0  0.18055106694E+02 -0.25909062611E+02 -0.34716238412E+01  0.31769774558E+02  0.51100000000E-03 0.  1.
        -11    1    3    3    0    0  0.63370404896E+01  0.13379166455E+01 -0.75527192787E+00  0.65206241314E+01  0.51100000000E-03 0. -1.
         12    1    3    3    0    0  0.31859752005E+01 -0.88266484004E+01  0.14595757268E+01  0.94968690243E+01  0.00000000000E+00 0. -1.
</event>
<event>
 7    1  0.4723144E-009  0.4778728E+02  0.7816164E-02  0.1312668E+00
        -11   -1    0    0    0    0  0.00000000000E+00  0.00000000000E+00  0.45593999997E+02  0.45594000000E+02  0.51100000000E-03 0.  1.
         11   -1    0    0    0    0 -0.00000000000E+00 -0.00000000000E+00 -0.45593999997E+02  0.45594000000E+02  0.51100000000E-03 0. -1.
    9900012    2    1    2    0    0 -0.11799394502E+02  0.38368240784E+02  0.16500766059E+02  0.47787275444E+02  0.20000020059E+02 0.  0.
         12    1    1    2    0    0  0.11799394502E+02 -0.38368240784E+02 -0.16500766059E+02  0.43400724556E+02  0.00000000000E+00 0. -1.
         11    1    3    3    0    0 -0.23319907584E+01  0.18320881450E+02 -0.17245681784E+01  0.18549043471E+02  0.51100000000E-03 0. -1.
        -11    1    3    3    0    0 -0.19507896875E+01  0.77326586476E+01  0.93933002199E+01  0.12322080971E+02  0.51100000000E-03 0.  1.
         12    1    3    3    0    0 -0.75166140556E+01  0.12314700686E+02  0.88320340179E+01  0.16916151002E+02  0.00000000000E+00 0. -1.
</event>
<event>
 7    1  0.4723144E-009  0.4778727E+02  0.7816164E-02  0.1312668E+00
        -11   -1    0    0    0    0  0.00000000000E+00  0.00000000000E+00  0.45593999997E+02  0.45594000000E+02  0.51100000000E-03 0.  1.
         11   -1    0    0    0    0 -0.00000000000E+00 -0.00000000000E+00 -0.45593999997E+02  0.45594000000E+02  0.51100000000E-03 0. -1.
    9900012    2    1    2    0    0  0.10534498089E+02 -0.39289013200E+02  0.15133441813E+02  0.47787271097E+02  0.20000000237E+02 0.  0.
         12    1    1    2    0    0 -0.10534498089E+02  0.39289013200E+02 -0.15133441813E+02  0.43400728903E+02  0.00000000000E+00 0. -1.
         11    1    3    3    0    0  0.43454890017E+01 -0.11072351858E+01  0.49625799203E+01  0.66885307914E+01  0.51100000000E-03 0. -1.
        -11    1    3    3    0    0  0.62108441890E+01 -0.18018961005E+02  0.84937789857E+01  0.20866284359E+02  0.51100000000E-03 0.  1.
         12    1    3    3    0    0 -0.21835101185E-01 -0.20162817010E+02  0.16770829069E+01  0.20232455946E+02  0.00000000000E+00 0. -1.
</event>
<event>
 7    1  0.4723144E-009  0.4778727E+02  0.7816164E-02  0.1312668E+00
        -11   -1    0    0    0    0  0.00000000000E+00  0.00000000000E+00  0.45593999997E+02  0.45594000000E+02  0.51100000000E-03 0.  1.
         11   -1    0    0    0    0 -0.00000000000E+00 -0.00000000000E+00 -0.45593999997E+02  0.45594000000E+02  0.51100000000E-03 0. -1.
    9900012    2    1    2    0    0 -0.43365688687E+02 -0.13686114715E+01  0.10805821036E+01  0.47787266017E+02  0.19999977076E+02 0.  0.
         12    1    1    2    0    0  0.43365688687E+02  0.13686114715E+01 -0.10805821036E+01  0.43400733983E+02  0.00000000000E+00 0. -1.
         11    1    3    3    0    0 -0.58018745558E+01 -0.24703904564E+01 -0.65525081171E+01  0.90939507506E+01  0.51100000000E-03 0. -1.
        -11    1    3    3    0    0 -0.26316264794E+02  0.20499180435E+01  0.32945662373E+01  0.26600791786E+02  0.51100000000E-03 0.  1.
         12    1    3    3    0    0 -0.11247549337E+02 -0.94813905859E+00  0.43385239834E+01  0.12092523480E+02  0.00000000000E+00 0. -1.
</event>
<event>
 7    1  0.4723144E-009  0.4778727E+02  0.7816164E-02  0.1312668E+00
        -11   -1    0    0    0    0  0.00000000000E+00  0.00000000000E+00  0.45593999997E+02  0.45594000000E+02  0.51100000000E-03 0.  1.
         11   -1    0    0    0    0 -0.00000000000E+00 -0.00000000000E+00 -0.45593999997E+02  0.45594000000E+02  0.51100000000E-03 0. -1.
    9900012    2    1    2    0    0  0.15514201693E+02  0.39639348714E+02 -0.84649043110E+01  0.47787273904E+02  0.20000013038E+02 0.  0.
         12    1    1    2    0    0 -0.15514201693E+02 -0.39639348714E+02  0.84649043110E+01  0.43400726096E+02  0.00000000000E+00 0. -1.
         11    1    3    3    0    0  0.12842953508E+02  0.20236651319E+02 -0.78756275960E+01  0.25228734049E+02  0.51100000000E-03 0. -1.
        -11    1    3    3    0    0 -0.32449997411E+00  0.15432878669E+02  0.38311986198E+01  0.15904625974E+02  0.51100000000E-03 0.  1.
        -12    1    3    3    0    0  0.29957481597E+01  0.39698187255E+01 -0.44204753347E+01  0.66539138809E+01  0.00000000000E+00 0.  1.
</event>
<event>
 7    1  0.4723144E-009  0.4778727E+02  0.7816164E-02  0.1312668E+00
        -11   -1    0    0    0    0  0.00000000000E+00  0.00000000000E+00  0.45593999997E+02  0.45594000000E+02  0.51100000000E-03 0. -1.
         11   -1    0    0    0    0 -0.00000000000E+00 -0.00000000000E+00 -0.45593999997E+02  0.45594000000E+02  0.51100000000E-03 0.  1.
    9900012    2    1    2    0    0  0.11580517886E+02  0.16397604786E+02 -0.38479001231E+02  0.47787269903E+02  0.19999994795E+02 0.  0.
         12    1    1    2    0    0 -0.11580517886E+02 -0.16397604786E+02  0.38479001231E+02  0.43400730097E+02  0.00000000000E+00 0. -1.
         11    1    3    3    0    0 -0.11963807805E+01  0.37195255334E+00 -0.34962036150E+01  0.37139084066E+01  0.51100000000E-03 0. -1.
        -11    1    3    3    0    0 -0.61758787024E+00  0.13067573864E+02 -0.16521262775E+02  0.21073562238E+02  0.51100000000E-03 0.  1.
        -12    1    3    3    0    0  0.13394486536E+02  0.29580783688E+01 -0.18461534841E+02  0.22999799258E+02  0.00000000000E+00 0.  1.
</event>
<event>
 7    1  0.4723144E-009  0.4778727E+02  0.7816164E-02  0.1312668E+00
        -11   -1    0    0    0    0  0.00000000000E+00  0.00000000000E+00  0.45593999997E+02  0.45594000000E+02  0.51100000000E-03 0. -1.
         11   -1    0    0    0    0 -0.00000000000E+00 -0.00000000000E+00 -0.45593999997E+02  0.45594000000E+02  0.51100000000E-03 0.  1.
    9900012    2    1    2    0    0 -0.32222905122E+02 -0.28667028897E+02 -0.48486203441E+01  0.47787270979E+02  0.19999999702E+02 0.  0.
         12    1    1    2    0    0  0.32222905122E+02  0.28667028897E+02  0.48486203441E+01  0.43400729021E+02  0.00000000000E+00 0. -1.
         11    1    3    3    0    0 -0.17759087688E+00  0.16313731382E+01 -0.15747384654E+01  0.22743610819E+01  0.51100000000E-03 0. -1.
        -11    1    3    3    0    0 -0.19723584113E+02 -0.25257225826E+02 -0.31360703142E+01  0.32199101912E+02  0.51100000000E-03 0.  1.
         12    1    3    3    0    0 -0.12321730133E+02 -0.50411762092E+01 -0.13781156448E+00  0.13313807985E+02  0.00000000000E+00 0. -1.
</event>
<event>
 7    1  0.4723144E-009  0.4778724E+02  0.7816164E-02  0.1312668E+00
        -11   -1    0    0    0    0  0.00000000000E+00  0.00000000000E+00  0.45593999997E+02  0.45594000000E+02  0.51100000000E-03 0.  1.
         11   -1    0    0    0    0 -0.00000000000E+00 -0.00000000000E+00 -0.45593999997E+02  0.45594000000E+02  0.51100000000E-03 0. -1.
    9900012    2    1    2    0    0 -0.31643933128E+02 -0.26219078066E+02  0.13958790835E+02  0.47787235029E+02  0.19999835793E+02 0.  0.
         12    1    1    2    0    0  0.31643933128E+02  0.26219078066E+02 -0.13958790835E+02  0.43400764971E+02  0.00000000000E+00 0. -1.
         11    1    3    3    0    0 -0.12321007048E+02 -0.82078081058E+01  0.11284192287E+02  0.18614734068E+02  0.51100000000E-03 0. -1.
        -11    1    3    3    0    0 -0.11582124331E+02 -0.55091344252E+01 -0.33906022553E+01  0.13266210840E+02  0.51100000000E-03 0.  1.
        -12    1    3    3    0    0 -0.77408017489E+01 -0.12502135535E+02  0.60652008033E+01  0.15906290122E+02  0.00000000000E+00 0.  1.
</event>
<event>
 7    1  0.4723144E-009  0.4778729E+02  0.7816164E-02  0.1312668E+00
        -11   -1    0    0    0    0  0.00000000000E+00  0.00000000000E+00  0.45593999997E+02  0.45594000000E+02  0.51100000000E-03 0. -1.
         11   -1    0    0    0    0 -0.00000000000E+00 -0.00000000000E+00 -0.45593999997E+02  0.45594000000E+02  0.51100000000E-03 0.  1.
    9900012    2    1    2    0    0  0.59076043208E+01  0.41559530761E+02 -0.11023955249E+02  0.47787286006E+02  0.20000068215E+02 0.  0.
         12    1    1    2    0    0 -0.59076043208E+01 -0.41559530761E+02  0.11023955249E+02  0.43400713994E+02  0.00000000000E+00 0. -1.
         11    1    3    3    0    0 -0.78616205660E+00  0.43783536032E+01 -0.74678894492E+00  0.45106235759E+01  0.51100000000E-03 0. -1.
        -11    1    3    3    0    0  0.72454526418E+01  0.38592293089E+02 -0.11925735950E+02  0.41037602855E+02  0.51100000000E-03 0.  1.
        -12    1    3    3    0    0 -0.55168626443E+00 -0.14111159313E+01  0.16485696457E+01  0.22390595755E+01  0.00000000000E+00 0.  1.
</event>
<event>
 7    1  0.4723144E-009  0.4778727E+02  0.7816164E-02  0.1312668E+00
        -11   -1    0    0    0    0  0.00000000000E+00  0.00000000000E+00  0.45593999997E+02  0.45594000000E+02  0.51100000000E-03 0.  1.
         11   -1    0    0    0    0 -0.00000000000E+00 -0.00000000000E+00 -0.45593999997E+02  0.45594000000E+02  0.51100000000E-03 0. -1.
    9900012    2    1    2    0    0  0.21017076000E+02 -0.36937006752E+02  0.88070019104E+01  0.47787271503E+02  0.20000002092E+02 0.  0.
         12    1    1    2    0    0 -0.21017076000E+02  0.36937006752E+02 -0.88070019104E+01  0.43400728497E+02  0.00000000000E+00 0. -1.
         11    1    3    3    0    0 -0.41049654386E-01 -0.19575158925E+01  0.39263812654E+00  0.19969272653E+01  0.51100000000E-03 0. -1.
        -11    1    3    3    0    0  0.14306053445E+02 -0.16191476216E+02 -0.44236884137E+01  0.22054389283E+02  0.51100000000E-03 0.  1.
        -12    1    3    3    0    0  0.67520722092E+01 -0.18788014644E+02  0.12838052198E+02  0.23735954955E+02  0.00000000000E+00 0.  1.
</event>
<event>
 7    1  0.4723144E-009  0.4778727E+02  0.7816164E-02  0.1312668E+00
        -11   -1    0    0    0    0  0.00000000000E+00  0.00000000000E+00  0.45593999997E+02  0.45594000000E+02  0.51100000000E-03 0.  1.
         11   -1    0    0    0    0 -0.00000000000E+00 -0.00000000000E+00 -0.45593999997E+02  0.45594000000E+02  0.51100000000E-03 0. -1.
    9900012    2    1    2    0    0  0.30940020647E+02 -0.20950148529E+02  0.22077815574E+02  0.47787267961E+02  0.19999985943E+02 0.  0.
         12    1    1    2    0    0 -0.30940020647E+02  0.20950148529E+02 -0.22077815574E+02  0.43400732039E+02  0.00000000000E+00 0. -1.
         11    1    3    3    0    0  0.18253407906E+02 -0.67974163901E+01  0.16277120861E+02  0.25383782885E+02  0.51100000000E-03 0. -1.
        -11    1    3    3    0    0  0.10325646132E+02 -0.13356571747E+02  0.90077040608E+00  0.16906459253E+02  0.51100000000E-03 0.  1.
        -12    1    3    3    0    0  0.23609666090E+01 -0.79616039166E+00  0.48999243067E+01  0.54970258239E+01  0.00000000000E+00 0.  1.
</event>
<event>
 7    1  0.4723144E-009  0.4778728E+02  0.7816164E-02  0.1312668E+00
        -11   -1    0    0    0    0  0.00000000000E+00  0.00000000000E+00  0.45593999997E+02  0.45594000000E+02  0.51100000000E-03 0.  1.
         11   -1    0    0    0    0 -0.00000000000E+00 -0.00000000000E+00 -0.45593999997E+02  0.45594000000E+02  0.51100000000E-03 0. -1.
    9900012    2    1    2    0    0 -0.33353812604E+02 -0.18892586761E+02  0.20352301041E+02  0.47787276418E+02  0.20000024500E+02 0.  0.
         12    1    1    2    0    0  0.33353812604E+02  0.18892586761E+02 -0.20352301041E+02  0.43400723582E+02  0.00000000000E+00 0. -1.
         11    1    3    3    0    0 -0.66757936867E+01  0.31937280502E+01  0.24560928880E+01  0.77973401069E+01  0.51100000000E-03 0.  1.
        -11    1    3    3    0    0 -0.10374954783E+02 -0.12145735367E+02  0.42781754053E+01  0.16536667119E+02  0.51100000000E-03 0. -1.
        -12    1    3    3    0    0 -0.16303064135E+02 -0.99405794445E+01  0.13618032748E+02  0.23453269192E+02  0.00000000000E+00 0.  1.
</event>
<event>
 7    1  0.4723144E-009  0.4778727E+02  0.7816164E-02  0.1312668E+00
        -11   -1    0    0    0    0  0.00000000000E+00  0.00000000000E+00  0.45593999997E+02  0.45594000000E+02  0.51100000000E-03 0.  1.
         11   -1    0    0    0    0 -0.00000000000E+00 -0.00000000000E+00 -0.45593999997E+02  0.45594000000E+02  0.51100000000E-03 0. -1.
    9900012    2    1    2    0    0 -0.60788327654E+01  0.13374475385E+02  0.40838638927E+02  0.47787271561E+02  0.20000002357E+02 0.  0.
         12    1    1    2    0    0  0.60788327654E+01 -0.13374475385E+02 -0.40838638927E+02  0.43400728439E+02  0.00000000000E+00 0. -1.
         11    1    3    3    0    0 -0.21993306190E+01  0.63862613890E+01  0.91426218678E+01  0.11367010362E+02  0.51100000000E-03 0. -1.
        -11    1    3    3    0    0  0.42514793180E+01  0.85897059953E+01  0.18560993449E+02  0.20889437608E+02  0.51100000000E-03 0.  1.
        -12    1    3    3    0    0 -0.81309814644E+01 -0.16014919996E+01  0.13135023610E+02  0.15530823591E+02  0.00000000000E+00 0.  1.
</event>
<event>
 7    1  0.4723144E-009  0.4778727E+02  0.7816164E-02  0.1312668E+00
        -11   -1    0    0    0    0  0.00000000000E+00  0.00000000000E+00  0.45593999997E+02  0.45594000000E+02  0.51100000000E-03 0.  1.
         11   -1    0    0    0    0 -0.00000000000E+00 -0.00000000000E+00 -0.45593999997E+02  0.45594000000E+02  0.51100000000E-03 0. -1.
    9900012    2    1    2    0    0  0.38871674564E+02 -0.14411372135E+02  0.12842443841E+02  0.47787273116E+02  0.20000009446E+02 0.  0.
         12    1    1    2    0    0 -0.38871674564E+02  0.14411372135E+02 -0.12842443841E+02  0.43400726884E+02  0.00000000000E+00 0. -1.
         11    1    3    3    0    0  0.69012910746E+01 -0.58746837345E+01  0.88548157811E+01  0.12670733612E+02  0.51100000000E-03 0. -1.
        -11    1    3    3    0    0  0.32454537965E+02 -0.68964821921E+01  0.38038089786E+01  0.33396518743E+02  0.51100000000E-03 0.  1.
        -12    1    3    3    0    0 -0.48415447605E+00 -0.16402062087E+01  0.18381908131E+00  0.17200207610E+01  0.00000000000E+00 0.  1.
</event>
<event>
 7    1  0.4723144E-009  0.4778727E+02  0.7816164E-02  0.1312668E+00
        -11   -1    0    0    0    0  0.00000000000E+00  0.00000000000E+00  0.45593999997E+02  0.45594000000E+02  0.51100000000E-03 0.  1.
         11   -1    0    0    0    0 -0.00000000000E+00 -0.00000000000E+00 -0.45593999997E+02  0.45594000000E+02  0.51100000000E-03 0. -1.
    9900012    2    1    2    0    0 -0.30550258902E+02 -0.30812350721E+02  0.95078421552E+00  0.47787271129E+02  0.20000000386E+02 0.  0.
         12    1    1    2    0    0  0.30550258902E+02  0.30812350721E+02 -0.95078421552E+00  0.43400728871E+02  0.00000000000E+00 0. -1.
         11    1    3    3    0    0 -0.10530005196E+02 -0.44700463388E+01 -0.48385331307E+00  0.11449735281E+02  0.51100000000E-03 0. -1.
        -11    1    3    3    0    0 -0.21598050704E+02 -0.20360053207E+02  0.33273100383E+01  0.29867684094E+02  0.51100000000E-03 0.  1.
        -12    1    3    3    0    0  0.15777969988E+01 -0.59822511752E+01 -0.18926725097E+01  0.64698517542E+01  0.00000000000E+00 0.  1.
</event>
<event>
 7    1  0.4723144E-009  0.4778727E+02  0.7816164E-02  0.1312668E+00
        -11   -1    0    0    0    0  0.00000000000E+00  0.00000000000E+00  0.45593999997E+02  0.45594000000E+02  0.51100000000E-03 0.  1.
         11   -1    0    0    0    0 -0.00000000000E+00 -0.00000000000E+00 -0.45593999997E+02  0.45594000000E+02  0.51100000000E-03 0. -1.
    9900012    2    1    2    0    0 -0.22236439799E+02 -0.32198272919E+02  0.18773270112E+02  0.47787266082E+02  0.19999977376E+02 0.  0.
         12    1    1    2    0    0  0.22236439799E+02  0.32198272919E+02 -0.18773270112E+02  0.43400733918E+02  0.00000000000E+00 0. -1.
         11    1    3    3    0    0 -0.23693752399E+02 -0.21023124288E+02  0.12120111502E+02  0.33915523889E+02  0.51100000000E-03 0. -1.
        -11    1    3    3    0    0  0.14496644161E+01 -0.24376923964E+01  0.36718640945E+01  0.46396613377E+01  0.51100000000E-03 0.  1.
         12    1    3    3    0    0  0.76481835052E-02 -0.87374562341E+01  0.29812945153E+01  0.92320808556E+01  0.00000000000E+00 0. -1.
</event>
<event>
 7    1  0.4723144E-009  0.4778727E+02  0.7816164E-02  0.1312668E+00
        -11   -1    0    0    0    0  0.00000000000E+00  0.00000000000E+00  0.45593999997E+02  0.45594000000E+02  0.51100000000E-03 0.  1.
         11   -1    0    0    0    0 -0.00000000000E+00 -0.00000000000E+00 -0.45593999997E+02  0.45594000000E+02  0.51100000000E-03 0. -1.
    9900012    2    1    2    0    0  0.16514254077E+01 -0.42300688260E+02 -0.95680713123E+01  0.47787269341E+02  0.19999992231E+02 0.  0.
         12    1    1    2    0    0 -0.16514254077E+01  0.42300688260E+02  0.95680713123E+01  0.43400730659E+02  0.00000000000E+00 0. -1.
         11    1    3    3    0    0 -0.78373035136E+01 -0.26224530112E+02 -0.58601857471E+01  0.27990910725E+02  0.51100000000E-03 0. -1.
        -11    1    3    3    0    0  0.51141497692E+01 -0.12865424414E+02 -0.38436212779E+01  0.14368267050E+02  0.51100000000E-03 0.  1.
         12    1    3    3    0    0  0.43745791521E+01 -0.32107337343E+01  0.13573571269E+00  0.54280915665E+01  0.00000000000E+00 0. -1.
</event>
<event>
 7    1  0.4723144E-009  0.4778727E+02  0.7816164E-02  0.1312668E+00
        -11   -1    0    0    0    0  0.00000000000E+00  0.00000000000E+00  0.45593999997E+02  0.45594000000E+02  0.51100000000E-03 0. -1.
         11   -1    0    0    0    0 -0.00000000000E+00 -0.00000000000E+00 -0.45593999997E+02  0.45594000000E+02  0.51100000000E-03 0.  1.
    9900012    2    1    2    0    0  0.14714423983E+02  0.16575878416E+02 -0.37314196731E+02  0.47787270788E+02  0.19999998832E+02 0.  0.
         12    1    1    2    0    0 -0.14714423983E+02 -0.16575878416E+02  0.37314196731E+02  0.43400729212E+02  0.00000000000E+00 0. -1.
         11    1    3    3    0    0  0.65245486555E+00  0.82351630039E+01 -0.69067230030E+01  0.10767842400E+02  0.51100000000E-03 0. -1.
        -11    1    3    3    0    0  0.13172455688E+02  0.53162792092E+00 -0.17548420206E+02  0.21948650735E+02  0.51100000000E-03 0.  1.
        -12    1    3    3    0    0  0.88951342958E+00  0.78090874914E+01 -0.12859053522E+02  0.15070777653E+02  0.00000000000E+00 0.  1.
</event>
<event>
 7    1  0.4723144E-009  0.4778728E+02  0.7816164E-02  0.1312668E+00
        -11   -1    0    0    0    0  0.00000000000E+00  0.00000000000E+00  0.45593999997E+02  0.45594000000E+02  0.51100000000E-03 0.  1.
         11   -1    0    0    0    0 -0.00000000000E+00 -0.00000000000E+00 -0.45593999997E+02  0.45594000000E+02  0.51100000000E-03 0. -1.
    9900012    2    1    2    0    0  0.18447783607E+02 -0.13563420853E+01  0.39261462515E+02  0.47787276242E+02  0.20000023699E+02 0.  0.
         12    1    1    2    0    0 -0.18447783607E+02  0.13563420853E+01 -0.39261462515E+02  0.43400723758E+02  0.00000000000E+00 0. -1.
         11    1    3    3    0    0  0.33118842516E+01 -0.17049016986E+01  0.22692662486E+01  0.43617469741E+01  0.51100000000E-03 0. -1.
        -11    1    3    3    0    0  0.43448725240E+01 -0.77034076089E+01  0.10663447433E+02  0.13853862908E+02  0.51100000000E-03 0.  1.
        -12    1    3    3    0    0  0.10791026831E+02  0.80519672222E+01  0.26328748833E+02  0.29571666361E+02  0.00000000000E+00 0.  1.
</event>
<event>
 7    1  0.4723144E-009  0.4778727E+02  0.7816164E-02  0.1312668E+00
        -11   -1    0    0    0    0  0.00000000000E+00  0.00000000000E+00  0.45593999997E+02  0.45594000000E+02  0.51100000000E-03 0.  1.
         11   -1    0    0    0    0 -0.00000000000E+00 -0.00000000000E+00 -0.45593999997E+02  0.45594000000E+02  0.51100000000E-03 0. -1.
    9900012    2    1    2    0    0  0.45807496072E+01  0.18979156252E+02  0.38761217258E+02  0.47787267261E+02  0.19999982750E+02 0.  0.
         12    1    1    2    0    0 -0.45807496072E+01 -0.18979156252E+02 -0.38761217258E+02  0.43400732739E+02  0.00000000000E+00 0. -1.
         11    1    3    3    0    0 -0.71840215607E+01  0.47461622960E+01  0.11656285933E+02  0.14491557002E+02  0.51100000000E-03 0. -1.
        -11    1    3    3    0    0  0.40555198719E+01  0.91642969023E+01  0.15704499538E+02  0.18629623860E+02  0.51100000000E-03 0.  1.
         12    1    3    3    0    0  0.77092512959E+01  0.50686970534E+01  0.11400431787E+02  0.14666086400E+02  0.00000000000E+00 0. -1.
</event>
<event>
 7    1  0.4723144E-009  0.4778727E+02  0.7816164E-02  0.1312668E+00
        -11   -1    0    0    0    0  0.00000000000E+00  0.00000000000E+00  0.45593999997E+02  0.45594000000E+02  0.51100000000E-03 0.  1.
         11   -1    0    0    0    0 -0.00000000000E+00 -0.00000000000E+00 -0.45593999997E+02  0.45594000000E+02  0.51100000000E-03 0. -1.
    9900012    2    1    2    0    0  0.14152023742E+02 -0.27447769863E+02  0.30495301476E+02  0.47787271221E+02  0.20000000804E+02 0.  0.
         12    1    1    2    0    0 -0.14152023742E+02  0.27447769863E+02 -0.30495301476E+02  0.43400728779E+02  0.00000000000E+00 0. -1.
         11    1    3    3    0    0  0.48510617308E+01 -0.10543956050E+02  0.10561166462E+01  0.11654320732E+02  0.51100000000E-03 0.  1.
        -11    1    3    3    0    0  0.60708519585E+01 -0.40189985925E+01  0.13888664582E+02  0.15681281750E+02  0.51100000000E-03 0. -1.
         12    1    3    3    0    0  0.32301100528E+01 -0.12884815221E+02  0.15550520248E+02  0.20451668739E+02  0.00000000000E+00 0. -1.
</event>
<event>
 7    1  0.4723144E-009  0.4778727E+02  0.7816164E-02  0.1312668E+00
        -11   -1    0    0    0    0  0.00000000000E+00  0.00000000000E+00  0.45593999997E+02  0.45594000000E+02  0.51100000000E-03 0.  1.
         11   -1    0    0    0    0 -0.00000000000E+00 -0.00000000000E+00 -0.45593999997E+02  0.45594000000E+02  0.51100000000E-03 0. -1.
    9900012    2    1    2    0    0 -0.23964856658E+02  0.16343120048E+02  0.32283301549E+02  0.47787268596E+02  0.19999988835E+02 0.  0.
         12    1    1    2    0    0  0.23964856658E+02 -0.16343120048E+02 -0.32283301549E+02  0.43400731404E+02  0.00000000000E+00 0. -1.
         11    1    3    3    0    0 -0.25020866683E+01  0.11038749840E+02  0.13122465165E+02  0.17329556485E+02  0.51100000000E-03 0.  1.
        -11    1    3    3    0    0 -0.19556382704E+01 -0.15928230619E+01  0.45097664439E+00  0.25622229697E+01  0.51100000000E-03 0. -1.
         12    1    3    3    0    0 -0.19507131719E+02  0.68971932700E+01  0.18709859740E+02  0.27895489141E+02  0.00000000000E+00 0. -1.
</event>
<event>
 7    1 -0.4723144E-009  0.4778727E+02  0.7816164E-02  0.1312668E+00
        -11   -1    0    0    0    0  0.00000000000E+00  0.00000000000E+00  0.45593999997E+02  0.45594000000E+02  0.51100000000E-03 0. -1.
         11   -1    0    0    0    0 -0.00000000000E+00 -0.00000000000E+00 -0.45593999997E+02  0.45594000000E+02  0.51100000000E-03 0.  1.
    9900012    2    1    2    0    0 -0.27550922279E+02  0.22200271349E+02  0.25134000720E+02  0.47787270068E+02  0.19999995548E+02 0.  0.
         12    1    1    2    0    0  0.27550922279E+02 -0.22200271349E+02 -0.25134000720E+02  0.43400729932E+02  0.00000000000E+00 0. -1.
         11    1    3    3    0    0 -0.56531878525E+00  0.92451199692E+00  0.43234225345E+01  0.44571617016E+01  0.51100000000E-03 0. -1.
        -11    1    3    3    0    0 -0.26578136966E+02  0.15709127719E+02  0.21619123505E+02  0.37690324484E+02  0.51100000000E-03 0.  1.
        -12    1    3    3    0    0 -0.40746652799E+00  0.55666316331E+01 -0.80854531965E+00  0.56397838827E+01  0.00000000000E+00 0.  1.
</event>
<event>
 7    1  0.4723144E-009  0.4778727E+02  0.7816164E-02  0.1312668E+00
        -11   -1    0    0    0    0  0.00000000000E+00  0.00000000000E+00  0.45593999997E+02  0.45594000000E+02  0.51100000000E-03 0.  1.
         11   -1    0    0    0    0 -0.00000000000E+00 -0.00000000000E+00 -0.45593999997E+02  0.45594000000E+02  0.51100000000E-03 0. -1.
    9900012    2    1    2    0    0  0.41008230561E+02  0.11714013063E+02 -0.80455010133E+01  0.47787272329E+02  0.20000005859E+02 0.  0.
         12    1    1    2    0    0 -0.41008230561E+02 -0.11714013063E+02  0.80455010133E+01  0.43400727671E+02  0.00000000000E+00 0. -1.
         11    1    3    3    0    0  0.28343595435E+01  0.47220708092E-01 -0.63289637667E+01  0.69348112043E+01  0.51100000000E-03 0. -1.
        -11    1    3    3    0    0  0.32492573495E+02  0.65517758484E+01 -0.83381941534E+00  0.33157025714E+02  0.51100000000E-03 0.  1.
         12    1    3    3    0    0  0.56812975218E+01  0.51150165069E+01 -0.88271783120E+00  0.76954354111E+01  0.00000000000E+00 0. -1.
</event>
<event>
 7    1  0.4723144E-009  0.4778725E+02  0.7816164E-02  0.1312668E+00
        -11   -1    0    0    0    0  0.00000000000E+00  0.00000000000E+00  0.45593999997E+02  0.45594000000E+02  0.51100000000E-03 0.  1.
         11   -1    0    0    0    0 -0.00000000000E+00 -0.00000000000E+00 -0.45593999997E+02  0.45594000000E+02  0.51100000000E-03 0. -1.
    9900012    2    1    2    0    0  0.27588277310E+02  0.32490438171E+02 -0.81782425617E+01  0.47787248061E+02  0.19999895209E+02 0.  0.
         12    1    1    2    0    0 -0.27588277310E+02 -0.32490438171E+02  0.81782425617E+01  0.43400751939E+02  0.00000000000E+00 0. -1.
         11    1    3    3    0    0  0.20484699698E+02  0.27103298167E+02 -0.10766114705E+02  0.35638755862E+02  0.51100000000E-03 0. -1.
        -11    1    3    3    0    0  0.88265843255E+01  0.44995941925E+01  0.18737424610E+01  0.10082948469E+02  0.51100000000E-03 0.  1.
         12    1    3    3    0    0 -0.17230067131E+01  0.88754581087E+00  0.71412968218E+00  0.20655437306E+01  0.00000000000E+00 0. -1.
</event>
<event>
 7    1  0.4723144E-009  0.4778727E+02  0.7816164E-02  0.1312668E+00
        -11   -1    0    0    0    0  0.00000000000E+00  0.00000000000E+00  0.45593999997E+02  0.45594000000E+02  0.51100000000E-03 0.  1.
         11   -1    0    0    0    0 -0.00000000000E+00 -0.00000000000E+00 -0.45593999997E+02  0.45594000000E+02  0.51100000000E-03 0. -1.
    9900012    2    1    2    0    0 -0.72986245837E+01  0.42753504072E+02  0.15783489747E+01  0.47787271702E+02  0.20000003000E+02 0.  0.
         12    1    1    2    0    0  0.72986245837E+01 -0.42753504072E+02 -0.15783489747E+01  0.43400728298E+02  0.00000000000E+00 0. -1.
         11    1    3    3    0    0  0.29643390343E+01  0.17516728184E+02  0.35145109201E+01  0.18110076185E+02  0.51100000000E-03 0. -1.
        -11    1    3    3    0    0 -0.68611537019E+01  0.23574792613E+02 -0.46882836512E+01  0.24996525373E+02  0.51100000000E-03 0.  1.
        -12    1    3    3    0    0 -0.34018099162E+01  0.16619832756E+01  0.27521217058E+01  0.46806701441E+01  0.00000000000E+00 0.  1.
</event>
<event>
 7    1  0.4797302E-009  0.4778727E+02  0.7816164E-02  0.1312668E+00
        -11   -1    0    0    0    0  0.00000000000E+00  0.00000000000E+00  0.45593999997E+02  0.45594000000E+02  0.51100000000E-03 0. -1.
         11   -1    0    0    0    0 -0.00000000000E+00 -0.00000000000E+00 -0.45593999997E+02  0.45594000000E+02  0.51100000000E-03 0.  1.
    9900012    2    1    2    0    0 -0.39128209449E+02  0.73592103701E+01  0.17275661278E+02  0.47787271613E+02  0.20000002593E+02 0.  0.
         12    1    1    2    0    0  0.39128209449E+02 -0.73592103701E+01 -0.17275661278E+02  0.43400728387E+02  0.00000000000E+00 0. -1.
         11    1    3    3    0    0 -0.14019331431E+01  0.34004980036E+01 -0.19867485752E+01  0.41804274151E+01  0.51100000000E-03 0. -1.
        -11    1    3    3    0    0 -0.29868756791E+02  0.42875602643E+01  0.10787678707E+02  0.32045277615E+02  0.51100000000E-03 0.  1.
        -12    1    3    3    0    0 -0.78575195148E+01 -0.32884789785E+00  0.84747311461E+01  0.11561566583E+02  0.00000000000E+00 0.  1.
</event>
<event>
 7    1  0.5519202E-009  0.4778727E+02  0.7816164E-02  0.1312668E+00
        -11   -1    0    0    0    0  0.00000000000E+00  0.00000000000E+00  0.45593999997E+02  0.45594000000E+02  0.51100000000E-03 0.  1.
         11   -1    0    0    0    0 -0.00000000000E+00 -0.00000000000E+00 -0.45593999997E+02  0.45594000000E+02  0.51100000000E-03 0. -1.
    9900012    2    1    2    0    0  0.35598519564E+02  0.13041183664E+02  0.21125723717E+02  0.47787271099E+02  0.20000000250E+02 0.  0.
         12    1    1    2    0    0 -0.35598519564E+02 -0.13041183664E+02 -0.21125723717E+02  0.43400728901E+02  0.00000000000E+00 0. -1.
         11    1    3    3    0    0  0.98777876253E+01  0.18950262861E+01 -0.16216423030E+01  0.10187813162E+02  0.51100000000E-03 0. -1.
        -11    1    3    3    0    0  0.24626817680E+02  0.69644121018E+01  0.18932259341E+02  0.31834158211E+02  0.51100000000E-03 0.  1.
         12    1    3    3    0    0  0.10939142586E+01  0.41817452763E+01  0.38151066796E+01  0.57652997266E+01  0.00000000000E+00 0. -1.
</event>
<event>
 7    1  0.4723144E-009  0.4778726E+02  0.7816164E-02  0.1312668E+00
        -11   -1    0    0    0    0  0.00000000000E+00  0.00000000000E+00  0.45593999997E+02  0.45594000000E+02  0.51100000000E-03 0.  1.
         11   -1    0    0    0    0 -0.00000000000E+00 -0.00000000000E+00 -0.45593999997E+02  0.45594000000E+02  0.51100000000E-03 0. -1.
    9900012    2    1    2    0    0 -0.30562860206E+02 -0.27558160822E+02  0.13787067449E+02  0.47787264053E+02  0.19999968123E+02 0.  0.
         12    1    1    2    0    0  0.30562860206E+02  0.27558160822E+02 -0.13787067449E+02  0.43400735947E+02  0.00000000000E+00 0. -1.
         11    1    3    3    0    0 -0.31776221515E+01  0.31648905205E+01  0.15077651428E+01  0.47315082724E+01  0.51100000000E-03 0. -1.
        -11    1    3    3    0    0 -0.23721082179E+02 -0.25091363324E+02  0.97845723446E+01  0.35888774142E+02  0.51100000000E-03 0.  1.
         12    1    3    3    0    0 -0.36641558759E+01 -0.56316880186E+01  0.24947299617E+01  0.71669816383E+01  0.00000000000E+00 0. -1.
</event>
<event>
 7    1  0.4723144E-009  0.4778727E+02  0.7816164E-02  0.1312668E+00
        -11   -1    0    0    0    0  0.00000000000E+00  0.00000000000E+00  0.45593999997E+02  0.45594000000E+02  0.51100000000E-03 0.  1.
         11   -1    0    0    0    0 -0.00000000000E+00 -0.00000000000E+00 -0.45593999997E+02  0.45594000000E+02  0.51100000000E-03 0. -1.
    9900012    2    1    2    0    0 -0.67715758544E+01  0.15635815269E+02  0.39916038768E+02  0.47787272937E+02  0.20000008627E+02 0.  0.
         12    1    1    2    0    0  0.67715758544E+01 -0.15635815269E+02 -0.39916038768E+02  0.43400727063E+02  0.00000000000E+00 0. -1.
         11    1    3    3    0    0 -0.43976901224E+01  0.62502678504E+01  0.11397369312E+01  0.77268704627E+01  0.51100000000E-03 0. -1.
        -11    1    3    3    0    0 -0.16635366295E+01  0.90847605706E+01  0.34487129925E+02  0.35702413917E+02  0.51100000000E-03 0.  1.
         12    1    3    3    0    0 -0.71034910252E+00  0.30078684803E+00  0.42891719118E+01  0.43579885571E+01  0.00000000000E+00 0. -1.
</event>
<event>
 7    1  0.4723144E-009  0.4778727E+02  0.7816164E-02  0.1312668E+00
        -11   -1    0    0    0    0  0.00000000000E+00  0.00000000000E+00  0.45593999997E+02  0.45594000000E+02  0.51100000000E-03 0.  1.
         11   -1    0    0    0    0 -0.00000000000E+00 -0.00000000000E+00 -0.45593999997E+02  0.45594000000E+02  0.51100000000E-03 0. -1.
    9900012    2    1    2    0    0 -0.18009375891E+02 -0.99994255097E+01  0.38200746213E+02  0.47787272566E+02  0.20000006940E+02 0.  0.
         12    1    1    2    0    0  0.18009375891E+02  0.99994255097E+01 -0.38200746213E+02  0.43400727434E+02  0.00000000000E+00 0. -1.
         11    1    3    3    0    0 -0.69549244219E+01  0.20365610075E+01  0.69627850685E+01  0.10049822417E+02  0.51100000000E-03 0. -1.
        -11    1    3    3    0    0 -0.45964326071E+01 -0.62862028104E+01  0.27014197819E+02  0.28114238786E+02  0.51100000000E-03 0.  1.
        -12    1    3    3    0    0 -0.64580188617E+01 -0.57497837068E+01  0.42237633261E+01  0.96232113626E+01  0.00000000000E+00 0.  1.
</event>
<event>
 7    1  0.4723144E-009  0.4778727E+02  0.7816164E-02  0.1312668E+00
        -11   -1    0    0    0    0  0.00000000000E+00  0.00000000000E+00  0.45593999997E+02  0.45594000000E+02  0.51100000000E-03 0.  1.
         11   -1    0    0    0    0 -0.00000000000E+00 -0.00000000000E+00 -0.45593999997E+02  0.45594000000E+02  0.51100000000E-03 0. -1.
    9900012    2    1    2    0    0 -0.37846151117E+02 -0.17547237629E+02  0.11974412142E+02  0.47787271332E+02  0.20000001312E+02 0.  0.
         12    1    1    2    0    0  0.37846151117E+02  0.17547237629E+02 -0.11974412142E+02  0.43400728668E+02  0.00000000000E+00 0. -1.
         11    1    3    3    0    0 -0.19661165262E+02 -0.79585439660E+01  0.14642148262E+02  0.25773869471E+02  0.51100000000E-03 0.  1.
        -11    1    3    3    0    0 -0.17503168231E+02 -0.94753195074E+01 -0.68661375688E+00  0.19915170514E+02  0.51100000000E-03 0. -1.
        -12    1    3    3    0    0 -0.68181762364E+00 -0.11337415551E+00 -0.19811223626E+01  0.20982313473E+01  0.00000000000E+00 0.  1.
</event>
<event>
 7    1  0.4723144E-009  0.4778731E+02  0.7816164E-02  0.1312668E+00
        -11   -1    0    0    0    0  0.00000000000E+00  0.00000000000E+00  0.45593999997E+02  0.45594000000E+02  0.51100000000E-03 0. -1.
         11   -1    0    0    0    0 -0.00000000000E+00 -0.00000000000E+00 -0.45593999997E+02  0.45594000000E+02  0.51100000000E-03 0.  1.
    9900012    2    1    2    0    0  0.13620929914E+02  0.30782639920E+02 -0.27395611666E+02  0.47787306564E+02  0.20000161949E+02 0.  0.
         12    1    1    2    0    0 -0.13620929914E+02 -0.30782639920E+02  0.27395611666E+02  0.43400693436E+02  0.00000000000E+00 0. -1.
         11    1    3    3    0    0  0.99674551463E+01  0.15208325741E+02 -0.55751519488E+01  0.19019086556E+02  0.51100000000E-03 0. -1.
        -11    1    3    3    0    0  0.47498930471E+01  0.77751612689E+01 -0.54890641343E+01  0.10636937625E+02  0.51100000000E-03 0.  1.
         12    1    3    3    0    0 -0.10964182792E+01  0.77991529101E+01 -0.16331395583E+02  0.18131282383E+02  0.00000000000E+00 0. -1.
</event>
<event>
 7    1  0.4723144E-009  0.4778728E+02  0.7816164E-02  0.1312668E+00
        -11   -1    0    0    0    0  0.00000000000E+00  0.00000000000E+00  0.45593999997E+02  0.45594000000E+02  0.51100000000E-03 0.  1.
         11   -1    0    0    0    0 -0.00000000000E+00 -0.00000000000E+00 -0.45593999997E+02  0.45594000000E+02  0.51100000000E-03 0. -1.
    9900012    2    1    2    0    0  0.33129427749E+01 -0.20453982987E+01  0.43225720589E+02  0.47787283825E+02  0.20000058273E+02 0.  0.
         12    1    1    2    0    0 -0.33129427749E+01  0.20453982987E+01 -0.43225720589E+02  0.43400716175E+02  0.00000000000E+00 0. -1.
         11    1    3    3    0    0  0.13575376192E+01  0.58763716399E+01  0.60173694155E+01  0.85195884280E+01  0.51100000000E-03 0. -1.
        -11    1    3    3    0    0  0.34529684557E+01 -0.24214863621E+01  0.28812265261E+02  0.29119292867E+02  0.51100000000E-03 0.  1.
        -12    1    3    3    0    0 -0.14975633000E+01 -0.55002835766E+01  0.83960859131E+01  0.10148402530E+02  0.00000000000E+00 0.  1.
</event>
<event>
 7    1  0.4723144E-009  0.4778727E+02  0.7816164E-02  0.1312668E+00
        -11   -1    0    0    0    0  0.00000000000E+00  0.00000000000E+00  0.45593999997E+02  0.45594000000E+02  0.51100000000E-03 0.  1.
         11   -1    0    0    0    0 -0.00000000000E+00 -0.00000000000E+00 -0.45593999997E+02  0.45594000000E+02  0.51100000000E-03 0. -1.
    9900012    2    1    2    0    0 -0.32970883477E+02  0.26866432592E+02  0.86451736545E+01  0.47787269764E+02  0.19999994163E+02 0.  0.
         12    1    1    2    0    0  0.32970883477E+02 -0.26866432592E+02 -0.86451736545E+01  0.43400730236E+02  0.00000000000E+00 0. -1.
         11    1    3    3    0    0 -0.62015448674E+01  0.70333319373E+01 -0.50734969678E+01  0.10661486230E+02  0.51100000000E-03 0. -1.
        -11    1    3    3    0    0 -0.11310323281E+02  0.67585542014E+01  0.99990763131E+01  0.16540344464E+02  0.51100000000E-03 0.  1.
        -12    1    3    3    0    0 -0.15459015328E+02  0.13074546454E+02  0.37195943091E+01  0.20585439070E+02  0.00000000000E+00 0.  1.
</event>
<event>
 7    1  0.4723144E-009  0.4778728E+02  0.7816164E-02  0.1312668E+00
        -11   -1    0    0    0    0  0.00000000000E+00  0.00000000000E+00  0.45593999997E+02  0.45594000000E+02  0.51100000000E-03 0. -1.
         11   -1    0    0    0    0 -0.00000000000E+00 -0.00000000000E+00 -0.45593999997E+02  0.45594000000E+02  0.51100000000E-03 0.  1.
    9900012    2    1    2    0    0  0.12941870380E+02  0.29846282051E+02 -0.28728561890E+02  0.47787276164E+02  0.20000023344E+02 0.  0.
         12    1    1    2    0    0 -0.12941870380E+02 -0.29846282051E+02  0.28728561890E+02  0.43400723836E+02  0.00000000000E+00 0. -1.
         11    1    3    3    0    0  0.32817477381E+01 -0.14451756234E+01 -0.12895344147E+00  0.35881792110E+01  0.51100000000E-03 0. -1.
        -11    1    3    3    0    0  0.79059751007E+01  0.12476409387E+02 -0.11595828125E+02  0.18778404183E+02  0.51100000000E-03 0.  1.
         12    1    3    3    0    0  0.17541475416E+01  0.18815048287E+02 -0.17003780323E+02  0.25420692770E+02  0.00000000000E+00 0. -1.
</event>
<event>
 7    1  0.4723144E-009  0.4778727E+02  0.7816164E-02  0.1312668E+00
        -11   -1    0    0    0    0  0.00000000000E+00  0.00000000000E+00  0.45593999997E+02  0.45594000000E+02  0.51100000000E-03 0.  1.
         11   -1    0    0    0    0 -0.00000000000E+00 -0.00000000000E+00 -0.45593999997E+02  0.45594000000E+02  0.51100000000E-03 0. -1.
    9900012    2    1    2    0    0  0.33759761185E+02  0.16053341571E+02  0.22049755716E+02  0.47787274453E+02  0.20000015542E+02 0.  0.
         12    1    1    2    0    0 -0.33759761185E+02 -0.16053341571E+02 -0.22049755716E+02  0.43400725547E+02  0.00000000000E+00 0. -1.
         11    1    3    3    0    0  0.80530815038E+00 -0.14307224802E+01  0.15032433418E+01  0.22260343300E+01  0.51100000000E-03 0. -1.
        -11    1    3    3    0    0 -0.18134907081E+01  0.14591893055E+01  0.65164042399E+00  0.24171506947E+01  0.51100000000E-03 0.  1.
        -12    1    3    3    0    0  0.34767943743E+02  0.16024874746E+02  0.19894871950E+02  0.43144089429E+02  0.00000000000E+00 0.  1.
</event>
<event>
 7    1  0.4723144E-009  0.4778727E+02  0.7816164E-02  0.1312668E+00
        -11   -1    0    0    0    0  0.00000000000E+00  0.00000000000E+00  0.45593999997E+02  0.45594000000E+02  0.51100000000E-03 0.  1.
         11   -1    0    0    0    0 -0.00000000000E+00 -0.00000000000E+00 -0.45593999997E+02  0.45594000000E+02  0.51100000000E-03 0. -1.
    9900012    2    1    2    0    0 -0.11930054019E+02 -0.26377741005E+02  0.32334379320E+02  0.47787268492E+02  0.19999988362E+02 0.  0.
         12    1    1    2    0    0  0.11930054019E+02  0.26377741005E+02 -0.32334379320E+02  0.43400731508E+02  0.00000000000E+00 0. -1.
         11    1    3    3    0    0 -0.28466253664E+01 -0.17122263775E+02  0.17153656505E+02  0.24403342486E+02  0.51100000000E-03 0. -1.
        -11    1    3    3    0    0 -0.27142387803E+01 -0.93368466165E+01  0.13774857318E+02  0.16860916087E+02  0.51100000000E-03 0.  1.
         12    1    3    3    0    0 -0.63691898724E+01  0.81369386188E-01  0.14058654971E+01  0.65230099190E+01  0.00000000000E+00 0. -1.
</event>
<event>
 7    1  0.4723144E-009  0.4778727E+02  0.7816164E-02  0.1312668E+00
        -11   -1    0    0    0    0  0.00000000000E+00  0.00000000000E+00  0.45593999997E+02  0.45594000000E+02  0.51100000000E-03 0.  1.
         11   -1    0    0    0    0 -0.00000000000E+00 -0.00000000000E+00 -0.45593999997E+02  0.45594000000E+02  0.51100000000E-03 0. -1.
    9900012    2    1    2    0    0  0.14431039048E+02  0.19559847412E+02  0.35955257392E+02  0.47787273590E+02  0.20000011606E+02 0.  0.
         12    1    1    2    0    0 -0.14431039048E+02 -0.19559847412E+02 -0.35955257392E+02  0.43400726410E+02  0.00000000000E+00 0. -1.
         11    1    3    3    0    0  0.91971691172E+01  0.17166926637E+02  0.14934279500E+02  0.24542289917E+02  0.51100000000E-03 0. -1.
        -11    1    3    3    0    0  0.43507587057E+01  0.27322792085E+01  0.21554862598E+02  0.22158667669E+02  0.51100000000E-03 0.  1.
        -12    1    3    3    0    0  0.88311122501E+00 -0.33935843355E+00 -0.53388470536E+00  0.10863160041E+01  0.00000000000E+00 0.  1.
</event>
<event>
 7    1  0.4723144E-009  0.4778727E+02  0.7816164E-02  0.1312668E+00
        -11   -1    0    0    0    0  0.00000000000E+00  0.00000000000E+00  0.45593999997E+02  0.45594000000E+02  0.51100000000E-03 0. -1.
         11   -1    0    0    0    0 -0.00000000000E+00 -0.00000000000E+00 -0.45593999997E+02  0.45594000000E+02  0.51100000000E-03 0.  1.
    9900012    2    1    2    0    0 -0.21603610878E+01  0.34421121255E+02 -0.26346587223E+02  0.47787269513E+02  0.19999993019E+02 0.  0.
         12    1    1    2    0    0  0.21603610878E+01 -0.34421121255E+02  0.26346587223E+02  0.43400730487E+02  0.00000000000E+00 0. -1.
         11    1    3    3    0    0  0.55780367363E+01  0.65887586704E+01 -0.69724040040E+00  0.86609687152E+01  0.51100000000E-03 0. -1.
        -11    1    3    3    0    0 -0.59893426985E+01  0.25194927006E+02 -0.20276190935E+02  0.32890431617E+02  0.51100000000E-03 0.  1.
         12    1    3    3    0    0 -0.17490551256E+01  0.26374355785E+01 -0.53731558870E+01  0.62358691816E+01  0.00000000000E+00 0. -1.
</event>
<event>
 7    1  0.4723144E-009  0.4778726E+02  0.7816164E-02  0.1312668E+00
        -11   -1    0    0    0    0  0.00000000000E+00  0.00000000000E+00  0.45593999997E+02  0.45594000000E+02  0.51100000000E-03 0.  1.
         11   -1    0    0    0    0 -0.00000000000E+00 -0.00000000000E+00 -0.45593999997E+02  0.45594000000E+02  0.51100000000E-03 0. -1.
    9900012    2    1    2    0    0  0.11533845339E+02  0.19381598091E+02  0.37080290295E+02  0.47787264278E+02  0.19999969149E+02 0.  0.
         12    1    1    2    0    0 -0.11533845339E+02 -0.19381598091E+02 -0.37080290295E+02  0.43400735722E+02  0.00000000000E+00 0. -1.
         11    1    3    3    0    0  0.12669576953E+02  0.63950294086E+01  0.12810940108E+02  0.19118963570E+02  0.51100000000E-03 0. -1.
        -11    1    3    3    0    0 -0.17348110772E+01  0.11816996838E+02  0.14385244491E+02  0.18697225545E+02  0.51100000000E-03 0.  1.
         12    1    3    3    0    0  0.59907946324E+00  0.11695718452E+01  0.98841056955E+01  0.99710751629E+01  0.00000000000E+00 0. -1.
</event>
<event>
 7    1  0.4723144E-009  0.4778728E+02  0.7816164E-02  0.1312668E+00
        -11   -1    0    0    0    0  0.00000000000E+00  0.00000000000E+00  0.45593999997E+02  0.45594000000E+02  0.51100000000E-03 0.  1.
         11   -1    0    0    0    0 -0.00000000000E+00 -0.00000000000E+00 -0.45593999997E+02  0.45594000000E+02  0.51100000000E-03 0. -1.
    9900012    2    1    2    0    0 -0.13983696959E+02  0.97244680021E+01  0.39918839462E+02  0.47787276475E+02  0.20000024759E+02 0.  0.
         12    1    1    2    0    0  0.13983696959E+02 -0.97244680021E+01 -0.39918839462E+02  0.43400723525E+02  0.00000000000E+00 0. -1.
         11    1    3    3    0    0 -0.12923396457E+02  0.13247091609E+02  0.24932065007E+02  0.31050080159E+02  0.51100000000E-03 0. -1.
        -11    1    3    3    0    0  0.19360833085E+01  0.87409919651E+00  0.46084533963E+01  0.50744764212E+01  0.51100000000E-03 0.  1.
         12    1    3    3    0    0 -0.29963838102E+01 -0.43967228038E+01  0.10378321059E+02  0.11662719895E+02  0.00000000000E+00 0. -1.
</event>
<event>
 7    1  0.4723144E-009  0.4778727E+02  0.7816164E-02  0.1312668E+00
        -11   -1    0    0    0    0  0.00000000000E+00  0.00000000000E+00  0.45593999997E+02  0.45594000000E+02  0.51100000000E-03 0.  1.
         11   -1    0    0    0    0 -0.00000000000E+00 -0.00000000000E+00 -0.45593999997E+02  0.45594000000E+02  0.51100000000E-03 0. -1.
    9900012    2    1    2    0    0 -0.41132647789E+01  0.42800631114E+02 -0.59000137549E+01  0.47787272665E+02  0.20000007389E+02 0.  0.
         12    1    1    2    0    0  0.41132647789E+01 -0.42800631114E+02  0.59000137549E+01  0.43400727335E+02  0.00000000000E+00 0. -1.
         11    1    3    3    0    0 -0.67179128960E+01  0.36182236452E+02  0.25989269813E+00  0.36801523512E+02  0.51100000000E-03 0. -1.
        -11    1    3    3    0    0  0.22871108092E+01  0.76663921136E+01 -0.53660852338E+01  0.96332401034E+01  0.51100000000E-03 0.  1.
         12    1    3    3    0    0  0.31753730794E+00 -0.10479974515E+01 -0.79382121920E+00  0.13525090493E+01  0.00000000000E+00 0. -1.
</event>
<event>
 7    1  0.4723144E-009  0.4778727E+02  0.7816164E-02  0.1312668E+00
        -11   -1    0    0    0    0  0.00000000000E+00  0.00000000000E+00  0.45593999997E+02  0.45594000000E+02  0.51100000000E-03 0. -1.
         11   -1    0    0    0    0 -0.00000000000E+00 -0.00000000000E+00 -0.45593999997E+02  0.45594000000E+02  0.51100000000E-03 0.  1.
    9900012    2    1    2    0    0  0.35578483280E+02  0.52251947585E+01 -0.24300051475E+02  0.47787266890E+02  0.19999981060E+02 0.  0.
         12    1    1    2    0    0 -0.35578483280E+02 -0.52251947585E+01  0.24300051475E+02  0.43400733110E+02  0.00000000000E+00 0. -1.
         11    1    3    3    0    0  0.30377522323E+00  0.16342066597E+01 -0.68515907857E+01  0.70503338466E+01  0.51100000000E-03 0. -1.
        -11    1    3    3    0    0  0.27727615450E+02  0.68671137302E+01 -0.13008549072E+02  0.31387899878E+02  0.51100000000E-03 0.  1.
        -12    1    3    3    0    0  0.75470926068E+01 -0.32761256314E+01 -0.44399116170E+01  0.93490331658E+01  0.00000000000E+00 0.  1.
</event>
<event>
 7    1  0.4723144E-009  0.4778727E+02  0.7816164E-02  0.1312668E+00
        -11   -1    0    0    0    0  0.00000000000E+00  0.00000000000E+00  0.45593999997E+02  0.45594000000E+02  0.51100000000E-03 0.  1.
         11   -1    0    0    0    0 -0.00000000000E+00 -0.00000000000E+00 -0.45593999997E+02  0.45594000000E+02  0.51100000000E-03 0. -1.
    9900012    2    1    2    0    0  0.86442903180E+01 -0.28655942489E+02  0.31428278213E+02  0.47787268826E+02  0.19999989884E+02 0.  0.
         12    1    1    2    0    0 -0.86442903180E+01  0.28655942489E+02 -0.31428278213E+02  0.43400731174E+02  0.00000000000E+00 0. -1.
         11    1    3    3    0    0  0.31838948844E+01 -0.24618602644E+02  0.13854884085E+02  0.28428341423E+02  0.51100000000E-03 0. -1.
        -11    1    3    3    0    0  0.19546504986E+01 -0.23937590937E+01  0.13020668387E+02  0.13382396895E+02  0.51100000000E-03 0.  1.
        -12    1    3    3    0    0  0.35057449350E+01 -0.16435807513E+01  0.45527257410E+01  0.59765305076E+01  0.00000000000E+00 0.  1.
</event>
<event>
 7    1  0.4723144E-009  0.4778727E+02  0.7816164E-02  0.1312668E+00
        -11   -1    0    0    0    0  0.00000000000E+00  0.00000000000E+00  0.45593999997E+02  0.45594000000E+02  0.51100000000E-03 0.  1.
         11   -1    0    0    0    0 -0.00000000000E+00 -0.00000000000E+00 -0.45593999997E+02  0.45594000000E+02  0.51100000000E-03 0. -1.
    9900012    2    1    2    0    0 -0.36867274681E+02  0.22891677852E+02  0.63121012210E+00  0.47787270933E+02  0.19999999494E+02 0.  0.
         12    1    1    2    0    0  0.36867274681E+02 -0.22891677852E+02 -0.63121012210E+00  0.43400729067E+02  0.00000000000E+00 0. -1.
         11    1    3    3    0    0 -0.12771031632E+02  0.12436557807E+02  0.23632371719E+01  0.17981994028E+02  0.51100000000E-03 0. -1.
        -11    1    3    3    0    0  0.84286385612E+00  0.21838927906E+01 -0.26224473862E+01  0.35152578505E+01  0.51100000000E-03 0.  1.
        -12    1    3    3    0    0 -0.24939106905E+02  0.82712272538E+01  0.89042033637E+00  0.26290019054E+02  0.00000000000E+00 0.  1.
</event>
<event>
 7    1  0.4723144E-009  0.4778727E+02  0.7816164E-02  0.1312668E+00
        -11   -1    0    0    0    0  0.00000000000E+00  0.00000000000E+00  0.45593999997E+02  0.45594000000E+02  0.51100000000E-03 0.  1.
         11   -1    0    0    0    0 -0.00000000000E+00 -0.00000000000E+00 -0.45593999997E+02  0.45594000000E+02  0.51100000000E-03 0. -1.
    9900012    2    1    2    0    0 -0.11354541203E+02 -0.36120701038E+02  0.21213031450E+02  0.47787270137E+02  0.19999995862E+02 0.  0.
         12    1    1    2    0    0  0.11354541203E+02  0.36120701038E+02 -0.21213031450E+02  0.43400729863E+02  0.00000000000E+00 0. -1.
         11    1    3    3    0    0 -0.39006493773E+01 -0.30902691559E+02  0.11767146657E+02  0.33296503598E+02  0.51100000000E-03 0. -1.
        -11    1    3    3    0    0 -0.73597800326E+00 -0.39908417278E+01  0.25911049269E+01  0.48148007561E+01  0.51100000000E-03 0.  1.
         12    1    3    3    0    0 -0.67179138226E+01 -0.12271677505E+01  0.68547798655E+01  0.96759657823E+01  0.00000000000E+00 0. -1.
</event>
<event>
 7    1  0.4723144E-009  0.4778727E+02  0.7816164E-02  0.1312668E+00
        -11   -1    0    0    0    0  0.00000000000E+00  0.00000000000E+00  0.45593999997E+02  0.45594000000E+02  0.51100000000E-03 0. -1.
         11   -1    0    0    0    0 -0.00000000000E+00 -0.00000000000E+00 -0.45593999997E+02  0.45594000000E+02  0.51100000000E-03 0.  1.
    9900012    2    1    2    0    0  0.31417631532E+02 -0.74378005967E+01 -0.29004053605E+02  0.47787267583E+02  0.19999984220E+02 0.  0.
         12    1    1    2    0    0 -0.31417631532E+02  0.74378005967E+01  0.29004053605E+02  0.43400732417E+02  0.00000000000E+00 0. -1.
         11    1    3    3    0    0  0.46212116252E+01 -0.96201890193E+01 -0.78557553828E+01  0.13252038581E+02  0.51100000000E-03 0. -1.
        -11    1    3    3    0    0  0.12481671330E+02 -0.18812749698E+00 -0.72114161402E+01  0.14416380758E+02  0.51100000000E-03 0.  1.
         12    1    3    3    0    0  0.14314748576E+02  0.23705159195E+01 -0.13936882082E+02  0.20118848245E+02  0.00000000000E+00 0. -1.
</event>
<event>
 7    1  0.4723144E-009  0.4778727E+02  0.7816164E-02  0.1312668E+00
        -11   -1    0    0    0    0  0.00000000000E+00  0.00000000000E+00  0.45593999997E+02  0.45594000000E+02  0.51100000000E-03 0. -1.
         11   -1    0    0    0    0 -0.00000000000E+00 -0.00000000000E+00 -0.45593999997E+02  0.45594000000E+02  0.51100000000E-03 0.  1.
    9900012    2    1    2    0    0 -0.34131056074E+02  0.18832749942E+02 -0.19079355147E+02  0.47787271297E+02  0.20000001151E+02 0.  0.
         12    1    1    2    0    0  0.34131056074E+02 -0.18832749942E+02  0.19079355147E+02  0.43400728703E+02  0.00000000000E+00 0. -1.
         11    1    3    3    0    0  0.21337918682E+00 -0.13361181796E+01  0.28505551144E+00  0.13827506546E+01  0.51100000000E-03 0. -1.
        -11    1    3    3    0    0 -0.29706921970E+02  0.21620193322E+02 -0.14413919808E+02  0.39467645695E+02  0.51100000000E-03 0.  1.
         12    1    3    3    0    0 -0.46375132911E+01 -0.14513252011E+01 -0.49504908510E+01  0.69368749470E+01  0.00000000000E+00 0. -1.
</event>
<event>
 7    1  0.4723144E-009  0.4778726E+02  0.7816164E-02  0.1312668E+00
        -11   -1    0    0    0    0  0.00000000000E+00  0.00000000000E+00  0.45593999997E+02  0.45594000000E+02  0.51100000000E-03 0. -1.
         11   -1    0    0    0    0 -0.00000000000E+00 -0.00000000000E+00 -0.45593999997E+02  0.45594000000E+02  0.51100000000E-03 0.  1.
    9900012    2    1    2    0    0 -0.37014405902E+02  0.19900783899E+02  0.10840534065E+02  0.47787255503E+02  0.19999929141E+02 0.  0.
         12    1    1    2    0    0  0.37014405902E+02 -0.19900783899E+02 -0.10840534065E+02  0.43400744497E+02  0.00000000000E+00 0. -1.
         11    1    3    3    0    0 -0.30765924532E+02  0.15268235886E+02  0.56469398241E+01  0.34807313441E+02  0.51100000000E-03 0. -1.
        -11    1    3    3    0    0 -0.62636013912E+01  0.70090955455E+01  0.33755945149E+01  0.99877305401E+01  0.51100000000E-03 0.  1.
         12    1    3    3    0    0  0.15120020775E-01 -0.23765475324E+01  0.18179997256E+01  0.29922115218E+01  0.00000000000E+00 0. -1.
</event>
<event>
 7    1  0.4723144E-009  0.4778727E+02  0.7816164E-02  0.1312668E+00
        -11   -1    0    0    0    0  0.00000000000E+00  0.00000000000E+00  0.45593999997E+02  0.45594000000E+02  0.51100000000E-03 0.  1.
         11   -1    0    0    0    0 -0.00000000000E+00 -0.00000000000E+00 -0.45593999997E+02  0.45594000000E+02  0.51100000000E-03 0. -1.
    9900012    2    1    2    0    0 -0.31827847978E+02 -0.11304217958E+02  0.27254831998E+02  0.47787272843E+02  0.20000008200E+02 0.  0.
         12    1    1    2    0    0  0.31827847978E+02  0.11304217958E+02 -0.27254831998E+02  0.43400727157E+02  0.00000000000E+00 0. -1.
         11    1    3    3    0    0 -0.35705881532E+01 -0.67163236078E+01  0.14273100121E+02  0.16173419239E+02  0.51100000000E-03 0. -1.
        -11    1    3    3    0    0 -0.22504102967E+02 -0.50074546054E+01  0.10213174174E+02  0.25215435331E+02  0.51100000000E-03 0.  1.
         12    1    3    3    0    0 -0.57531568579E+01  0.41956025547E+00  0.27685577033E+01  0.63984182730E+01  0.00000000000E+00 0. -1.
</event>
<event>
 7    1  0.4723144E-009  0.4778726E+02  0.7816164E-02  0.1312668E+00
        -11   -1    0    0    0    0  0.00000000000E+00  0.00000000000E+00  0.45593999997E+02  0.45594000000E+02  0.51100000000E-03 0.  1.
         11   -1    0    0    0    0 -0.00000000000E+00 -0.00000000000E+00 -0.45593999997E+02  0.45594000000E+02  0.51100000000E-03 0. -1.
    9900012    2    1    2    0    0  0.41707153143E+01  0.12554740352E+02  0.41335311306E+02  0.47787258851E+02  0.19999944403E+02 0.  0.
         12    1    1    2    0    0 -0.41707153143E+01 -0.12554740352E+02 -0.41335311306E+02  0.43400741149E+02  0.00000000000E+00 0. -1.
         11    1    3    3    0    0 -0.66850030525E+01  0.43488456681E+01  0.96539760070E+01  0.12522019704E+02  0.51100000000E-03 0. -1.
        -11    1    3    3    0    0  0.62136285179E+01  0.79603711154E+01  0.16096972514E+02  0.19002347540E+02  0.51100000000E-03 0.  1.
         12    1    3    3    0    0  0.46420898490E+01  0.24552356822E+00  0.15584362785E+02  0.16262891607E+02  0.00000000000E+00 0. -1.
</event>
<event>
 7    1  0.4723144E-009  0.4778727E+02  0.7816164E-02  0.1312668E+00
        -11   -1    0    0    0    0  0.00000000000E+00  0.00000000000E+00  0.45593999997E+02  0.45594000000E+02  0.51100000000E-03 0. -1.
         11   -1    0    0    0    0 -0.00000000000E+00 -0.00000000000E+00 -0.45593999997E+02  0.45594000000E+02  0.51100000000E-03 0.  1.
    9900012    2    1    2    0    0  0.97138171366E+01 -0.11303630835E+02 -0.40761412887E+02  0.47787273117E+02  0.20000009451E+02 0.  0.
         12    1    1    2    0    0 -0.97138171366E+01  0.11303630835E+02  0.40761412887E+02  0.43400726883E+02  0.00000000000E+00 0. -1.
         11    1    3    3    0    0 -0.81432207982E+00 -0.80944514141E+01 -0.83911748601E+01  0.11687389783E+02  0.51100000000E-03 0. -1.
        -11    1    3    3    0    0  0.30917507183E+01  0.24497189911E+01 -0.21071467990E+02  0.21437509397E+02  0.51100000000E-03 0.  1.
        -12    1    3    3    0    0  0.74363884981E+01 -0.56588984124E+01 -0.11298770037E+02  0.14662373937E+02  0.00000000000E+00 0.  1.
</event>
<event>
 7    1  0.4723144E-009  0.4778728E+02  0.7816164E-02  0.1312668E+00
        -11   -1    0    0    0    0  0.00000000000E+00  0.00000000000E+00  0.45593999997E+02  0.45594000000E+02  0.51100000000E-03 0.  1.
         11   -1    0    0    0    0 -0.00000000000E+00 -0.00000000000E+00 -0.45593999997E+02  0.45594000000E+02  0.51100000000E-03 0. -1.
    9900012    2    1    2    0    0 -0.42994099466E+02  0.59208097204E+01  0.27165652928E+00  0.47787281412E+02  0.20000047271E+02 0.  0.
         12    1    1    2    0    0  0.42994099466E+02 -0.59208097204E+01 -0.27165652928E+00  0.43400718588E+02  0.00000000000E+00 0. -1.
         11    1    3    3    0    0 -0.11828796194E+02  0.62451734726E+01  0.34064525446E+01  0.13803134800E+02  0.51100000000E-03 0. -1.
        -11    1    3    3    0    0 -0.28809837414E+02  0.56230808857E+00 -0.67345183293E+01  0.29591834339E+02  0.51100000000E-03 0.  1.
        -12    1    3    3    0    0 -0.23554658587E+01 -0.88667184082E+00  0.35997223140E+01  0.43923122729E+01  0.00000000000E+00 0.  1.
</event>
<event>
 7    1  0.4723144E-009  0.4778727E+02  0.7816164E-02  0.1312668E+00
        -11   -1    0    0    0    0  0.00000000000E+00  0.00000000000E+00  0.45593999997E+02  0.45594000000E+02  0.51100000000E-03 0.  1.
         11   -1    0    0    0    0 -0.00000000000E+00 -0.00000000000E+00 -0.45593999997E+02  0.45594000000E+02  0.51100000000E-03 0. -1.
    9900012    2    1    2    0    0  0.38863284874E+02  0.18350405130E+02  0.60441027065E+01  0.47787268932E+02  0.19999990371E+02 0.  0.
         12    1    1    2    0    0 -0.38863284874E+02 -0.18350405130E+02 -0.60441027065E+01  0.43400731068E+02  0.00000000000E+00 0. -1.
         11    1    3    3    0    0  0.10338094656E+02  0.47772410067E+00  0.10963979456E+01  0.10407041373E+02  0.51100000000E-03 0. -1.
        -11    1    3    3    0    0  0.90529957970E+01  0.14749812814E+02  0.29818514311E+01  0.17561467739E+02  0.51100000000E-03 0.  1.
        -12    1    3    3    0    0  0.19472194421E+02  0.31228682158E+01  0.19658533298E+01  0.19818759820E+02  0.00000000000E+00 0.  1.
</event>
<event>
 7    1  0.4723144E-009  0.4778727E+02  0.7816164E-02  0.1312668E+00
        -11   -1    0    0    0    0  0.00000000000E+00  0.00000000000E+00  0.45593999997E+02  0.45594000000E+02  0.51100000000E-03 0.  1.
         11   -1    0    0    0    0 -0.00000000000E+00 -0.00000000000E+00 -0.45593999997E+02  0.45594000000E+02  0.51100000000E-03 0. -1.
    9900012    2    1    2    0    0 -0.36347795056E+02  0.18596783427E+02 -0.14718038322E+02  0.47787271766E+02  0.20000003288E+02 0.  0.
         12    1    1    2    0    0  0.36347795056E+02 -0.18596783427E+02  0.14718038322E+02  0.43400728234E+02  0.00000000000E+00 0. -1.
         11    1    3    3    0    0  0.67452197984E+00  0.20317976250E+01  0.76018198832E-01  0.21421859205E+01  0.51100000000E-03 0. -1.
        -11    1    3    3    0    0 -0.28314969515E+02  0.57484173530E+01 -0.12859597563E+02  0.31625164829E+02  0.51100000000E-03 0.  1.
        -12    1    3    3    0    0 -0.87073475208E+01  0.10816568449E+02 -0.19344589580E+01  0.14019921017E+02  0.00000000000E+00 0.  1.
</event>
<event>
 7    1  0.4723144E-009  0.4778724E+02  0.7816164E-02  0.1312668E+00
        -11   -1    0    0    0    0  0.00000000000E+00  0.00000000000E+00  0.45593999997E+02  0.45594000000E+02  0.51100000000E-03 0.  1.
         11   -1    0    0    0    0 -0.00000000000E+00 -0.00000000000E+00 -0.45593999997E+02  0.45594000000E+02  0.51100000000E-03 0. -1.
    9900012    2    1    2    0    0 -0.38977232455E+01 -0.29879510407E+02  0.31235369327E+02  0.47787243260E+02  0.19999873318E+02 0.  0.
         12    1    1    2    0    0  0.38977232455E+01  0.29879510407E+02 -0.31235369327E+02  0.43400756740E+02  0.00000000000E+00 0. -1.
         11    1    3    3    0    0 -0.57686323941E+01 -0.58533508729E+01  0.60216765823E+01  0.10188200296E+02  0.51100000000E-03 0. -1.
        -11    1    3    3    0    0  0.24417522082E+01 -0.21233184696E+02  0.12910286838E+02  0.24969697489E+02  0.51100000000E-03 0.  1.
        -12    1    3    3    0    0 -0.57084305966E+00 -0.27929748383E+01  0.12303405906E+02  0.12629345475E+02  0.00000000000E+00 0.  1.
</event>
<event>
 7    1  0.4723144E-009  0.4778727E+02  0.7816164E-02  0.1312668E+00
        -11   -1    0    0    0    0  0.00000000000E+00  0.00000000000E+00  0.45593999997E+02  0.45594000000E+02  0.51100000000E-03 0.  1.
         11   -1    0    0    0    0 -0.00000000000E+00 -0.00000000000E+00 -0.45593999997E+02  0.45594000000E+02  0.51100000000E-03 0. -1.
    9900012    2    1    2    0    0  0.33826828078E+02  0.27191104896E+02 -0.11331153180E+00  0.47787270481E+02  0.19999997432E+02 0.  0.
         12    1    1    2    0    0 -0.33826828078E+02 -0.27191104896E+02  0.11331153180E+00  0.43400729519E+02  0.00000000000E+00 0. -1.
         11    1    3    3    0    0  0.97691502223E+01  0.67453601313E+01  0.42518799130E+00  0.11879266158E+02  0.51100000000E-03 0. -1.
        -11    1    3    3    0    0  0.20982512433E+02  0.96095864098E+01  0.45916884762E+01  0.23530694471E+02  0.51100000000E-03 0.  1.
        -12    1    3    3    0    0  0.30751654225E+01  0.10836158355E+02 -0.51301879993E+01  0.12377309852E+02  0.00000000000E+00 0.  1.
</event>
<event>
 7    1  0.4723144E-009  0.4778727E+02  0.7816164E-02  0.1312668E+00
        -11   -1    0    0    0    0  0.00000000000E+00  0.00000000000E+00  0.45593999997E+02  0.45594000000E+02  0.51100000000E-03 0. -1.
         11   -1    0    0    0    0 -0.00000000000E+00 -0.00000000000E+00 -0.45593999997E+02  0.45594000000E+02  0.51100000000E-03 0.  1.
    9900012    2    1    2    0    0  0.34445457128E+01 -0.14512376776E+02 -0.40757203142E+02  0.47787267485E+02  0.19999983771E+02 0.  0.
         12    1    1    2    0    0 -0.34445457128E+01  0.14512376776E+02  0.40757203142E+02  0.43400732515E+02  0.00000000000E+00 0. -1.
         11    1    3    3    0    0 -0.66030770728E+01 -0.47952111055E+01 -0.73066266096E+01  0.10953605299E+02  0.51100000000E-03 0. -1.
        -11    1    3    3    0    0  0.99985384733E+01 -0.60254612494E+01 -0.24031745724E+02  0.26717068658E+02  0.51100000000E-03 0.  1.
         12    1    3    3    0    0  0.49084312359E-01 -0.36917044213E+01 -0.94188308091E+01  0.10116593528E+02  0.00000000000E+00 0. -1.
</event>
<event>
 7    1  0.4723144E-009  0.4778727E+02  0.7816164E-02  0.1312668E+00
        -11   -1    0    0    0    0  0.00000000000E+00  0.00000000000E+00  0.45593999997E+02  0.45594000000E+02  0.51100000000E-03 0.  1.
         11   -1    0    0    0    0 -0.00000000000E+00 -0.00000000000E+00 -0.45593999997E+02  0.45594000000E+02  0.51100000000E-03 0. -1.
    9900012    2    1    2    0    0 -0.16231577965E+02  0.18946865436E+02  0.35513032858E+02  0.47787270330E+02  0.19999996744E+02 0.  0.
         12    1    1    2    0    0  0.16231577965E+02 -0.18946865436E+02 -0.35513032858E+02  0.43400729670E+02  0.00000000000E+00 0. -1.
         11    1    3    3    0    0  0.21480363297E+01  0.87838625980E+01  0.16847536599E+02  0.19120925499E+02  0.51100000000E-03 0. -1.
        -11    1    3    3    0    0 -0.15718714284E+02  0.72057741840E+01  0.17301006982E+02  0.24460703244E+02  0.51100000000E-03 0.  1.
        -12    1    3    3    0    0 -0.26609000108E+01  0.29572286535E+01  0.13644892773E+01  0.42056415878E+01  0.00000000000E+00 0.  1.
</event>
<event>
 7    1  0.4723144E-009  0.4778728E+02  0.7816164E-02  0.1312668E+00
        -11   -1    0    0    0    0  0.00000000000E+00  0.00000000000E+00  0.45593999997E+02  0.45594000000E+02  0.51100000000E-03 0.  1.
         11   -1    0    0    0    0 -0.00000000000E+00 -0.00000000000E+00 -0.45593999997E+02  0.45594000000E+02  0.51100000000E-03 0. -1.
    9900012    2    1    2    0    0  0.11583580160E+01 -0.38430587578E+02  0.20133821400E+02  0.47787278589E+02  0.20000034397E+02 0.  0.
         12    1    1    2    0    0 -0.11583580160E+01  0.38430587578E+02 -0.20133821400E+02  0.43400721411E+02  0.00000000000E+00 0. -1.
         11    1    3    3    0    0 -0.27444212506E+01 -0.45774007324E+01 -0.29346395715E+01  0.60906941428E+01  0.51100000000E-03 0. -1.
        -11    1    3    3    0    0  0.91526251981E-01 -0.25641721543E+02  0.16165825567E+02  0.30312376635E+02  0.51100000000E-03 0.  1.
        -12    1    3    3    0    0  0.38112530145E+01 -0.82114653023E+01  0.69026354043E+01  0.11384207811E+02  0.00000000000E+00 0.  1.
</event>
<event>
 7    1  0.4723144E-009  0.4778727E+02  0.7816164E-02  0.1312668E+00
        -11   -1    0    0    0    0  0.00000000000E+00  0.00000000000E+00  0.45593999997E+02  0.45594000000E+02  0.51100000000E-03 0.  1.
         11   -1    0    0    0    0 -0.00000000000E+00 -0.00000000000E+00 -0.45593999997E+02  0.45594000000E+02  0.51100000000E-03 0. -1.
    9900012    2    1    2    0    0 -0.26048583306E+02 -0.75695831248E+01  0.33879137252E+02  0.47787271644E+02  0.20000002732E+02 0.  0.
         12    1    1    2    0    0  0.26048583306E+02  0.75695831248E+01 -0.33879137252E+02  0.43400728356E+02  0.00000000000E+00 0. -1.
         11    1    3    3    0    0 -0.10069110754E+02  0.33337356367E+01  0.29629774702E+01  0.11012720846E+02  0.51100000000E-03 0. -1.
        -11    1    3    3    0    0 -0.21479712264E+01 -0.10848920234E+01  0.15522088564E+01  0.28635858092E+01  0.51100000000E-03 0.  1.
         12    1    3    3    0    0 -0.13831501326E+02 -0.98184267382E+01  0.29363950925E+02  0.33910964989E+02  0.00000000000E+00 0. -1.
</event>
<event>
 7    1  0.4723144E-009  0.4778727E+02  0.7816164E-02  0.1312668E+00
        -11   -1    0    0    0    0  0.00000000000E+00  0.00000000000E+00  0.45593999997E+02  0.45594000000E+02  0.51100000000E-03 0.  1.
         11   -1    0    0    0    0 -0.00000000000E+00 -0.00000000000E+00 -0.45593999997E+02  0.45594000000E+02  0.51100000000E-03 0. -1.
    9900012    2    1    2    0    0  0.36907421560E+02 -0.21947164506E+01  0.22729907256E+02  0.47787271545E+02  0.20000002284E+02 0.  0.
         12    1    1    2    0    0 -0.36907421560E+02  0.21947164506E+01 -0.22729907256E+02  0.43400728455E+02  0.00000000000E+00 0. -1.
         11    1    3    3    0    0  0.49430973132E+01  0.60878579381E+01  0.60889180103E+01  0.99283003641E+01  0.51100000000E-03 0. -1.
        -11    1    3    3    0    0  0.15942480352E+02 -0.83187214105E+01  0.86304145075E+01  0.19946123947E+02  0.51100000000E-03 0.  1.
        -12    1    3    3    0    0  0.16021843895E+02  0.36147021747E-01  0.80105747378E+01  0.17912847234E+02  0.00000000000E+00 0.  1.
</event>
<event>
 7    1  0.4723144E-009  0.4778727E+02  0.7816164E-02  0.1312668E+00
        -11   -1    0    0    0    0  0.00000000000E+00  0.00000000000E+00  0.45593999997E+02  0.45594000000E+02  0.51100000000E-03 0. -1.
         11   -1    0    0    0    0 -0.00000000000E+00 -0.00000000000E+00 -0.45593999997E+02  0.45594000000E+02  0.51100000000E-03 0.  1.
    9900012    2    1    2    0    0 -0.18240521957E+02  0.36815394523E+02  0.13983318716E+02  0.47787272846E+02  0.20000008215E+02 0.  0.
         12    1    1    2    0    0  0.18240521957E+02 -0.36815394523E+02 -0.13983318716E+02  0.43400727154E+02  0.00000000000E+00 0. -1.
         11    1    3    3    0    0 -0.32031341118E+01  0.15803131749E+01 -0.10866314940E+01  0.37333933805E+01  0.51100000000E-03 0. -1.
        -11    1    3    3    0    0 -0.12782385705E+02  0.32400242023E+02  0.18170963135E+02  0.39285480383E+02  0.51100000000E-03 0.  1.
        -12    1    3    3    0    0 -0.22550021402E+01  0.28348393254E+01 -0.31010129243E+01  0.47683990825E+01  0.00000000000E+00 0.  1.
</event>
<event>
 7    1  0.4723144E-009  0.4778725E+02  0.7816164E-02  0.1312668E+00
        -11   -1    0    0    0    0  0.00000000000E+00  0.00000000000E+00  0.45593999997E+02  0.45594000000E+02  0.51100000000E-03 0.  1.
         11   -1    0    0    0    0 -0.00000000000E+00 -0.00000000000E+00 -0.45593999997E+02  0.45594000000E+02  0.51100000000E-03 0. -1.
    9900012    2    1    2    0    0 -0.41713572089E+02 -0.11737836376E+02 -0.24137481667E+01  0.47787250244E+02  0.19999905161E+02 0.  0.
         12    1    1    2    0    0  0.41713572089E+02  0.11737836376E+02  0.24137481667E+01  0.43400749756E+02  0.00000000000E+00 0. -1.
         11    1    3    3    0    0 -0.27294864322E+01 -0.47405683456E+01  0.37874436229E+01  0.66534061863E+01  0.51100000000E-03 0. -1.
        -11    1    3    3    0    0 -0.19738461850E+02 -0.22018127172E+01 -0.75651839801E+01  0.21252926019E+02  0.51100000000E-03 0.  1.
         12    1    3    3    0    0 -0.19245623806E+02 -0.47954553133E+01  0.13639921905E+01  0.19880918038E+02  0.00000000000E+00 0. -1.
</event>
<event>
 7    1  0.4723144E-009  0.4778727E+02  0.7816164E-02  0.1312668E+00
        -11   -1    0    0    0    0  0.00000000000E+00  0.00000000000E+00  0.45593999997E+02  0.45594000000E+02  0.51100000000E-03 0. -1.
         11   -1    0    0    0    0 -0.00000000000E+00 -0.00000000000E+00 -0.45593999997E+02  0.45594000000E+02  0.51100000000E-03 0.  1.
    9900012    2    1    2    0    0  0.15759025176E+02 -0.38302841821E+02  0.12967987483E+02  0.47787271142E+02  0.20000000445E+02 0.  0.
         12    1    1    2    0    0 -0.15759025176E+02  0.38302841821E+02 -0.12967987483E+02  0.43400728858E+02  0.00000000000E+00 0. -1.
         11    1    3    3    0    0  0.56952716845E+01 -0.53643185216E+01  0.78638338404E+01  0.11092876800E+02  0.51100000000E-03 0. -1.
        -11    1    3    3    0    0  0.49648098522E+01 -0.29065546671E+02  0.63716486106E+01  0.30167088796E+02  0.51100000000E-03 0.  1.
        -12    1    3    3    0    0  0.50989436395E+01 -0.38729766281E+01 -0.12674949681E+01  0.65273055463E+01  0.00000000000E+00 0.  1.
</event>
<event>
 7    1  0.4723144E-009  0.4778727E+02  0.7816164E-02  0.1312668E+00
        -11   -1    0    0    0    0  0.00000000000E+00  0.00000000000E+00  0.45593999997E+02  0.45594000000E+02  0.51100000000E-03 0.  1.
         11   -1    0    0    0    0 -0.00000000000E+00 -0.00000000000E+00 -0.45593999997E+02  0.45594000000E+02  0.51100000000E-03 0. -1.
    9900012    2    1    2    0    0 -0.54689308920E+01  0.98561055549E+01  0.41911475309E+02  0.47787265163E+02  0.19999973182E+02 0.  0.
         12    1    1    2    0    0  0.54689308920E+01 -0.98561055549E+01 -0.41911475309E+02  0.43400734837E+02  0.00000000000E+00 0. -1.
         11    1    3    3    0    0 -0.89523036040E+01  0.32311201049E+01  0.72528773474E+01  0.11966123308E+02  0.51100000000E-03 0. -1.
        -11    1    3    3    0    0  0.46428061188E+01  0.60691691102E+01  0.27219570165E+02  0.28271813924E+02  0.51100000000E-03 0.  1.
        -12    1    3    3    0    0 -0.11594334068E+01  0.55581633984E+00  0.74390277974E+01  0.75493279302E+01  0.00000000000E+00 0.  1.
</event>
<event>
 7    1  0.4723144E-009  0.4778727E+02  0.7816164E-02  0.1312668E+00
        -11   -1    0    0    0    0  0.00000000000E+00  0.00000000000E+00  0.45593999997E+02  0.45594000000E+02  0.51100000000E-03 0. -1.
         11   -1    0    0    0    0 -0.00000000000E+00 -0.00000000000E+00 -0.45593999997E+02  0.45594000000E+02  0.51100000000E-03 0.  1.
    9900012    2    1    2    0    0 -0.96288364463E+01 -0.39986431612E+02 -0.13856183362E+02  0.47787273949E+02  0.20000013245E+02 0.  0.
         12    1    1    2    0    0  0.96288364463E+01  0.39986431612E+02  0.13856183362E+02  0.43400726051E+02  0.00000000000E+00 0. -1.
         11    1    3    3    0    0  0.52788472892E+00 -0.36890102492E+01  0.30380543073E+01  0.48080383881E+01  0.51100000000E-03 0. -1.
        -11    1    3    3    0    0 -0.39373512613E+01 -0.15690973001E+01 -0.17613947974E+01  0.45899142896E+01  0.51100000000E-03 0.  1.
        -12    1    3    3    0    0 -0.62193699139E+01 -0.34728324063E+02 -0.15132842872E+02  0.38389321272E+02  0.00000000000E+00 0.  1.
</event>
<event>
 7    1  0.4723144E-009  0.4778733E+02  0.7816164E-02  0.1312668E+00
        -11   -1    0    0    0    0  0.00000000000E+00  0.00000000000E+00  0.45593999997E+02  0.45594000000E+02  0.51100000000E-03 0.  1.
         11   -1    0    0    0    0 -0.00000000000E+00 -0.00000000000E+00 -0.45593999997E+02  0.45594000000E+02  0.51100000000E-03 0. -1.
    9900012    2    1    2    0    0 -0.32835040323E+02 -0.20584834032E+02  0.19538247850E+02  0.47787327261E+02  0.20000256313E+02 0.  0.
         12    1    1    2    0    0  0.32835040323E+02  0.20584834032E+02 -0.19538247850E+02  0.43400672739E+02  0.00000000000E+00 0. -1.
         11    1    3    3    0    0 -0.37389630837E+01 -0.90709836199E+01 -0.20187450079E-01  0.98113707793E+01  0.51100000000E-03 0. -1.
        -11    1    3    3    0    0 -0.61986310838E+01  0.12307269679E+00  0.71099570113E+01  0.94334332650E+01  0.51100000000E-03 0.  1.
         12    1    3    3    0    0 -0.22897446156E+02 -0.11636923108E+02  0.12448478288E+02  0.28542523217E+02  0.00000000000E+00 0. -1.
</event>
<event>
 7    1  0.4723144E-009  0.4778727E+02  0.7816164E-02  0.1312668E+00
        -11   -1    0    0    0    0  0.00000000000E+00  0.00000000000E+00  0.45593999997E+02  0.45594000000E+02  0.51100000000E-03 0.  1.
         11   -1    0    0    0    0 -0.00000000000E+00 -0.00000000000E+00 -0.45593999997E+02  0.45594000000E+02  0.51100000000E-03 0. -1.
    9900012    2    1    2    0    0 -0.36978310777E+01  0.24708212714E+02  0.35488779405E+02  0.47787271966E+02  0.20000004204E+02 0.  0.
         12    1    1    2    0    0  0.36978310777E+01 -0.24708212714E+02 -0.35488779405E+02  0.43400728034E+02  0.00000000000E+00 0. -1.
         11    1    3    3    0    0 -0.52026175859E+00  0.31384853673E+01  0.10573311178E+02  0.11041543018E+02  0.51100000000E-03 0. -1.
        -11    1    3    3    0    0  0.14023717420E+01  0.20738093534E+02  0.24414454419E+02  0.32064010273E+02  0.51100000000E-03 0.  1.
        -12    1    3    3    0    0 -0.45799410611E+01  0.83163381258E+00  0.50101380819E+00  0.46817186756E+01  0.00000000000E+00 0.  1.
</event>
<event>
 7    1  0.4723144E-009  0.4778728E+02  0.7816164E-02  0.1312668E+00
        -11   -1    0    0    0    0  0.00000000000E+00  0.00000000000E+00  0.45593999997E+02  0.45594000000E+02  0.51100000000E-03 0.  1.
         11   -1    0    0    0    0 -0.00000000000E+00 -0.00000000000E+00 -0.45593999997E+02  0.45594000000E+02  0.51100000000E-03 0. -1.
    9900012    2    1    2    0    0  0.14250352862E+02 -0.29794102792E+02 -0.28157800918E+02  0.47787275693E+02  0.20000021194E+02 0.  0.
         12    1    1    2    0    0 -0.14250352862E+02  0.29794102792E+02  0.28157800918E+02  0.43400724307E+02  0.00000000000E+00 0. -1.
         11    1    3    3    0    0 -0.24437859173E+01  0.39947978013E+00 -0.50488853617E+00  0.25271696420E+01  0.51100000000E-03 0. -1.
        -11    1    3    3    0    0  0.14879180687E+02 -0.29592205554E+02 -0.27932251984E+02  0.43327812645E+02  0.51100000000E-03 0.  1.
        -12    1    3    3    0    0  0.18149580920E+01 -0.60137701851E+00  0.27933960222E+00  0.19322934061E+01  0.00000000000E+00 0.  1.
</event>
<event>
 7    1  0.4723144E-009  0.4778721E+02  0.7816164E-02  0.1312668E+00
        -11   -1    0    0    0    0  0.00000000000E+00  0.00000000000E+00  0.45593999997E+02  0.45594000000E+02  0.51100000000E-03 0.  1.
         11   -1    0    0    0    0 -0.00000000000E+00 -0.00000000000E+00 -0.45593999997E+02  0.45594000000E+02  0.51100000000E-03 0. -1.
    9900012    2    1    2    0    0 -0.26013475235E+01  0.61997982364E+01  0.42876846827E+02  0.47787210826E+02  0.19999725438E+02 0.  0.
         12    1    1    2    0    0  0.26013475235E+01 -0.61997982364E+01 -0.42876846827E+02  0.43400789174E+02  0.00000000000E+00 0. -1.
         11    1    3    3    0    0  0.15389860576E+01 -0.25069529200E+01  0.64758068881E+00  0.30120843345E+01  0.51100000000E-03 0. -1.
        -11    1    3    3    0    0 -0.39174193475E+00  0.55023056016E+01  0.37628514421E+02  0.38030697160E+02  0.51100000000E-03 0.  1.
        -12    1    3    3    0    0 -0.37485916464E+01  0.32044455547E+01  0.46007517166E+01  0.67444293311E+01  0.00000000000E+00 0.  1.
</event>
<event>
 7    1  0.4723144E-009  0.4778726E+02  0.7816164E-02  0.1312668E+00
        -11   -1    0    0    0    0  0.00000000000E+00  0.00000000000E+00  0.45593999997E+02  0.45594000000E+02  0.51100000000E-03 0.  1.
         11   -1    0    0    0    0 -0.00000000000E+00 -0.00000000000E+00 -0.45593999997E+02  0.45594000000E+02  0.51100000000E-03 0. -1.
    9900012    2    1    2    0    0 -0.33265919771E+02 -0.10301454197E+01  0.27855724133E+02  0.47787262855E+02  0.19999962661E+02 0.  0.
         12    1    1    2    0    0  0.33265919771E+02  0.10301454197E+01 -0.27855724133E+02  0.43400737145E+02  0.00000000000E+00 0. -1.
         11    1    3    3    0    0 -0.56244488487E+01  0.29303046054E+01  0.51938211201E+01  0.81973707993E+01  0.51100000000E-03 0. -1.
        -11    1    3    3    0    0 -0.22596960949E+02  0.26112127665E+00  0.23904637520E+02  0.32895630769E+02  0.51100000000E-03 0.  1.
        -12    1    3    3    0    0 -0.50445099730E+01 -0.42215713018E+01 -0.12427345074E+01  0.66942612871E+01  0.00000000000E+00 0.  1.
</event>
<event>
 7    1  0.4723144E-009  0.4778725E+02  0.7816164E-02  0.1312668E+00
        -11   -1    0    0    0    0  0.00000000000E+00  0.00000000000E+00  0.45593999997E+02  0.45594000000E+02  0.51100000000E-03 0.  1.
         11   -1    0    0    0    0 -0.00000000000E+00 -0.00000000000E+00 -0.45593999997E+02  0.45594000000E+02  0.51100000000E-03 0. -1.
    9900012    2    1    2    0    0 -0.29567278696E+02  0.59329482928E+01  0.31212199443E+02  0.47787248406E+02  0.19999896780E+02 0.  0.
         12    1    1    2    0    0  0.29567278696E+02 -0.59329482928E+01 -0.31212199443E+02  0.43400751594E+02  0.00000000000E+00 0. -1.
         11    1    3    3    0    0 -0.16646126347E+02  0.85908753359E+00  0.66364679556E+01  0.17940854521E+02  0.51100000000E-03 0. -1.
        -11    1    3    3    0    0 -0.14330717985E+02  0.48223044822E+01  0.20132787944E+02  0.25178428250E+02  0.51100000000E-03 0.  1.
         12    1    3    3    0    0  0.14095656358E+01  0.25155627707E+00  0.44429435431E+01  0.46679656350E+01  0.00000000000E+00 0. -1.
</event>
<event>
 7    1  0.4723144E-009  0.4778727E+02  0.7816164E-02  0.1312668E+00
        -11   -1    0    0    0    0  0.00000000000E+00  0.00000000000E+00  0.45593999997E+02  0.45594000000E+02  0.51100000000E-03 0.  1.
         11   -1    0    0    0    0 -0.00000000000E+00 -0.00000000000E+00 -0.45593999997E+02  0.45594000000E+02  0.51100000000E-03 0. -1.
    9900012    2    1    2    0    0  0.39138239496E+02  0.12241802569E+02 -0.14211254691E+02  0.47787270964E+02  0.19999999635E+02 0.  0.
         12    1    1    2    0    0 -0.39138239496E+02 -0.12241802569E+02  0.14211254691E+02  0.43400729036E+02  0.00000000000E+00 0. -1.
         11    1    3    3    0    0  0.17029958417E+02  0.12342695452E+02 -0.24702928801E+01  0.21176967721E+02  0.51100000000E-03 0. -1.
        -11    1    3    3    0    0  0.18374400953E+02  0.19148714416E+00 -0.52404730202E+01  0.19108056820E+02  0.51100000000E-03 0.  1.
         12    1    3    3    0    0  0.37338801259E+01 -0.29238002726E+00 -0.65004887904E+01  0.75022464228E+01  0.00000000000E+00 0. -1.
</event>
<event>
 7    1  0.4723144E-009  0.4778728E+02  0.7816164E-02  0.1312668E+00
        -11   -1    0    0    0    0  0.00000000000E+00  0.00000000000E+00  0.45593999997E+02  0.45594000000E+02  0.51100000000E-03 0.  1.
         11   -1    0    0    0    0 -0.00000000000E+00 -0.00000000000E+00 -0.45593999997E+02  0.45594000000E+02  0.51100000000E-03 0. -1.
    9900012    2    1    2    0    0  0.18890258361E+02 -0.34319128387E+02  0.18680964376E+02  0.47787275764E+02  0.20000021518E+02 0.  0.
         12    1    1    2    0    0 -0.18890258361E+02  0.34319128387E+02 -0.18680964376E+02  0.43400724236E+02  0.00000000000E+00 0. -1.
         11    1    3    3    0    0  0.59973742673E+01 -0.87639520141E+01  0.12594949044E+02  0.16474467964E+02  0.51100000000E-03 0.  1.
        -11    1    3    3    0    0  0.29082903977E+01 -0.10439093819E+02 -0.27158534241E+01  0.11171781097E+02  0.51100000000E-03 0. -1.
         12    1    3    3    0    0  0.99845936956E+01 -0.15116082554E+02  0.88018687558E+01  0.20141026703E+02  0.00000000000E+00 0. -1.
</event>
<event>
 7    1  0.4723144E-009  0.4778727E+02  0.7816164E-02  0.1312668E+00
        -11   -1    0    0    0    0  0.00000000000E+00  0.00000000000E+00  0.45593999997E+02  0.45594000000E+02  0.51100000000E-03 0. -1.
         11   -1    0    0    0    0 -0.00000000000E+00 -0.00000000000E+00 -0.45593999997E+02  0.45594000000E+02  0.51100000000E-03 0.  1.
    9900012    2    1    2    0    0  0.57165859603E+01  0.40352657946E+02 -0.14920027630E+02  0.47787267485E+02  0.19999983769E+02 0.  0.
         12    1    1    2    0    0 -0.57165859603E+01 -0.40352657946E+02  0.14920027630E+02  0.43400732515E+02  0.00000000000E+00 0. -1.
         11    1    3    3    0    0  0.32709829501E+01  0.36567165217E+01 -0.87044854850E+00  0.49828291277E+01  0.51100000000E-03 0. -1.
        -11    1    3    3    0    0 -0.62392310219E+01  0.65516454673E+01 -0.26559860885E+01  0.94290150301E+01  0.51100000000E-03 0.  1.
        -12    1    3    3    0    0  0.86848340322E+01  0.30144295958E+02 -0.11393592993E+02  0.33375423327E+02  0.00000000000E+00 0.  1.
</event>
<event>
 7    1  0.4723144E-009  0.4778727E+02  0.7816164E-02  0.1312668E+00
        -11   -1    0    0    0    0  0.00000000000E+00  0.00000000000E+00  0.45593999997E+02  0.45594000000E+02  0.51100000000E-03 0. -1.
         11   -1    0    0    0    0 -0.00000000000E+00 -0.00000000000E+00 -0.45593999997E+02  0.45594000000E+02  0.51100000000E-03 0.  1.
    9900012    2    1    2    0    0  0.14915124226E+02 -0.40229539019E+02 -0.65380838420E+01  0.47787270966E+02  0.19999999643E+02 0.  0.
         12    1    1    2    0    0 -0.14915124226E+02  0.40229539019E+02  0.65380838420E+01  0.43400729034E+02  0.00000000000E+00 0. -1.
         11    1    3    3    0    0 -0.22966423026E+00 -0.81531955100E+01 -0.25339471768E+01  0.85409736705E+01  0.51100000000E-03 0. -1.
        -11    1    3    3    0    0 -0.25746584323E+01 -0.27754666176E+01  0.22986542408E+01  0.44289832432E+01  0.51100000000E-03 0.  1.
        -12    1    3    3    0    0  0.17719446889E+02 -0.29300876891E+02 -0.63027909060E+01  0.34817314053E+02  0.00000000000E+00 0.  1.
</event>
<event>
 7    1  0.4723144E-009  0.4778727E+02  0.7816164E-02  0.1312668E+00
        -11   -1    0    0    0    0  0.00000000000E+00  0.00000000000E+00  0.45593999997E+02  0.45594000000E+02  0.51100000000E-03 0.  1.
         11   -1    0    0    0    0 -0.00000000000E+00 -0.00000000000E+00 -0.45593999997E+02  0.45594000000E+02  0.51100000000E-03 0. -1.
    9900012    2    1    2    0    0  0.35051247086E+02  0.20884732693E+02 -0.14793978120E+02  0.47787265323E+02  0.19999973913E+02 0.  0.
         12    1    1    2    0    0 -0.35051247086E+02 -0.20884732693E+02  0.14793978120E+02  0.43400734677E+02  0.00000000000E+00 0. -1.
         11    1    3    3    0    0  0.11241197176E+02  0.45236016532E+01  0.36477793800E+01  0.12654397675E+02  0.51100000000E-03 0. -1.
        -11    1    3    3    0    0  0.23478285911E+02  0.15913329461E+02 -0.15869330866E+02  0.32500763472E+02  0.51100000000E-03 0.  1.
        -12    1    3    3    0    0  0.33176399914E+00  0.44780157838E+00 -0.25724266338E+01  0.26321041755E+01  0.00000000000E+00 0.  1.
</event>
<event>
 7    1  0.4723144E-009  0.4778727E+02  0.7816164E-02  0.1312668E+00
        -11   -1    0    0    0    0  0.00000000000E+00  0.00000000000E+00  0.45593999997E+02  0.45594000000E+02  0.51100000000E-03 0. -1.
         11   -1    0    0    0    0 -0.00000000000E+00 -0.00000000000E+00 -0.45593999997E+02  0.45594000000E+02  0.51100000000E-03 0.  1.
    9900012    2    1    2    0    0  0.34390590398E+02  0.25532134358E+02 -0.70014836995E+01  0.47787269974E+02  0.19999995119E+02 0.  0.
         12    1    1    2    0    0 -0.34390590398E+02 -0.25532134358E+02  0.70014836995E+01  0.43400730026E+02  0.00000000000E+00 0. -1.
         11    1    3    3    0    0  0.80389576629E+01  0.19725820497E+01  0.52593125799E+01  0.98069510717E+01  0.51100000000E-03 0. -1.
        -11    1    3    3    0    0  0.24985573558E+01  0.67682083920E+00  0.32924397475E+00  0.26094591709E+01  0.51100000000E-03 0.  1.
         12    1    3    3    0    0  0.23853075379E+02  0.22882731469E+02 -0.12590040254E+02  0.35370859731E+02  0.00000000000E+00 0. -1.
</event>
<event>
 7    1  0.4723144E-009  0.4778727E+02  0.7816164E-02  0.1312668E+00
        -11   -1    0    0    0    0  0.00000000000E+00  0.00000000000E+00  0.45593999997E+02  0.45594000000E+02  0.51100000000E-03 0.  1.
         11   -1    0    0    0    0 -0.00000000000E+00 -0.00000000000E+00 -0.45593999997E+02  0.45594000000E+02  0.51100000000E-03 0. -1.
    9900012    2    1    2    0    0 -0.99076029641E+01  0.27612197539E+02 -0.31984826298E+02  0.47787272325E+02  0.20000005838E+02 0.  0.
         12    1    1    2    0    0  0.99076029641E+01 -0.27612197539E+02  0.31984826298E+02  0.43400727675E+02  0.00000000000E+00 0. -1.
         11    1    3    3    0    0  0.78245310157E+00  0.22993789574E+01 -0.96852868231E+01  0.99851969211E+01  0.51100000000E-03 0. -1.
        -11    1    3    3    0    0 -0.42428450455E+01  0.23393909541E+02 -0.17967194988E+02  0.29800953570E+02  0.51100000000E-03 0.  1.
        -12    1    3    3    0    0 -0.64472110202E+01  0.19189090406E+01 -0.43323444865E+01  0.80011218335E+01  0.00000000000E+00 0.  1.
</event>
<event>
 7    1  0.4723144E-009  0.4778727E+02  0.7816164E-02  0.1312668E+00
        -11   -1    0    0    0    0  0.00000000000E+00  0.00000000000E+00  0.45593999997E+02  0.45594000000E+02  0.51100000000E-03 0.  1.
         11   -1    0    0    0    0 -0.00000000000E+00 -0.00000000000E+00 -0.45593999997E+02  0.45594000000E+02  0.51100000000E-03 0. -1.
    9900012    2    1    2    0    0  0.88065693473E+01 -0.42138294372E+02 -0.55165039539E+01  0.47787270373E+02  0.19999996940E+02 0.  0.
         12    1    1    2    0    0 -0.88065693473E+01  0.42138294372E+02  0.55165039539E+01  0.43400729627E+02  0.00000000000E+00 0. -1.
         11    1    3    3    0    0 -0.52846594431E+00 -0.42718393647E+01 -0.59230647302E+01  0.73219248747E+01  0.51100000000E-03 0. -1.
        -11    1    3    3    0    0  0.33925280354E+01 -0.14422589571E+02  0.54006359918E+01  0.15769819459E+02  0.51100000000E-03 0.  1.
        -12    1    3    3    0    0  0.59425072562E+01 -0.23443865437E+02 -0.49940752156E+01  0.24695526040E+02  0.00000000000E+00 0.  1.
</event>
<event>
 7    1  0.4723144E-009  0.4778725E+02  0.7816164E-02  0.1312668E+00
        -11   -1    0    0    0    0  0.00000000000E+00  0.00000000000E+00  0.45593999997E+02  0.45594000000E+02  0.51100000000E-03 0.  1.
         11   -1    0    0    0    0 -0.00000000000E+00 -0.00000000000E+00 -0.45593999997E+02  0.45594000000E+02  0.51100000000E-03 0. -1.
    9900012    2    1    2    0    0 -0.18070793972E+02  0.37101995104E+02  0.13435533931E+02  0.47787248768E+02  0.19999898433E+02 0.  0.
         12    1    1    2    0    0  0.18070793972E+02 -0.37101995104E+02 -0.13435533931E+02  0.43400751232E+02  0.00000000000E+00 0. -1.
         11    1    3    3    0    0 -0.41060113441E+00  0.64378244780E+00 -0.53178766533E+00  0.93050927658E+00  0.51100000000E-03 0. -1.
        -11    1    3    3    0    0 -0.73138188937E+01  0.32546567050E+02  0.12817690880E+02  0.35736034662E+02  0.51100000000E-03 0.  1.
        -12    1    3    3    0    0 -0.10346373944E+02  0.39116456060E+01  0.11496307165E+01  0.11120704830E+02  0.00000000000E+00 0.  1.
</event>
<event>
 7    1  0.4723144E-009  0.4778726E+02  0.7816164E-02  0.1312668E+00
        -11   -1    0    0    0    0  0.00000000000E+00  0.00000000000E+00  0.45593999997E+02  0.45594000000E+02  0.51100000000E-03 0.  1.
         11   -1    0    0    0    0 -0.00000000000E+00 -0.00000000000E+00 -0.45593999997E+02  0.45594000000E+02  0.51100000000E-03 0. -1.
    9900012    2    1    2    0    0 -0.16043664040E+02  0.15630392215E+02  0.37174128924E+02  0.47787260629E+02  0.19999952514E+02 0.  0.
         12    1    1    2    0    0  0.16043664040E+02 -0.15630392215E+02 -0.37174128924E+02  0.43400739371E+02  0.00000000000E+00 0. -1.
         11    1    3    3    0    0 -0.98207032830E+01  0.66309040264E+01  0.66674841219E+01  0.13596707173E+02  0.51100000000E-03 0. -1.
        -11    1    3    3    0    0 -0.39368873426E+01  0.66790621683E+01  0.29885117832E+02  0.30874410464E+02  0.51100000000E-03 0.  1.
        -12    1    3    3    0    0 -0.22860734148E+01  0.23204260199E+01  0.62152697087E+00  0.33161429926E+01  0.00000000000E+00 0.  1.
</event>
<event>
 7    1  0.4723144E-009  0.4778727E+02  0.7816164E-02  0.1312668E+00
        -11   -1    0    0    0    0  0.00000000000E+00  0.00000000000E+00  0.45593999997E+02  0.45594000000E+02  0.51100000000E-03 0.  1.
         11   -1    0    0    0    0 -0.00000000000E+00 -0.00000000000E+00 -0.45593999997E+02  0.45594000000E+02  0.51100000000E-03 0. -1.
    9900012    2    1    2    0    0 -0.86209643758E+01  0.19271041540E+02  0.37920033155E+02  0.47787274392E+02  0.20000015263E+02 0.  0.
         12    1    1    2    0    0  0.86209643758E+01 -0.19271041540E+02 -0.37920033155E+02  0.43400725608E+02  0.00000000000E+00 0. -1.
         11    1    3    3    0    0  0.51123812786E+00  0.75128391398E+01  0.65836629653E+01  0.10002436436E+02  0.51100000000E-03 0. -1.
        -11    1    3    3    0    0 -0.69948808134E+00 -0.29851686545E+01  0.14102527863E+01  0.33748079433E+01  0.51100000000E-03 0.  1.
        -12    1    3    3    0    0 -0.84327144224E+01  0.14743371054E+02  0.29926117404E+02  0.34410030012E+02  0.00000000000E+00 0.  1.
</event>
<event>
 7    1  0.4723144E-009  0.4778726E+02  0.7816164E-02  0.1312668E+00
        -11   -1    0    0    0    0  0.00000000000E+00  0.00000000000E+00  0.45593999997E+02  0.45594000000E+02  0.51100000000E-03 0. -1.
         11   -1    0    0    0    0 -0.00000000000E+00 -0.00000000000E+00 -0.45593999997E+02  0.45594000000E+02  0.51100000000E-03 0.  1.
    9900012    2    1    2    0    0  0.77822365836E+01 -0.42328992794E+02  0.55961607496E+01  0.47787264380E+02  0.19999969615E+02 0.  0.
         12    1    1    2    0    0 -0.77822365836E+01  0.42328992794E+02 -0.55961607496E+01  0.43400735620E+02  0.00000000000E+00 0. -1.
         11    1    3    3    0    0  0.90524002519E+00 -0.80447617992E+01 -0.58074907126E+01  0.99631621761E+01  0.51100000000E-03 0. -1.
        -11    1    3    3    0    0  0.49145456168E+01 -0.89015452024E+01  0.65367784976E+00  0.10189090274E+02  0.51100000000E-03 0.  1.
         12    1    3    3    0    0  0.19624509417E+01 -0.25382685792E+02  0.10749973612E+02  0.27635011931E+02  0.00000000000E+00 0. -1.
</event>
<event>
 7    1  0.4723144E-009  0.4778726E+02  0.7816164E-02  0.1312668E+00
        -11   -1    0    0    0    0  0.00000000000E+00  0.00000000000E+00  0.45593999997E+02  0.45594000000E+02  0.51100000000E-03 0. -1.
         11   -1    0    0    0    0 -0.00000000000E+00 -0.00000000000E+00 -0.45593999997E+02  0.45594000000E+02  0.51100000000E-03 0.  1.
    9900012    2    1    2    0    0 -0.57228981248E+01  0.40682830355E+02 -0.13992154175E+02  0.47787255454E+02  0.19999928918E+02 0.  0.
         12    1    1    2    0    0  0.57228981248E+01 -0.40682830355E+02  0.13992154175E+02  0.43400744546E+02  0.00000000000E+00 0. -1.
         11    1    3    3    0    0  0.36507044692E+01  0.91876263626E+01 -0.11739899837E+01  0.99558211135E+01  0.51100000000E-03 0. -1.
        -11    1    3    3    0    0 -0.11368098557E+02  0.18011472535E+02 -0.11316097692E+02  0.24118475800E+02  0.51100000000E-03 0.  1.
        -12    1    3    3    0    0  0.19944959629E+01  0.13483731458E+02 -0.15020664991E+01  0.13712958541E+02  0.00000000000E+00 0.  1.
</event>
<event>
 7    1  0.4723144E-009  0.4778729E+02  0.7816164E-02  0.1312668E+00
        -11   -1    0    0    0    0  0.00000000000E+00  0.00000000000E+00  0.45593999997E+02  0.45594000000E+02  0.51100000000E-03 0.  1.
         11   -1    0    0    0    0 -0.00000000000E+00 -0.00000000000E+00 -0.45593999997E+02  0.45594000000E+02  0.51100000000E-03 0. -1.
    9900012    2    1    2    0    0  0.38737983063E+02  0.18852899496E+02  0.52496386163E+01  0.47787287370E+02  0.20000074433E+02 0.  0.
         12    1    1    2    0    0 -0.38737983063E+02 -0.18852899496E+02 -0.52496386163E+01  0.43400712630E+02  0.00000000000E+00 0. -1.
         11    1    3    3    0    0  0.66604529389E+01  0.14466854245E+01 -0.56430921587E+01  0.88486734283E+01  0.51100000000E-03 0. -1.
        -11    1    3    3    0    0  0.21627258451E+02  0.13977939007E+02  0.42769300207E+01  0.26103892768E+02  0.51100000000E-03 0.  1.
         12    1    3    3    0    0  0.10450271674E+02  0.34282750644E+01  0.66158007544E+01  0.12834721173E+02  0.00000000000E+00 0. -1.
</event>
<event>
 7    1  0.4723144E-009  0.4778726E+02  0.7816164E-02  0.1312668E+00
        -11   -1    0    0    0    0  0.00000000000E+00  0.00000000000E+00  0.45593999997E+02  0.45594000000E+02  0.51100000000E-03 0.  1.
         11   -1    0    0    0    0 -0.00000000000E+00 -0.00000000000E+00 -0.45593999997E+02  0.45594000000E+02  0.51100000000E-03 0. -1.
    9900012    2    1    2    0    0  0.10029390835E+02  0.36307305412E+01  0.42069627076E+02  0.47787257989E+02  0.19999940477E+02 0.  0.
         12    1    1    2    0    0 -0.10029390835E+02 -0.36307305412E+01 -0.42069627076E+02  0.43400742011E+02  0.00000000000E+00 0. -1.
         11    1    3    3    0    0  0.10358883810E+02 -0.11920906328E+00  0.77576228726E+01  0.12942233095E+02  0.51100000000E-03 0. -1.
        -11    1    3    3    0    0  0.15354588515E+01  0.86852735188E+00  0.21785418105E+02  0.21856724729E+02  0.51100000000E-03 0.  1.
         12    1    3    3    0    0 -0.18649518270E+01  0.28814122526E+01  0.12526586099E+02  0.12988300165E+02  0.00000000000E+00 0. -1.
</event>
<event>
 7    1  0.4723144E-009  0.4778728E+02  0.7816164E-02  0.1312668E+00
        -11   -1    0    0    0    0  0.00000000000E+00  0.00000000000E+00  0.45593999997E+02  0.45594000000E+02  0.51100000000E-03 0.  1.
         11   -1    0    0    0    0 -0.00000000000E+00 -0.00000000000E+00 -0.45593999997E+02  0.45594000000E+02  0.51100000000E-03 0. -1.
    9900012    2    1    2    0    0 -0.13520640004E+02 -0.40988545048E+02 -0.45556726257E+01  0.47787277836E+02  0.20000030967E+02 0.  0.
         12    1    1    2    0    0  0.13520640004E+02  0.40988545048E+02  0.45556726257E+01  0.43400722164E+02  0.00000000000E+00 0. -1.
         11    1    3    3    0    0 -0.78908897158E+01 -0.15164008891E+02  0.52110829636E+01  0.17870889515E+02  0.51100000000E-03 0. -1.
        -11    1    3    3    0    0 -0.66734473388E+01 -0.25067158999E+02 -0.10958950940E+02  0.28160184049E+02  0.51100000000E-03 0.  1.
        -12    1    3    3    0    0  0.10436970507E+01 -0.75737715750E+00  0.11921953507E+01  0.17562042724E+01  0.00000000000E+00 0.  1.
</event>
<event>
 7    1  0.4723144E-009  0.4778726E+02  0.7816164E-02  0.1312668E+00
        -11   -1    0    0    0    0  0.00000000000E+00  0.00000000000E+00  0.45593999997E+02  0.45594000000E+02  0.51100000000E-03 0.  1.
         11   -1    0    0    0    0 -0.00000000000E+00 -0.00000000000E+00 -0.45593999997E+02  0.45594000000E+02  0.51100000000E-03 0. -1.
    9900012    2    1    2    0    0 -0.16027680606E+02 -0.81490763540E+01  0.39501015941E+02  0.47787259783E+02  0.19999948653E+02 0.  0.
         12    1    1    2    0    0  0.16027680606E+02  0.81490763540E+01 -0.39501015941E+02  0.43400740217E+02  0.00000000000E+00 0. -1.
         11    1    3    3    0    0 -0.92905303304E+00 -0.70345743800E+01  0.39010546368E+01  0.80973207783E+01  0.51100000000E-03 0. -1.
        -11    1    3    3    0    0 -0.10507761218E+02  0.25772936321E+01  0.16745713044E+02  0.19936759865E+02  0.51100000000E-03 0.  1.
        -12    1    3    3    0    0 -0.45908663556E+01 -0.36917956060E+01  0.18854248260E+02  0.19753179140E+02  0.00000000000E+00 0.  1.
</event>
<event>
 7    1  0.4723144E-009  0.4778730E+02  0.7816164E-02  0.1312668E+00
        -11   -1    0    0    0    0  0.00000000000E+00  0.00000000000E+00  0.45593999997E+02  0.45594000000E+02  0.51100000000E-03 0.  1.
         11   -1    0    0    0    0 -0.00000000000E+00 -0.00000000000E+00 -0.45593999997E+02  0.45594000000E+02  0.51100000000E-03 0. -1.
    9900012    2    1    2    0    0  0.31859613627E+02  0.52661447745E+01  0.28997467330E+02  0.47787304466E+02  0.20000152384E+02 0.  0.
         12    1    1    2    0    0 -0.31859613627E+02 -0.52661447745E+01 -0.28997467330E+02  0.43400695534E+02  0.00000000000E+00 0. -1.
         11    1    3    3    0    0  0.16518459089E+02  0.67647109668E+01  0.15104314407E+02  0.23382923665E+02  0.51100000000E-03 0. -1.
        -11    1    3    3    0    0  0.12006734820E+02 -0.54826270216E+01  0.13955419815E+02  0.19208712153E+02  0.51100000000E-03 0.  1.
         12    1    3    3    0    0  0.33344197177E+01  0.39840608293E+01 -0.62266891761E-01  0.51956686491E+01  0.00000000000E+00 0. -1.
</event>
<event>
 7    1  0.5003789E-009  0.4778733E+02  0.7816164E-02  0.1312667E+00
        -11   -1    0    0    0    0  0.00000000000E+00  0.00000000000E+00  0.45593999997E+02  0.45594000000E+02  0.51100000000E-03 0. -1.
         11   -1    0    0    0    0 -0.00000000000E+00 -0.00000000000E+00 -0.45593999997E+02  0.45594000000E+02  0.51100000000E-03 0.  1.
    9900012    2    1    2    0    0 -0.19660866853E+02 -0.17144649389E+02 -0.34686151585E+02  0.47787334108E+02  0.20000287530E+02 0.  0.
         12    1    1    2    0    0  0.19660866853E+02  0.17144649389E+02  0.34686151585E+02  0.43400665892E+02  0.00000000000E+00 0. -1.
         11    1    3    3    0    0 -0.80751523825E+01 -0.76767087542E+01 -0.28789893514E+01  0.11507759263E+02  0.51100000000E-03 0. -1.
        -11    1    3    3    0    0 -0.66799369749E+01 -0.98471622940E+01 -0.17604044300E+02  0.21248306737E+02  0.51100000000E-03 0.  1.
         12    1    3    3    0    0 -0.49057774957E+01  0.37922165891E+00 -0.14203117934E+02  0.15031268108E+02  0.00000000000E+00 0. -1.
</event>
<event>
 7    1  0.4723144E-009  0.4778727E+02  0.7816164E-02  0.1312668E+00
        -11   -1    0    0    0    0  0.00000000000E+00  0.00000000000E+00  0.45593999997E+02  0.45594000000E+02  0.51100000000E-03 0.  1.
         11   -1    0    0    0    0 -0.00000000000E+00 -0.00000000000E+00 -0.45593999997E+02  0.45594000000E+02  0.51100000000E-03 0. -1.
    9900012    2    1    2    0    0  0.30830540593E+01  0.18715804172E+02  0.39036350310E+02  0.47787271969E+02  0.20000004214E+02 0.  0.
         12    1    1    2    0    0 -0.30830540593E+01 -0.18715804172E+02 -0.39036350310E+02  0.43400728031E+02  0.00000000000E+00 0. -1.
         11    1    3    3    0    0  0.29394620225E+01  0.13270347557E+02  0.31146419385E+02  0.33982966351E+02  0.51100000000E-03 0.  1.
        -11    1    3    3    0    0  0.20952490127E+01 -0.12527836381E+01 -0.88245858093E+00  0.25958175354E+01  0.51100000000E-03 0. -1.
        -12    1    3    3    0    0 -0.19516569759E+01  0.66982402533E+01  0.87723895061E+01  0.11208488082E+02  0.00000000000E+00 0.  1.
</event>
<event>
 7    1  0.4723144E-009  0.4778729E+02  0.7816164E-02  0.1312668E+00
        -11   -1    0    0    0    0  0.00000000000E+00  0.00000000000E+00  0.45593999997E+02  0.45594000000E+02  0.51100000000E-03 0. -1.
         11   -1    0    0    0    0 -0.00000000000E+00 -0.00000000000E+00 -0.45593999997E+02  0.45594000000E+02  0.51100000000E-03 0.  1.
    9900012    2    1    2    0    0 -0.34543348177E+02 -0.69528624790E+01 -0.25338442143E+02  0.47787287446E+02  0.20000074780E+02 0.  0.
         12    1    1    2    0    0  0.34543348177E+02  0.69528624790E+01  0.25338442143E+02  0.43400712554E+02  0.00000000000E+00 0. -1.
         11    1    3    3    0    0 -0.41474624865E+01  0.48168761207E+01 -0.76216384901E+01  0.99243697116E+01  0.51100000000E-03 0. -1.
        -11    1    3    3    0    0 -0.15695698448E+02 -0.10070219310E+02 -0.10451510822E+02  0.21377519629E+02  0.51100000000E-03 0.  1.
        -12    1    3    3    0    0 -0.14700187242E+02 -0.16995192895E+01 -0.72652928310E+01  0.16485398106E+02  0.00000000000E+00 0.  1.
</event>
<event>
 7    1  0.4723144E-009  0.4778726E+02  0.7816164E-02  0.1312668E+00
        -11   -1    0    0    0    0  0.00000000000E+00  0.00000000000E+00  0.45593999997E+02  0.45594000000E+02  0.51100000000E-03 0.  1.
         11   -1    0    0    0    0 -0.00000000000E+00 -0.00000000000E+00 -0.45593999997E+02  0.45594000000E+02  0.51100000000E-03 0. -1.
    9900012    2    1    2    0    0  0.15410727132E+02 -0.12373291318E+01  0.40553698225E+02  0.47787263442E+02  0.19999965336E+02 0.  0.
         12    1    1    2    0    0 -0.15410727132E+02  0.12373291318E+01 -0.40553698225E+02  0.43400736558E+02  0.00000000000E+00 0. -1.
         11    1    3    3    0    0  0.23248937522E+01  0.51833598062E+01  0.41655737653E+01  0.70444556138E+01  0.51100000000E-03 0. -1.
        -11    1    3    3    0    0  0.13908989360E+02 -0.80181208245E+01  0.34877476642E+02  0.38395164067E+02  0.51100000000E-03 0.  1.
        -12    1    3    3    0    0 -0.82315598050E+00  0.15974318864E+01  0.15106478175E+01  0.23476437610E+01  0.00000000000E+00 0.  1.
</event>
<event>
 7    1  0.4723144E-009  0.4778727E+02  0.7816164E-02  0.1312668E+00
        -11   -1    0    0    0    0  0.00000000000E+00  0.00000000000E+00  0.45593999997E+02  0.45594000000E+02  0.51100000000E-03 0.  1.
         11   -1    0    0    0    0 -0.00000000000E+00 -0.00000000000E+00 -0.45593999997E+02  0.45594000000E+02  0.51100000000E-03 0. -1.
    9900012    2    1    2    0    0 -0.37965501890E+02  0.14818797580E+02  0.14921381505E+02  0.47787265888E+02  0.19999976488E+02 0.  0.
         12    1    1    2    0    0  0.37965501890E+02 -0.14818797580E+02 -0.14921381505E+02  0.43400734112E+02  0.00000000000E+00 0. -1.
         11    1    3    3    0    0  0.17785880330E+01 -0.54613379607E+00  0.10875022855E+00  0.18637232594E+01  0.51100000000E-03 0. -1.
        -11    1    3    3    0    0 -0.29669136968E+02  0.15276431406E+02  0.10747659398E+02  0.35059081958E+02  0.51100000000E-03 0.  1.
        -12    1    3    3    0    0 -0.10074952955E+02  0.88499970043E-01  0.40649718786E+01  0.10864460670E+02  0.00000000000E+00 0.  1.
</event>
<event>
 7    1  0.4723144E-009  0.4778727E+02  0.7816164E-02  0.1312668E+00
        -11   -1    0    0    0    0  0.00000000000E+00  0.00000000000E+00  0.45593999997E+02  0.45594000000E+02  0.51100000000E-03 0. -1.
         11   -1    0    0    0    0 -0.00000000000E+00 -0.00000000000E+00 -0.45593999997E+02  0.45594000000E+02  0.51100000000E-03 0.  1.
    9900012    2    1    2    0    0 -0.18866065831E+02  0.37940683156E+02 -0.93914449434E+01  0.47787272858E+02  0.20000008270E+02 0.  0.
         12    1    1    2    0    0  0.18866065831E+02 -0.37940683156E+02  0.93914449434E+01  0.43400727142E+02  0.00000000000E+00 0. -1.
         11    1    3    3    0    0 -0.13581248204E+02  0.33207655395E+02 -0.12956070521E+02  0.38145228315E+02  0.51100000000E-03 0. -1.
        -11    1    3    3    0    0 -0.35791247811E+01 -0.87366283557E-01  0.33863630736E+00  0.35961704459E+01  0.51100000000E-03 0.  1.
         12    1    3    3    0    0 -0.17056928457E+01  0.48203940451E+01  0.32259892699E+01  0.60458740975E+01  0.00000000000E+00 0. -1.
</event>
<event>
 7    1  0.4723144E-009  0.4778727E+02  0.7816164E-02  0.1312668E+00
        -11   -1    0    0    0    0  0.00000000000E+00  0.00000000000E+00  0.45593999997E+02  0.45594000000E+02  0.51100000000E-03 0.  1.
         11   -1    0    0    0    0 -0.00000000000E+00 -0.00000000000E+00 -0.45593999997E+02  0.45594000000E+02  0.51100000000E-03 0. -1.
    9900012    2    1    2    0    0 -0.36453376458E+01 -0.30840328995E+02  0.30318456827E+02  0.47787271856E+02  0.20000003702E+02 0.  0.
         12    1    1    2    0    0  0.36453376458E+01  0.30840328995E+02 -0.30318456827E+02  0.43400728144E+02  0.00000000000E+00 0. -1.
         11    1    3    3    0    0  0.34499851191E+01  0.51980181695E+00  0.83980689363E+00  0.35885745263E+01  0.51100000000E-03 0. -1.
        -11    1    3    3    0    0 -0.56279050410E+01 -0.20090958636E+02  0.23251036686E+02  0.31239888625E+02  0.51100000000E-03 0.  1.
         12    1    3    3    0    0 -0.14674177239E+01 -0.11269172175E+02  0.62276132470E+01  0.12958808705E+02  0.00000000000E+00 0. -1.
</event>
<event>
 7    1  0.4723144E-009  0.4778727E+02  0.7816164E-02  0.1312668E+00
        -11   -1    0    0    0    0  0.00000000000E+00  0.00000000000E+00  0.45593999997E+02  0.45594000000E+02  0.51100000000E-03 0. -1.
         11   -1    0    0    0    0 -0.00000000000E+00 -0.00000000000E+00 -0.45593999997E+02  0.45594000000E+02  0.51100000000E-03 0.  1.
    9900012    2    1    2    0    0  0.19465514550E+02 -0.35948649917E+02 -0.14574349716E+02  0.47787270084E+02  0.19999995621E+02 0.  0.
         12    1    1    2    0    0 -0.19465514550E+02  0.35948649917E+02  0.14574349716E+02  0.43400729916E+02  0.00000000000E+00 0. -1.
         11    1    3    3    0    0  0.50597374174E+01 -0.92787938770E+01 -0.12044809651E+02  0.16024181674E+02  0.51100000000E-03 0. -1.
        -11    1    3    3    0    0  0.11710178902E+02 -0.26421366793E+02 -0.28352058983E+01  0.29038858550E+02  0.51100000000E-03 0.  1.
         12    1    3    3    0    0  0.26955982307E+01 -0.24848924772E+00  0.30566583312E+00  0.27242298599E+01  0.00000000000E+00 0. -1.
</event>
<event>
 7    1  0.4723144E-009  0.4778727E+02  0.7816164E-02  0.1312668E+00
        -11   -1    0    0    0    0  0.00000000000E+00  0.00000000000E+00  0.45593999997E+02  0.45594000000E+02  0.51100000000E-03 0.  1.
         11   -1    0    0    0    0 -0.00000000000E+00 -0.00000000000E+00 -0.45593999997E+02  0.45594000000E+02  0.51100000000E-03 0. -1.
    9900012    2    1    2    0    0  0.26713449038E+02  0.32172953446E+02  0.11615342671E+02  0.47787268689E+02  0.19999989261E+02 0.  0.
         12    1    1    2    0    0 -0.26713449038E+02 -0.32172953446E+02 -0.11615342671E+02  0.43400731311E+02  0.00000000000E+00 0. -1.
         11    1    3    3    0    0  0.49217203496E+01  0.29686133398E+01  0.14041469679E+01  0.59167242060E+01  0.51100000000E-03 0. -1.
        -11    1    3    3    0    0  0.11471119672E+02  0.12635832049E+02 -0.42381633256E+01  0.17584449572E+02  0.51100000000E-03 0.  1.
        -12    1    3    3    0    0  0.10320609017E+02  0.16568508056E+02  0.14449359029E+02  0.24286094911E+02  0.00000000000E+00 0.  1.
</event>
<event>
 7    1  0.4723144E-009  0.4778727E+02  0.7816164E-02  0.1312668E+00
        -11   -1    0    0    0    0  0.00000000000E+00  0.00000000000E+00  0.45593999997E+02  0.45594000000E+02  0.51100000000E-03 0.  1.
         11   -1    0    0    0    0 -0.00000000000E+00 -0.00000000000E+00 -0.45593999997E+02  0.45594000000E+02  0.51100000000E-03 0. -1.
    9900012    2    1    2    0    0 -0.39836213620E+02 -0.11379058541E+02  0.12931206373E+02  0.47787274348E+02  0.20000015062E+02 0.  0.
         12    1    1    2    0    0  0.39836213620E+02  0.11379058541E+02 -0.12931206373E+02  0.43400725652E+02  0.00000000000E+00 0. -1.
         11    1    3    3    0    0 -0.44025306671E+00  0.67923074711E+00 -0.50478152391E+00  0.95392967171E+00  0.51100000000E-03 0. -1.
        -11    1    3    3    0    0 -0.30249982369E+02 -0.12217075976E+01  0.61586405542E+01  0.30894705963E+02  0.51100000000E-03 0.  1.
        -12    1    3    3    0    0 -0.91459781839E+01 -0.10836581691E+02  0.72773473431E+01  0.15938638713E+02  0.00000000000E+00 0.  1.
</event>
<event>
 7    1  0.4723144E-009  0.4778725E+02  0.7816164E-02  0.1312668E+00
        -11   -1    0    0    0    0  0.00000000000E+00  0.00000000000E+00  0.45593999997E+02  0.45594000000E+02  0.51100000000E-03 0.  1.
         11   -1    0    0    0    0 -0.00000000000E+00 -0.00000000000E+00 -0.45593999997E+02  0.45594000000E+02  0.51100000000E-03 0. -1.
    9900012    2    1    2    0    0 -0.13469129793E+02  0.37104967208E+02  0.18039644913E+02  0.47787253031E+02  0.19999917872E+02 0.  0.
         12    1    1    2    0    0  0.13469129793E+02 -0.37104967208E+02 -0.18039644913E+02  0.43400746969E+02  0.00000000000E+00 0. -1.
         11    1    3    3    0    0  0.19371949505E+01 -0.44595037524E+00  0.32047380358E+01  0.37711990338E+01  0.51100000000E-03 0. -1.
        -11    1    3    3    0    0 -0.76608241534E+01  0.28579244572E+02  0.10600705923E+02  0.31429864991E+02  0.51100000000E-03 0.  1.
        -12    1    3    3    0    0 -0.77455005897E+01  0.89716730110E+01  0.42342009543E+01  0.12586189007E+02  0.00000000000E+00 0.  1.
</event>
<event>
 7    1  0.4723144E-009  0.4778727E+02  0.7816164E-02  0.1312668E+00
        -11   -1    0    0    0    0  0.00000000000E+00  0.00000000000E+00  0.45593999997E+02  0.45594000000E+02  0.51100000000E-03 0.  1.
         11   -1    0    0    0    0 -0.00000000000E+00 -0.00000000000E+00 -0.45593999997E+02  0.45594000000E+02  0.51100000000E-03 0. -1.
    9900012    2    1    2    0    0  0.14372109236E+01 -0.17147428444E+01  0.43343021234E+02  0.47787269500E+02  0.19999992958E+02 0.  0.
         12    1    1    2    0    0 -0.14372109236E+01  0.17147428444E+01 -0.43343021234E+02  0.43400730500E+02  0.00000000000E+00 0. -1.
         11    1    3    3    0    0  0.88913849929E+01 -0.11934257511E+01  0.22846094133E+02  0.24544347812E+02  0.51100000000E-03 0. -1.
        -11    1    3    3    0    0  0.13836457191E+01 -0.11402249786E+01  0.59134550355E+01  0.61792830649E+01  0.51100000000E-03 0.  1.
         12    1    3    3    0    0 -0.88378197884E+01  0.61890788527E+00  0.14583472066E+02  0.17063638624E+02  0.00000000000E+00 0. -1.
</event>
<event>
 7    1  0.4723144E-009  0.4778728E+02  0.7816164E-02  0.1312668E+00
        -11   -1    0    0    0    0  0.00000000000E+00  0.00000000000E+00  0.45593999997E+02  0.45594000000E+02  0.51100000000E-03 0.  1.
         11   -1    0    0    0    0 -0.00000000000E+00 -0.00000000000E+00 -0.45593999997E+02  0.45594000000E+02  0.51100000000E-03 0. -1.
    9900012    2    1    2    0    0  0.41950347660E+02  0.75364702609E+01  0.81849152762E+01  0.47787275457E+02  0.20000020120E+02 0.  0.
         12    1    1    2    0    0 -0.41950347660E+02 -0.75364702609E+01 -0.81849152762E+01  0.43400724543E+02  0.00000000000E+00 0. -1.
         11    1    3    3    0    0  0.22439141235E+02 -0.21693876956E+01 -0.31315223462E+01  0.22760222644E+02  0.51100000000E-03 0. -1.
        -11    1    3    3    0    0  0.12508493168E+02  0.58032168766E+01  0.96729200970E+01  0.16843548050E+02  0.51100000000E-03 0.  1.
         12    1    3    3    0    0  0.70027132571E+01  0.39026410799E+01  0.16435175254E+01  0.81835047636E+01  0.00000000000E+00 0. -1.
</event>
<event>
 7    1  0.4723144E-009  0.4778727E+02  0.7816164E-02  0.1312668E+00
        -11   -1    0    0    0    0  0.00000000000E+00  0.00000000000E+00  0.45593999997E+02  0.45594000000E+02  0.51100000000E-03 0.  1.
         11   -1    0    0    0    0 -0.00000000000E+00 -0.00000000000E+00 -0.45593999997E+02  0.45594000000E+02  0.51100000000E-03 0. -1.
    9900012    2    1    2    0    0  0.39255181570E+02 -0.13782036183E+02  0.12357578434E+02  0.47787267907E+02  0.19999985696E+02 0.  0.
         12    1    1    2    0    0 -0.39255181570E+02  0.13782036183E+02 -0.12357578434E+02  0.43400732093E+02  0.00000000000E+00 0. -1.
         11    1    3    3    0    0 -0.43092005822E+00 -0.72159497407E+00 -0.21198804964E+01  0.22804133361E+01  0.51100000000E-03 0. -1.
        -11    1    3    3    0    0  0.23244897275E+02 -0.85082912480E+01  0.14005341592E+02  0.28440567200E+02  0.51100000000E-03 0.  1.
        -12    1    3    3    0    0  0.16441204353E+02 -0.45521499609E+01  0.47211733830E+00  0.17066287371E+02  0.00000000000E+00 0.  1.
</event>
<event>
 7    1  0.4723144E-009  0.4778727E+02  0.7816164E-02  0.1312668E+00
        -11   -1    0    0    0    0  0.00000000000E+00  0.00000000000E+00  0.45593999997E+02  0.45594000000E+02  0.51100000000E-03 0.  1.
         11   -1    0    0    0    0 -0.00000000000E+00 -0.00000000000E+00 -0.45593999997E+02  0.45594000000E+02  0.51100000000E-03 0. -1.
    9900012    2    1    2    0    0 -0.19599032917E+02  0.11005840887E+02  0.37126439490E+02  0.47787272654E+02  0.20000007338E+02 0.  0.
         12    1    1    2    0    0  0.19599032917E+02 -0.11005840887E+02 -0.37126439490E+02  0.43400727346E+02  0.00000000000E+00 0. -1.
         11    1    3    3    0    0  0.22931140366E+01 -0.15138837830E+01  0.54174199000E+01  0.60744262879E+01  0.51100000000E-03 0. -1.
        -11    1    3    3    0    0 -0.13290877464E+02  0.35218827891E+01  0.21927728886E+02  0.25881970104E+02  0.51100000000E-03 0.  1.
         12    1    3    3    0    0 -0.86012694903E+01  0.89978418813E+01  0.97812907046E+01  0.15830876262E+02  0.00000000000E+00 0. -1.
</event>
<event>
 7    1  0.4723144E-009  0.4778728E+02  0.7816164E-02  0.1312668E+00
        -11   -1    0    0    0    0  0.00000000000E+00  0.00000000000E+00  0.45593999997E+02  0.45594000000E+02  0.51100000000E-03 0.  1.
         11   -1    0    0    0    0 -0.00000000000E+00 -0.00000000000E+00 -0.45593999997E+02  0.45594000000E+02  0.51100000000E-03 0. -1.
    9900012    2    1    2    0    0  0.27657346504E+02 -0.32732432228E+02 -0.68761307858E+01  0.47787284455E+02  0.20000061144E+02 0.  0.
         12    1    1    2    0    0 -0.27657346504E+02  0.32732432228E+02  0.68761307858E+01  0.43400715545E+02  0.00000000000E+00 0. -1.
         11    1    3    3    0    0 -0.14439243277E-01 -0.48113115353E-01 -0.49076434438E+01  0.49079005487E+01  0.51100000000E-03 0. -1.
        -11    1    3    3    0    0  0.14568289440E+02 -0.17268761119E+02 -0.14764068743E+01  0.22641222258E+02  0.51100000000E-03 0.  1.
         12    1    3    3    0    0  0.13103496307E+02 -0.15415557994E+02 -0.49208046773E+00  0.20238161649E+02  0.00000000000E+00 0. -1.
</event>
<event>
 7    1  0.4723144E-009  0.4778727E+02  0.7816164E-02  0.1312668E+00
        -11   -1    0    0    0    0  0.00000000000E+00  0.00000000000E+00  0.45593999997E+02  0.45594000000E+02  0.51100000000E-03 0.  1.
         11   -1    0    0    0    0 -0.00000000000E+00 -0.00000000000E+00 -0.45593999997E+02  0.45594000000E+02  0.51100000000E-03 0. -1.
    9900012    2    1    2    0    0 -0.51358619533E+00  0.42892952269E+02  0.65995358149E+01  0.47787274222E+02  0.20000014487E+02 0.  0.
         12    1    1    2    0    0  0.51358619533E+00 -0.42892952269E+02 -0.65995358149E+01  0.43400725778E+02  0.00000000000E+00 0. -1.
         11    1    3    3    0    0  0.50207920746E+01  0.20826077400E+02  0.94682409109E+01  0.23421815453E+02  0.51100000000E-03 0. -1.
        -11    1    3    3    0    0 -0.29244733833E+01  0.71866910446E+01  0.27722683939E+01  0.82393291626E+01  0.51100000000E-03 0.  1.
         12    1    3    3    0    0 -0.26099048867E+01  0.14880183824E+02 -0.56409734898E+01  0.16126129606E+02  0.00000000000E+00 0. -1.
</event>
<event>
 7    1  0.4723144E-009  0.4778727E+02  0.7816164E-02  0.1312668E+00
        -11   -1    0    0    0    0  0.00000000000E+00  0.00000000000E+00  0.45593999997E+02  0.45594000000E+02  0.51100000000E-03 0. -1.
         11   -1    0    0    0    0 -0.00000000000E+00 -0.00000000000E+00 -0.45593999997E+02  0.45594000000E+02  0.51100000000E-03 0.  1.
    9900012    2    1    2    0    0 -0.59154632429E+01  0.41722529748E+02 -0.10385616954E+02  0.47787271510E+02  0.20000002122E+02 0.  0.
         12    1    1    2    0    0  0.59154632429E+01 -0.41722529748E+02  0.10385616954E+02  0.43400728490E+02  0.00000000000E+00 0. -1.
         11    1    3    3    0    0 -0.50428172472E+01  0.11069212594E+02 -0.97697672857E+01  0.15601468723E+02  0.51100000000E-03 0. -1.
        -11    1    3    3    0    0 -0.39936885393E+01  0.55056551561E+01  0.50590415227E+00  0.68203904668E+01  0.51100000000E-03 0.  1.
         12    1    3    3    0    0  0.31210425436E+01  0.25147661998E+02 -0.11217538208E+01  0.25365412320E+02  0.00000000000E+00 0. -1.
</event>
<event>
 7    1  0.4723144E-009  0.4778727E+02  0.7816164E-02  0.1312668E+00
        -11   -1    0    0    0    0  0.00000000000E+00  0.00000000000E+00  0.45593999997E+02  0.45594000000E+02  0.51100000000E-03 0.  1.
         11   -1    0    0    0    0 -0.00000000000E+00 -0.00000000000E+00 -0.45593999997E+02  0.45594000000E+02  0.51100000000E-03 0. -1.
    9900012    2    1    2    0    0 -0.85706953151E+01 -0.23182796745E+02  0.35675262861E+02  0.47787271167E+02  0.20000000558E+02 0.  0.
         12    1    1    2    0    0  0.85706953151E+01  0.23182796745E+02 -0.35675262861E+02  0.43400728833E+02  0.00000000000E+00 0. -1.
         11    1    3    3    0    0  0.13047979111E+01  0.26998362265E+01  0.55229628897E+01  0.62844834777E+01  0.51100000000E-03 0. -1.
        -11    1    3    3    0    0 -0.62767747048E+01 -0.19017784893E+02  0.25639058561E+02  0.32533603660E+02  0.51100000000E-03 0.  1.
         12    1    3    3    0    0 -0.35987185214E+01 -0.68648480779E+01  0.45132414094E+01  0.89691840292E+01  0.00000000000E+00 0. -1.
</event>
<event>
 7    1  0.4723144E-009  0.4778727E+02  0.7816164E-02  0.1312668E+00
        -11   -1    0    0    0    0  0.00000000000E+00  0.00000000000E+00  0.45593999997E+02  0.45594000000E+02  0.51100000000E-03 0. -1.
         11   -1    0    0    0    0 -0.00000000000E+00 -0.00000000000E+00 -0.45593999997E+02  0.45594000000E+02  0.51100000000E-03 0.  1.
    9900012    2    1    2    0    0  0.11010141528E+02  0.15333483623E+02 -0.39080485462E+02  0.47787270969E+02  0.19999999656E+02 0.  0.
         12    1    1    2    0    0 -0.11010141528E+02 -0.15333483623E+02  0.39080485462E+02  0.43400729031E+02  0.00000000000E+00 0. -1.
         11    1    3    3    0    0  0.68164445783E+00 -0.13639604592E+01 -0.87432513339E+00  0.17576893927E+01  0.51100000000E-03 0. -1.
        -11    1    3    3    0    0 -0.32852472950E+01  0.78680302692E+01 -0.77576941540E+01  0.11527383439E+02  0.51100000000E-03 0.  1.
        -12    1    3    3    0    0  0.13613744365E+02  0.88294138126E+01 -0.30448466175E+02  0.34502198137E+02  0.00000000000E+00 0.  1.
</event>
<event>
 7    1  0.4723144E-009  0.4778727E+02  0.7816164E-02  0.1312668E+00
        -11   -1    0    0    0    0  0.00000000000E+00  0.00000000000E+00  0.45593999997E+02  0.45594000000E+02  0.51100000000E-03 0.  1.
         11   -1    0    0    0    0 -0.00000000000E+00 -0.00000000000E+00 -0.45593999997E+02  0.45594000000E+02  0.51100000000E-03 0. -1.
    9900012    2    1    2    0    0 -0.23851810291E+02 -0.10871336205E+02  0.34590872427E+02  0.47787271201E+02  0.20000000712E+02 0.  0.
         12    1    1    2    0    0  0.23851810291E+02  0.10871336205E+02 -0.34590872427E+02  0.43400728799E+02  0.00000000000E+00 0. -1.
         11    1    3    3    0    0 -0.20916751011E+01 -0.61130366618E+01  0.16861967455E+01  0.66773933299E+01  0.51100000000E-03 0. -1.
        -11    1    3    3    0    0 -0.11488355654E+02 -0.50089883518E+00  0.24844441228E+02  0.27376622792E+02  0.51100000000E-03 0.  1.
         12    1    3    3    0    0 -0.10271779536E+02 -0.42574007080E+01  0.80602344537E+01  0.13733255079E+02  0.00000000000E+00 0. -1.
</event>
<event>
 7    1  0.4723144E-009  0.4778727E+02  0.7816164E-02  0.1312668E+00
        -11   -1    0    0    0    0  0.00000000000E+00  0.00000000000E+00  0.45593999997E+02  0.45594000000E+02  0.51100000000E-03 0.  1.
         11   -1    0    0    0    0 -0.00000000000E+00 -0.00000000000E+00 -0.45593999997E+02  0.45594000000E+02  0.51100000000E-03 0. -1.
    9900012    2    1    2    0    0 -0.27474792106E+02 -0.30101137436E+02  0.14922484795E+02  0.47787271565E+02  0.20000002375E+02 0.  0.
         12    1    1    2    0    0  0.27474792106E+02  0.30101137436E+02 -0.14922484795E+02  0.43400728435E+02  0.00000000000E+00 0. -1.
         11    1    3    3    0    0 -0.56276607646E+01 -0.23814842236E+01  0.18962618683E+01  0.63982686817E+01  0.51100000000E-03 0. -1.
        -11    1    3    3    0    0 -0.13004151805E+02 -0.48118653604E+01  0.89345380065E+01  0.16495089635E+02  0.51100000000E-03 0.  1.
        -12    1    3    3    0    0 -0.88429795372E+01 -0.22907787852E+02  0.40916849197E+01  0.24893913249E+02  0.00000000000E+00 0.  1.
</event>
<event>
 7    1  0.4723144E-009  0.4778727E+02  0.7816164E-02  0.1312668E+00
        -11   -1    0    0    0    0  0.00000000000E+00  0.00000000000E+00  0.45593999997E+02  0.45594000000E+02  0.51100000000E-03 0.  1.
         11   -1    0    0    0    0 -0.00000000000E+00 -0.00000000000E+00 -0.45593999997E+02  0.45594000000E+02  0.51100000000E-03 0. -1.
    9900012    2    1    2    0    0  0.29510422913E+02  0.25112281266E+02  0.19548188731E+02  0.47787269435E+02  0.19999992664E+02 0.  0.
         12    1    1    2    0    0 -0.29510422913E+02 -0.25112281266E+02 -0.19548188731E+02  0.43400730565E+02  0.00000000000E+00 0. -1.
         11    1    3    3    0    0  0.13160425036E+02  0.15109838587E+02  0.12039095665E+02  0.23376138132E+02  0.51100000000E-03 0.  1.
        -11    1    3    3    0    0  0.82964617089E+00  0.34379484806E+01 -0.29261536044E+01  0.45902263236E+01  0.51100000000E-03 0. -1.
        -12    1    3    3    0    0  0.15520351706E+02  0.65644941981E+01  0.10435246671E+02  0.19820904980E+02  0.00000000000E+00 0.  1.
</event>
<event>
 7    1  0.5421811E-009  0.4778727E+02  0.7816164E-02  0.1312668E+00
        -11   -1    0    0    0    0  0.00000000000E+00  0.00000000000E+00  0.45593999997E+02  0.45594000000E+02  0.51100000000E-03 0.  1.
         11   -1    0    0    0    0 -0.00000000000E+00 -0.00000000000E+00 -0.45593999997E+02  0.45594000000E+02  0.51100000000E-03 0. -1.
    9900012    2    1    2    0    0 -0.32543219046E+02 -0.28499578295E+02  0.35122605206E+01  0.47787273706E+02  0.20000012135E+02 0.  0.
         12    1    1    2    0    0  0.32543219046E+02  0.28499578295E+02 -0.35122605206E+01  0.43400726294E+02  0.00000000000E+00 0. -1.
         11    1    3    3    0    0  0.31609278744E+00  0.38176263279E-01  0.21332961920E+01  0.21569248901E+01  0.51100000000E-03 0. -1.
        -11    1    3    3    0    0 -0.26567460384E+02 -0.23656827128E+02  0.65003345645E+01  0.36162546518E+02  0.51100000000E-03 0.  1.
        -12    1    3    3    0    0 -0.62918514499E+01 -0.48809274307E+01 -0.51213702360E+01  0.94678022975E+01  0.00000000000E+00 0.  1.
</event>
<event>
 7    1  0.4723144E-009  0.4778727E+02  0.7816164E-02  0.1312668E+00
        -11   -1    0    0    0    0  0.00000000000E+00  0.00000000000E+00  0.45593999997E+02  0.45594000000E+02  0.51100000000E-03 0.  1.
         11   -1    0    0    0    0 -0.00000000000E+00 -0.00000000000E+00 -0.45593999997E+02  0.45594000000E+02  0.51100000000E-03 0. -1.
    9900012    2    1    2    0    0  0.36395060228E+02  0.55977110820E+01  0.22971476663E+02  0.47787268226E+02  0.19999987152E+02 0.  0.
         12    1    1    2    0    0 -0.36395060228E+02 -0.55977110820E+01 -0.22971476663E+02  0.43400731774E+02  0.00000000000E+00 0. -1.
         11    1    3    3    0    0  0.62414088351E+01  0.55547635836E+01 -0.70333402901E+00  0.83848232977E+01  0.51100000000E-03 0. -1.
        -11    1    3    3    0    0  0.13965380660E+02  0.22956305053E+01  0.61272838756E+01  0.15422236684E+02  0.51100000000E-03 0.  1.
         12    1    3    3    0    0  0.16188270734E+02 -0.22526830069E+01  0.17547526817E+02  0.23980208245E+02  0.00000000000E+00 0. -1.
</event>
<event>
 7    1  0.4723144E-009  0.4778724E+02  0.7816164E-02  0.1312668E+00
        -11   -1    0    0    0    0  0.00000000000E+00  0.00000000000E+00  0.45593999997E+02  0.45594000000E+02  0.51100000000E-03 0. -1.
         11   -1    0    0    0    0 -0.00000000000E+00 -0.00000000000E+00 -0.45593999997E+02  0.45594000000E+02  0.51100000000E-03 0.  1.
    9900012    2    1    2    0    0  0.38815909355E+02 -0.18942311557E+02  0.42590724706E+01  0.47787243273E+02  0.19999873380E+02 0.  0.
         12    1    1    2    0    0 -0.38815909355E+02  0.18942311557E+02 -0.42590724706E+01  0.43400756727E+02  0.00000000000E+00 0. -1.
         11    1    3    3    0    0  0.74335237663E+00 -0.28850114926E+01 -0.32442738099E+01  0.44046767058E+01  0.51100000000E-03 0. -1.
        -11    1    3    3    0    0  0.32705018855E+02 -0.16643862956E+02  0.89909031102E+01  0.37781910637E+02  0.51100000000E-03 0.  1.
         12    1    3    3    0    0  0.53675381227E+01  0.58656289177E+00 -0.14875568297E+01  0.56006559300E+01  0.00000000000E+00 0. -1.
</event>
<event>
 7    1  0.4723144E-009  0.4778727E+02  0.7816164E-02  0.1312668E+00
        -11   -1    0    0    0    0  0.00000000000E+00  0.00000000000E+00  0.45593999997E+02  0.45594000000E+02  0.51100000000E-03 0. -1.
         11   -1    0    0    0    0 -0.00000000000E+00 -0.00000000000E+00 -0.45593999997E+02  0.45594000000E+02  0.51100000000E-03 0.  1.
    9900012    2    1    2    0    0 -0.39669416164E+02  0.98744635821E+01 -0.14575853124E+02  0.47787273000E+02  0.20000008917E+02 0.  0.
         12    1    1    2    0    0  0.39669416164E+02 -0.98744635821E+01  0.14575853124E+02  0.43400727000E+02  0.00000000000E+00 0. -1.
         11    1    3    3    0    0 -0.21048605420E+02 -0.20788346129E+01 -0.10434005961E+02  0.23584609900E+02  0.51100000000E-03 0. -1.
        -11    1    3    3    0    0 -0.14809928855E+02  0.12482403970E+02 -0.54803425188E+01  0.20129047567E+02  0.51100000000E-03 0.  1.
         12    1    3    3    0    0 -0.38108818889E+01 -0.52910577534E+00  0.13384953560E+01  0.40736155330E+01  0.00000000000E+00 0. -1.
</event>
<event>
 7    1  0.4723144E-009  0.4778728E+02  0.7816164E-02  0.1312668E+00
        -11   -1    0    0    0    0  0.00000000000E+00  0.00000000000E+00  0.45593999997E+02  0.45594000000E+02  0.51100000000E-03 0.  1.
         11   -1    0    0    0    0 -0.00000000000E+00 -0.00000000000E+00 -0.45593999997E+02  0.45594000000E+02  0.51100000000E-03 0. -1.
    9900012    2    1    2    0    0 -0.26229619191E+02 -0.15676697013E+02  0.30819974150E+02  0.47787279284E+02  0.20000037565E+02 0.  0.
         12    1    1    2    0    0  0.26229619191E+02  0.15676697013E+02 -0.30819974150E+02  0.43400720716E+02  0.00000000000E+00 0. -1.
         11    1    3    3    0    0 -0.12310208494E+02 -0.41343601089E+01  0.43827760849E+01  0.13705578906E+02  0.51100000000E-03 0. -1.
        -11    1    3    3    0    0 -0.56758691592E+01 -0.48818018379E+01  0.20739029553E+02  0.22048918952E+02  0.51100000000E-03 0.  1.
        -12    1    3    3    0    0 -0.82435415377E+01 -0.66605350659E+01  0.56981685120E+01  0.12032781426E+02  0.00000000000E+00 0.  1.
</event>
