<event>
 7    1  0.1283194E-013  0.7246156E+02  0.7816164E-02  0.1226708E+00
        -11   -1    0    0    0    0  0.00000000000E+00  0.00000000000E+00  0.45593999997E+02  0.45594000000E+02  0.51100000000E-03 0. -1.
         11   -1    0    0    0    0 -0.00000000000E+00 -0.00000000000E+00 -0.45593999997E+02  0.45594000000E+02  0.51100000000E-03 0.  1.
    9900012    2    1    2    0    0  0.14713228804E+02  0.10518504076E+02  0.48540231752E+01  0.72461559580E+02  0.69999986042E+02 0.  0.
         12    1    1    2    0    0 -0.14713228804E+02 -0.10518504076E+02 -0.48540231752E+01  0.18726440420E+02  0.00000000000E+00 0. -1.
         11    1    3    3    0    0  0.21821845311E+02 -0.96961465851E+01  0.92013829491E+01  0.25590499014E+02  0.51100000000E-03 0. -1.
        -11    1    3    3    0    0 -0.16051544951E+02 -0.59260351394E+01 -0.82030065404E+01  0.18975228703E+02  0.51100000000E-03 0.  1.
         12    1    3    3    0    0  0.89429284442E+01  0.26140685800E+02  0.38556467664E+01  0.27895831862E+02  0.00000000000E+00 0. -1.
</event>
<event>
 7    1  0.1283194E-013  0.7246160E+02  0.7816164E-02  0.1226708E+00
        -11   -1    0    0    0    0  0.00000000000E+00  0.00000000000E+00  0.45593999997E+02  0.45594000000E+02  0.51100000000E-03 0.  1.
         11   -1    0    0    0    0 -0.00000000000E+00 -0.00000000000E+00 -0.45593999997E+02  0.45594000000E+02  0.51100000000E-03 0. -1.
    9900012    2    1    2    0    0  0.16727351114E+02  0.74322935654E+01 -0.39541021173E+01  0.72461596542E+02  0.70000034192E+02 0.  0.
         12    1    1    2    0    0 -0.16727351114E+02 -0.74322935654E+01  0.39541021173E+01  0.18726403458E+02  0.00000000000E+00 0. -1.
         11    1    3    3    0    0  0.21626022621E+01  0.10393482185E+02 -0.28207284788E+02  0.30138882458E+02  0.51100000000E-03 0. -1.
        -11    1    3    3    0    0  0.23536386603E+02  0.35672908107E-01  0.10847380590E+02  0.25915795045E+02  0.51100000000E-03 0.  1.
         12    1    3    3    0    0 -0.89716377510E+01 -0.29968615277E+01  0.13405802080E+02  0.16406919039E+02  0.00000000000E+00 0. -1.
</event>
<event>
 7    1  0.1283194E-013  0.7246159E+02  0.7816164E-02  0.1226708E+00
        -11   -1    0    0    0    0  0.00000000000E+00  0.00000000000E+00  0.45593999997E+02  0.45594000000E+02  0.51100000000E-03 0.  1.
         11   -1    0    0    0    0 -0.00000000000E+00 -0.00000000000E+00 -0.45593999997E+02  0.45594000000E+02  0.51100000000E-03 0. -1.
    9900012    2    1    2    0    0 -0.24449282340E+01 -0.16103495791E+02  0.92400253365E+01  0.72461593004E+02  0.70000029584E+02 0.  0.
         12    1    1    2    0    0  0.24449282340E+01  0.16103495791E+02 -0.92400253365E+01  0.18726406996E+02  0.00000000000E+00 0. -1.
         11    1    3    3    0    0 -0.18566321543E+02 -0.74720124141E+01 -0.23600439951E+02  0.30943820567E+02  0.51100000000E-03 0. -1.
        -11    1    3    3    0    0  0.30781270925E+01 -0.11361546378E+02  0.18624866183E+02  0.22032821950E+02  0.51100000000E-03 0.  1.
         12    1    3    3    0    0  0.13043266216E+02  0.27300630011E+01  0.14215599105E+02  0.19484950487E+02  0.00000000000E+00 0. -1.
</event>
<event>
 7    1  0.1283194E-013  0.7246160E+02  0.7816164E-02  0.1226708E+00
        -11   -1    0    0    0    0  0.00000000000E+00  0.00000000000E+00  0.45593999997E+02  0.45594000000E+02  0.51100000000E-03 0.  1.
         11   -1    0    0    0    0 -0.00000000000E+00 -0.00000000000E+00 -0.45593999997E+02  0.45594000000E+02  0.51100000000E-03 0. -1.
    9900012    2    1    2    0    0 -0.24142151454E+01 -0.18469373767E+02  0.19318427161E+01  0.72461595690E+02  0.70000033082E+02 0.  0.
         12    1    1    2    0    0  0.24142151454E+01  0.18469373767E+02 -0.19318427161E+01  0.18726404310E+02  0.00000000000E+00 0. -1.
         11    1    3    3    0    0 -0.26483766861E+02 -0.24396715527E+02 -0.11415970011E+02  0.37774515314E+02  0.51100000000E-03 0. -1.
        -11    1    3    3    0    0  0.60362902114E+01  0.57412612657E+01  0.14384965841E+02  0.16623059975E+02  0.51100000000E-03 0.  1.
         12    1    3    3    0    0  0.18033261505E+02  0.18608049407E+00 -0.10371531132E+01  0.18064020400E+02  0.00000000000E+00 0. -1.
</event>
<event>
 7    1  0.1283194E-013  0.7246146E+02  0.7816164E-02  0.1226708E+00
        -11   -1    0    0    0    0  0.00000000000E+00  0.00000000000E+00  0.45593999997E+02  0.45594000000E+02  0.51100000000E-03 0. -1.
         11   -1    0    0    0    0 -0.00000000000E+00 -0.00000000000E+00 -0.45593999997E+02  0.45594000000E+02  0.51100000000E-03 0.  1.
    9900012    2    1    2    0    0 -0.81882189332E+00 -0.11501273879E+02 -0.14755800323E+02  0.72461456984E+02  0.69999852393E+02 0.  0.
         12    1    1    2    0    0  0.81882189332E+00  0.11501273879E+02  0.14755800323E+02  0.18726543016E+02  0.00000000000E+00 0. -1.
         11    1    3    3    0    0 -0.27290502872E+02 -0.63233054603E+01 -0.28601390312E+02  0.40034925589E+02  0.51100000000E-03 0. -1.
        -11    1    3    3    0    0  0.10871306646E+02 -0.29818117541E+01 -0.26651091329E+00  0.11275971703E+02  0.51100000000E-03 0.  1.
         12    1    3    3    0    0  0.15600374332E+02 -0.21961566649E+01  0.14112100902E+02  0.21150559692E+02  0.00000000000E+00 0. -1.
</event>
<event>
 7    1  0.1283194E-013  0.7246160E+02  0.7816164E-02  0.1226708E+00
        -11   -1    0    0    0    0  0.00000000000E+00  0.00000000000E+00  0.45593999997E+02  0.45594000000E+02  0.51100000000E-03 0.  1.
         11   -1    0    0    0    0 -0.00000000000E+00 -0.00000000000E+00 -0.45593999997E+02  0.45594000000E+02  0.51100000000E-03 0. -1.
    9900012    2    1    2    0    0 -0.14154298391E+02 -0.32899492188E+01  0.11811442137E+02  0.72461599007E+02  0.70000037404E+02 0.  0.
         12    1    1    2    0    0  0.14154298391E+02  0.32899492188E+01 -0.11811442137E+02  0.18726400993E+02  0.00000000000E+00 0. -1.
         11    1    3    3    0    0  0.16019785382E+02  0.47125699067E+00  0.28631676108E+02  0.32812017370E+02  0.51100000000E-03 0. -1.
        -11    1    3    3    0    0 -0.19664292770E+02  0.44214671404E+01 -0.28645306684E+01  0.20357782739E+02  0.51100000000E-03 0.  1.
         12    1    3    3    0    0 -0.10509791002E+02 -0.81826733499E+01 -0.13955703303E+02  0.19291798899E+02  0.00000000000E+00 0. -1.
</event>
<event>
 7    1  0.1283194E-013  0.7246155E+02  0.7816164E-02  0.1226708E+00
        -11   -1    0    0    0    0  0.00000000000E+00  0.00000000000E+00  0.45593999997E+02  0.45594000000E+02  0.51100000000E-03 0.  1.
         11   -1    0    0    0    0 -0.00000000000E+00 -0.00000000000E+00 -0.45593999997E+02  0.45594000000E+02  0.51100000000E-03 0. -1.
    9900012    2    1    2    0    0  0.16516564450E+02  0.83319951144E+01  0.29087429437E+01  0.72461552677E+02  0.69999977050E+02 0.  0.
         12    1    1    2    0    0 -0.16516564450E+02 -0.83319951144E+01 -0.29087429437E+01  0.18726447323E+02  0.00000000000E+00 0. -1.
         11    1    3    3    0    0 -0.89834664228E+01  0.27544024829E+02 -0.89101714802E+01  0.30311171684E+02  0.51100000000E-03 0. -1.
        -11    1    3    3    0    0  0.21500915805E+02 -0.22670629813E+02  0.23849620916E+01  0.31335840200E+02  0.51100000000E-03 0.  1.
        -12    1    3    3    0    0  0.39991150683E+01  0.34586000987E+01  0.94339523323E+01  0.10814540794E+02  0.00000000000E+00 0.  1.
</event>
<event>
 7    1  0.1283194E-013  0.7246154E+02  0.7816164E-02  0.1226708E+00
        -11   -1    0    0    0    0  0.00000000000E+00  0.00000000000E+00  0.45593999997E+02  0.45594000000E+02  0.51100000000E-03 0.  1.
         11   -1    0    0    0    0 -0.00000000000E+00 -0.00000000000E+00 -0.45593999997E+02  0.45594000000E+02  0.51100000000E-03 0. -1.
    9900012    2    1    2    0    0 -0.79269143877E+01  0.14861928910E+02 -0.81833537443E+01  0.72461543284E+02  0.69999964814E+02 0.  0.
         12    1    1    2    0    0  0.79269143877E+01 -0.14861928910E+02  0.81833537443E+01  0.18726456716E+02  0.00000000000E+00 0. -1.
         11    1    3    3    0    0 -0.11456806316E+01 -0.13890170743E+02 -0.16669515126E+01  0.14036671792E+02  0.51100000000E-03 0. -1.
        -11    1    3    3    0    0 -0.96938803338E+01  0.23692961749E+02  0.19234726897E+02  0.32020344649E+02  0.51100000000E-03 0.  1.
        -12    1    3    3    0    0  0.29126465776E+01  0.50591379047E+01 -0.25751129129E+02  0.26404526844E+02  0.00000000000E+00 0.  1.
</event>
<event>
 7    1  0.1283194E-013  0.7246156E+02  0.7816164E-02  0.1226708E+00
        -11   -1    0    0    0    0  0.00000000000E+00  0.00000000000E+00  0.45593999997E+02  0.45594000000E+02  0.51100000000E-03 0.  1.
         11   -1    0    0    0    0 -0.00000000000E+00 -0.00000000000E+00 -0.45593999997E+02  0.45594000000E+02  0.51100000000E-03 0. -1.
    9900012    2    1    2    0    0  0.16443490798E+02  0.36943943553E+01 -0.81634857733E+01  0.72461563093E+02  0.69999990618E+02 0.  0.
         12    1    1    2    0    0 -0.16443490798E+02 -0.36943943553E+01  0.81634857733E+01  0.18726436907E+02  0.00000000000E+00 0. -1.
         11    1    3    3    0    0  0.27500041189E+02  0.28879710525E+01  0.16802590951E+01  0.27702272706E+02  0.51100000000E-03 0. -1.
        -11    1    3    3    0    0 -0.18127555609E+02  0.54378105957E+01  0.11262602734E+02  0.22023266720E+02  0.51100000000E-03 0.  1.
        -12    1    3    3    0    0  0.70710052180E+01 -0.46313872928E+01 -0.21106347602E+02  0.22736023666E+02  0.00000000000E+00 0.  1.
</event>
<event>
 7    1  0.1283194E-013  0.7246167E+02  0.7816164E-02  0.1226708E+00
        -11   -1    0    0    0    0  0.00000000000E+00  0.00000000000E+00  0.45593999997E+02  0.45594000000E+02  0.51100000000E-03 0.  1.
         11   -1    0    0    0    0 -0.00000000000E+00 -0.00000000000E+00 -0.45593999997E+02  0.45594000000E+02  0.51100000000E-03 0. -1.
    9900012    2    1    2    0    0 -0.15671594639E+02  0.88391578383E+01  0.51909565573E+01  0.72461665073E+02  0.70000123467E+02 0.  0.
         12    1    1    2    0    0  0.15671594639E+02 -0.88391578383E+01 -0.51909565573E+01  0.18726334927E+02  0.00000000000E+00 0. -1.
         11    1    3    3    0    0  0.60953961280E+01  0.13076811366E+02  0.42165946390E+01  0.15031184919E+02  0.51100000000E-03 0. -1.
        -11    1    3    3    0    0 -0.36335068476E+02 -0.46914736842E+01 -0.11337954788E+02  0.38350962772E+02  0.51100000000E-03 0.  1.
        -12    1    3    3    0    0  0.14568077709E+02  0.45382015614E+00  0.12312316706E+02  0.19079517383E+02  0.00000000000E+00 0.  1.
</event>
<event>
 7    1  0.1283194E-013  0.7246155E+02  0.7816164E-02  0.1226708E+00
        -11   -1    0    0    0    0  0.00000000000E+00  0.00000000000E+00  0.45593999997E+02  0.45594000000E+02  0.51100000000E-03 0. -1.
         11   -1    0    0    0    0 -0.00000000000E+00 -0.00000000000E+00 -0.45593999997E+02  0.45594000000E+02  0.51100000000E-03 0.  1.
    9900012    2    1    2    0    0 -0.67140306627E+01 -0.67217665307E+01 -0.16137520213E+02  0.72461550479E+02  0.69999974187E+02 0.  0.
         12    1    1    2    0    0  0.67140306627E+01  0.67217665307E+01  0.16137520213E+02  0.18726449521E+02  0.00000000000E+00 0. -1.
         11    1    3    3    0    0  0.21821644152E+01 -0.11519270001E+02  0.24628993627E+02  0.27277147032E+02  0.51100000000E-03 0. -1.
        -11    1    3    3    0    0  0.35372097026E+01  0.57580811591E+01 -0.17991562375E+02  0.19218836283E+02  0.51100000000E-03 0.  1.
         12    1    3    3    0    0 -0.12433404781E+02 -0.96057768882E+00 -0.22774951465E+02  0.25965567164E+02  0.00000000000E+00 0. -1.
</event>
<event>
 7    1  0.1283194E-013  0.7246159E+02  0.7816164E-02  0.1226708E+00
        -11   -1    0    0    0    0  0.00000000000E+00  0.00000000000E+00  0.45593999997E+02  0.45594000000E+02  0.51100000000E-03 0. -1.
         11   -1    0    0    0    0 -0.00000000000E+00 -0.00000000000E+00 -0.45593999997E+02  0.45594000000E+02  0.51100000000E-03 0.  1.
    9900012    2    1    2    0    0 -0.12903524321E+02  0.51124124519E+01 -0.12571428009E+02  0.72461588086E+02  0.70000023177E+02 0.  0.
         12    1    1    2    0    0  0.12903524321E+02 -0.51124124519E+01  0.12571428009E+02  0.18726411914E+02  0.00000000000E+00 0. -1.
         11    1    3    3    0    0  0.69093009923E+01 -0.23733084774E+02 -0.12142769836E+02  0.27539873141E+02  0.51100000000E-03 0. -1.
        -11    1    3    3    0    0 -0.14345556803E+02  0.12062267030E+02  0.12942944988E+02  0.22777469375E+02  0.51100000000E-03 0.  1.
        -12    1    3    3    0    0 -0.54672685108E+01  0.16783230195E+02 -0.13371603161E+02  0.22144245570E+02  0.00000000000E+00 0.  1.
</event>
<event>
 7    1  0.1283194E-013  0.7246157E+02  0.7816164E-02  0.1226708E+00
        -11   -1    0    0    0    0  0.00000000000E+00  0.00000000000E+00  0.45593999997E+02  0.45594000000E+02  0.51100000000E-03 0. -1.
         11   -1    0    0    0    0 -0.00000000000E+00 -0.00000000000E+00 -0.45593999997E+02  0.45594000000E+02  0.51100000000E-03 0.  1.
    9900012    2    1    2    0    0 -0.12568522891E+02 -0.26497231781E+01 -0.13626822338E+02  0.72461572481E+02  0.70000002848E+02 0.  0.
         12    1    1    2    0    0  0.12568522891E+02  0.26497231781E+01  0.13626822338E+02  0.18726427519E+02  0.00000000000E+00 0. -1.
         11    1    3    3    0    0  0.93634824873E+01  0.19657135348E+02  0.10056547233E+02  0.23983575982E+02  0.51100000000E-03 0.  1.
        -11    1    3    3    0    0 -0.21792252885E+02 -0.27149287474E+02 -0.13758103982E+02  0.37433561433E+02  0.51100000000E-03 0. -1.
         12    1    3    3    0    0 -0.13975249401E+00  0.48424289478E+01 -0.99252655901E+01  0.11044435065E+02  0.00000000000E+00 0. -1.
</event>
<event>
 7    1  0.1283194E-013  0.7246157E+02  0.7816164E-02  0.1226708E+00
        -11   -1    0    0    0    0  0.00000000000E+00  0.00000000000E+00  0.45593999997E+02  0.45594000000E+02  0.51100000000E-03 0.  1.
         11   -1    0    0    0    0 -0.00000000000E+00 -0.00000000000E+00 -0.45593999997E+02  0.45594000000E+02  0.51100000000E-03 0. -1.
    9900012    2    1    2    0    0 -0.15275317597E+02 -0.10832275490E+02  0.74827260570E-01  0.72461571641E+02  0.70000001754E+02 0.  0.
         12    1    1    2    0    0  0.15275317597E+02  0.10832275490E+02 -0.74827260570E-01  0.18726428359E+02  0.00000000000E+00 0. -1.
         11    1    3    3    0    0 -0.27664480475E+02  0.29161396556E+01  0.19150062450E+02  0.33772063049E+02  0.51100000000E-03 0.  1.
        -11    1    3    3    0    0  0.10844336651E+02  0.19805418506E+01  0.31066406212E+01  0.11453095635E+02  0.51100000000E-03 0. -1.
         12    1    3    3    0    0  0.15448262270E+01 -0.15728956996E+02 -0.22181875811E+02  0.27236412957E+02  0.00000000000E+00 0. -1.
</event>
<event>
 7    1  0.1283194E-013  0.7246159E+02  0.7816164E-02  0.1226708E+00
        -11   -1    0    0    0    0  0.00000000000E+00  0.00000000000E+00  0.45593999997E+02  0.45594000000E+02  0.51100000000E-03 0. -1.
         11   -1    0    0    0    0 -0.00000000000E+00 -0.00000000000E+00 -0.45593999997E+02  0.45594000000E+02  0.51100000000E-03 0.  1.
    9900012    2    1    2    0    0  0.43470602190E+01  0.17975794181E+02  0.29415068763E+01  0.72461586256E+02  0.70000020794E+02 0.  0.
         12    1    1    2    0    0 -0.43470602190E+01 -0.17975794181E+02 -0.29415068763E+01  0.18726413744E+02  0.00000000000E+00 0. -1.
         11    1    3    3    0    0 -0.68121840981E+00 -0.15977282414E+02 -0.75906034706E+01  0.17701832481E+02  0.51100000000E-03 0. -1.
        -11    1    3    3    0    0 -0.13746523074E+02  0.26021780318E+02  0.16214988498E+02  0.33600979149E+02  0.51100000000E-03 0.  1.
        -12    1    3    3    0    0  0.18774801703E+02  0.79312962769E+01 -0.56828781507E+01  0.21158774626E+02  0.00000000000E+00 0.  1.
</event>
<event>
 7    1  0.1283194E-013  0.7246161E+02  0.7816164E-02  0.1226708E+00
        -11   -1    0    0    0    0  0.00000000000E+00  0.00000000000E+00  0.45593999997E+02  0.45594000000E+02  0.51100000000E-03 0. -1.
         11   -1    0    0    0    0 -0.00000000000E+00 -0.00000000000E+00 -0.45593999997E+02  0.45594000000E+02  0.51100000000E-03 0.  1.
    9900012    2    1    2    0    0 -0.70995503082E+01 -0.65791662101E+01 -0.16030867749E+02  0.72461607838E+02  0.70000048908E+02 0.  0.
         12    1    1    2    0    0  0.70995503082E+01  0.65791662101E+01  0.16030867749E+02  0.18726392162E+02  0.00000000000E+00 0. -1.
         11    1    3    3    0    0 -0.16135632097E+02 -0.22950156742E+02 -0.30937143520E+02  0.41763323228E+02  0.51100000000E-03 0. -1.
        -11    1    3    3    0    0  0.13604309352E+02  0.72871892366E+01  0.43341022166E+01  0.16030121715E+02  0.51100000000E-03 0.  1.
         12    1    3    3    0    0 -0.45682275636E+01  0.90838012948E+01  0.10572173554E+02  0.14668162894E+02  0.00000000000E+00 0. -1.
</event>
<event>
 7    1  0.1283194E-013  0.7246155E+02  0.7816164E-02  0.1226708E+00
        -11   -1    0    0    0    0  0.00000000000E+00  0.00000000000E+00  0.45593999997E+02  0.45594000000E+02  0.51100000000E-03 0.  1.
         11   -1    0    0    0    0 -0.00000000000E+00 -0.00000000000E+00 -0.45593999997E+02  0.45594000000E+02  0.51100000000E-03 0. -1.
    9900012    2    1    2    0    0  0.60844072935E+01 -0.15316628491E+02  0.88916225334E+01  0.72461546205E+02  0.69999968619E+02 0.  0.
         12    1    1    2    0    0 -0.60844072935E+01  0.15316628491E+02 -0.88916225334E+01  0.18726453795E+02  0.00000000000E+00 0. -1.
         11    1    3    3    0    0 -0.21563757569E+02  0.35212395993E+01  0.25683761755E+01  0.21999802846E+02  0.51100000000E-03 0. -1.
        -11    1    3    3    0    0  0.21863128713E+02  0.69123161347E+01 -0.13717339434E+01  0.22970811169E+02  0.51100000000E-03 0.  1.
         12    1    3    3    0    0  0.57850361494E+01 -0.25750184225E+02  0.76949803013E+01  0.27490932191E+02  0.00000000000E+00 0. -1.
</event>
<event>
 7    1  0.1283194E-013  0.7246157E+02  0.7816164E-02  0.1226708E+00
        -11   -1    0    0    0    0  0.00000000000E+00  0.00000000000E+00  0.45593999997E+02  0.45594000000E+02  0.51100000000E-03 0.  1.
         11   -1    0    0    0    0 -0.00000000000E+00 -0.00000000000E+00 -0.45593999997E+02  0.45594000000E+02  0.51100000000E-03 0. -1.
    9900012    2    1    2    0    0 -0.10249243520E+01  0.12592738420E+02  0.13822141257E+02  0.72461571623E+02  0.70000001731E+02 0.  0.
         12    1    1    2    0    0  0.10249243520E+01 -0.12592738420E+02 -0.13822141257E+02  0.18726428377E+02  0.00000000000E+00 0. -1.
         11    1    3    3    0    0 -0.22149755814E+02 -0.15298621647E+02  0.18958359066E+02  0.32925353235E+02  0.51100000000E-03 0. -1.
        -11    1    3    3    0    0  0.12428435483E+02  0.24382434317E+02  0.24465523122E+01  0.27476439548E+02  0.51100000000E-03 0.  1.
         12    1    3    3    0    0  0.86963959790E+01  0.35089257506E+01 -0.75827701216E+01  0.12059778840E+02  0.00000000000E+00 0. -1.
</event>
<event>
 7    1  0.1283194E-013  0.7246167E+02  0.7816164E-02  0.1226708E+00
        -11   -1    0    0    0    0  0.00000000000E+00  0.00000000000E+00  0.45593999997E+02  0.45594000000E+02  0.51100000000E-03 0.  1.
         11   -1    0    0    0    0 -0.00000000000E+00 -0.00000000000E+00 -0.45593999997E+02  0.45594000000E+02  0.51100000000E-03 0. -1.
    9900012    2    1    2    0    0 -0.38149522816E+01 -0.11725479928E+02  0.14093779374E+02  0.72461672077E+02  0.70000132591E+02 0.  0.
         12    1    1    2    0    0  0.38149522816E+01  0.11725479928E+02 -0.14093779374E+02  0.18726327923E+02  0.00000000000E+00 0. -1.
         11    1    3    3    0    0  0.22149083032E+02 -0.10504075662E+02 -0.15198759952E+02  0.28843019762E+02  0.51100000000E-03 0. -1.
        -11    1    3    3    0    0  0.58492034175E+00  0.45183184299E+01  0.75837584150E+01  0.88470743864E+01  0.51100000000E-03 0.  1.
         12    1    3    3    0    0 -0.26548955655E+02 -0.57397226952E+01  0.21708780911E+02  0.34771577928E+02  0.00000000000E+00 0. -1.
</event>
<event>
 7    1  0.1283194E-013  0.7246157E+02  0.7816164E-02  0.1226708E+00
        -11   -1    0    0    0    0  0.00000000000E+00  0.00000000000E+00  0.45593999997E+02  0.45594000000E+02  0.51100000000E-03 0.  1.
         11   -1    0    0    0    0 -0.00000000000E+00 -0.00000000000E+00 -0.45593999997E+02  0.45594000000E+02  0.51100000000E-03 0. -1.
    9900012    2    1    2    0    0  0.25123348355E+01 -0.21199033892E+01  0.18435656389E+02  0.72461568327E+02  0.69999997437E+02 0.  0.
         12    1    1    2    0    0 -0.25123348355E+01  0.21199033892E+01 -0.18435656389E+02  0.18726431673E+02  0.00000000000E+00 0. -1.
         11    1    3    3    0    0 -0.19741489544E+02 -0.28297246786E+01  0.24304893785E+02  0.31439809372E+02  0.51100000000E-03 0. -1.
        -11    1    3    3    0    0  0.29795711910E+02  0.25267803576E+01  0.20027187744E+01  0.29969650481E+02  0.51100000000E-03 0.  1.
         12    1    3    3    0    0 -0.75418875307E+01 -0.18169590682E+01 -0.78719561702E+01  0.11052108474E+02  0.00000000000E+00 0. -1.
</event>
<event>
 7    1  0.1283194E-013  0.7246145E+02  0.7816164E-02  0.1226708E+00
        -11   -1    0    0    0    0  0.00000000000E+00  0.00000000000E+00  0.45593999997E+02  0.45594000000E+02  0.51100000000E-03 0. -1.
         11   -1    0    0    0    0 -0.00000000000E+00 -0.00000000000E+00 -0.45593999997E+02  0.45594000000E+02  0.51100000000E-03 0.  1.
    9900012    2    1    2    0    0 -0.10758368865E+02 -0.10665804728E+01 -0.15290642693E+02  0.72461445365E+02  0.69999837256E+02 0.  0.
         12    1    1    2    0    0  0.10758368865E+02  0.10665804728E+01  0.15290642693E+02  0.18726554635E+02  0.00000000000E+00 0. -1.
         11    1    3    3    0    0  0.11177469865E+02 -0.13422347103E+01 -0.13183925101E+02  0.17336473342E+02  0.51100000000E-03 0.  1.
        -11    1    3    3    0    0 -0.28672621724E+02 -0.17574612397E+02  0.64026068608E+01  0.34234187771E+02  0.51100000000E-03 0. -1.
        -12    1    3    3    0    0  0.67367829943E+01  0.17850266634E+02 -0.85093244528E+01  0.20890784252E+02  0.00000000000E+00 0.  1.
</event>
<event>
 8    1  0.1283194E-013  0.7246160E+02  0.7816164E-02  0.1226708E+00
        -11   -1    0    0    0    0  0.00000000000E+00  0.00000000000E+00  0.45593999997E+02  0.45594000000E+02  0.51100000000E-03 0.  1.
         11   -1    0    0    0    0 -0.00000000000E+00 -0.00000000000E+00 -0.45593999997E+02  0.45594000000E+02  0.51100000000E-03 0. -1.
    9900012    2    1    2    0    0 -0.33858041039E+01 -0.21536655624E+01  0.18291425710E+02  0.72461596200E+02  0.70000033747E+02 0.  0.
         24    2    3    3    0    0 -0.16692281473E+02 -0.11976043364E+01  0.15218886124E+02  0.58771567244E+02  0.54244042111E+02 0.  0.
         12    1    1    2    0    0  0.33858041039E+01  0.21536655624E+01 -0.18291425710E+02  0.18726403800E+02  0.00000000000E+00 0. -1.
         11    1    3    3    0    0  0.13306477369E+02 -0.95606122593E+00  0.30725395862E+01  0.13690028956E+02  0.51100000000E-03 0. -1.
        -11    1    4    4    0    0 -0.18876991459E+02 -0.23238159887E+02  0.20140034664E+02  0.36082875135E+02  0.51100000000E-03 0.  1.
         12    1    4    4    0    0  0.21847099863E+01  0.22040555550E+02 -0.49211485397E+01  0.22688692109E+02  0.00000000000E+00 0. -1.
</event>
<event>
 7    1  0.1283194E-013  0.7246155E+02  0.7816164E-02  0.1226708E+00
        -11   -1    0    0    0    0  0.00000000000E+00  0.00000000000E+00  0.45593999997E+02  0.45594000000E+02  0.51100000000E-03 0. -1.
         11   -1    0    0    0    0 -0.00000000000E+00 -0.00000000000E+00 -0.45593999997E+02  0.45594000000E+02  0.51100000000E-03 0.  1.
    9900012    2    1    2    0    0 -0.16668264367E+02 -0.79021577951E+01 -0.32256372026E+01  0.72461551587E+02  0.69999975630E+02 0.  0.
         12    1    1    2    0    0  0.16668264367E+02  0.79021577951E+01  0.32256372026E+01  0.18726448413E+02  0.00000000000E+00 0. -1.
         11    1    3    3    0    0  0.54415411445E+01  0.50435005794E+01  0.11433132894E+01  0.75069590155E+01  0.51100000000E-03 0. -1.
        -11    1    3    3    0    0 -0.26557938178E+02 -0.14481943213E+02  0.22485142357E+02  0.37691277327E+02  0.51100000000E-03 0.  1.
        -12    1    3    3    0    0  0.44481326663E+01  0.15362848390E+01 -0.26854092849E+02  0.27263315244E+02  0.00000000000E+00 0.  1.
</event>
<event>
 7    1  0.1283194E-013  0.7246158E+02  0.7816164E-02  0.1226708E+00
        -11   -1    0    0    0    0  0.00000000000E+00  0.00000000000E+00  0.45593999997E+02  0.45594000000E+02  0.51100000000E-03 0.  1.
         11   -1    0    0    0    0 -0.00000000000E+00 -0.00000000000E+00 -0.45593999997E+02  0.45594000000E+02  0.51100000000E-03 0. -1.
    9900012    2    1    2    0    0  0.62453643887E+01 -0.86695721952E+01 -0.15378966876E+02  0.72461583350E+02  0.70000017007E+02 0.  0.
         12    1    1    2    0    0 -0.62453643887E+01  0.86695721952E+01  0.15378966876E+02  0.18726416650E+02  0.00000000000E+00 0. -1.
         11    1    3    3    0    0 -0.25082194095E+02  0.13461802803E+01  0.95508610335E+01  0.26872804258E+02  0.51100000000E-03 0. -1.
        -11    1    3    3    0    0  0.10839415433E+02 -0.11354624312E+02 -0.38514177794E+01  0.16163348643E+02  0.51100000000E-03 0.  1.
         12    1    3    3    0    0  0.20488143050E+02  0.13388718362E+01 -0.21078410130E+02  0.29425430448E+02  0.00000000000E+00 0. -1.
</event>
<event>
 7    1  0.1283194E-013  0.7246158E+02  0.7816164E-02  0.1226708E+00
        -11   -1    0    0    0    0  0.00000000000E+00  0.00000000000E+00  0.45593999997E+02  0.45594000000E+02  0.51100000000E-03 0.  1.
         11   -1    0    0    0    0 -0.00000000000E+00 -0.00000000000E+00 -0.45593999997E+02  0.45594000000E+02  0.51100000000E-03 0. -1.
    9900012    2    1    2    0    0  0.13576784695E+02  0.12157966479E+01  0.12840228711E+02  0.72461582363E+02  0.70000015722E+02 0.  0.
         12    1    1    2    0    0 -0.13576784695E+02 -0.12157966479E+01 -0.12840228711E+02  0.18726417637E+02  0.00000000000E+00 0. -1.
         11    1    3    3    0    0  0.18939249643E+02  0.65910144404E+01 -0.53678955346E+01  0.20759358158E+02  0.51100000000E-03 0. -1.
        -11    1    3    3    0    0 -0.19517083726E+02 -0.18900096702E+02  0.17081986951E+02  0.32092436663E+02  0.51100000000E-03 0.  1.
        -12    1    3    3    0    0  0.14154618778E+02  0.13524878909E+02  0.11261372943E+01  0.19609787542E+02  0.00000000000E+00 0.  1.
</event>
<event>
 7    1  0.1283194E-013  0.7246156E+02  0.7816164E-02  0.1226708E+00
        -11   -1    0    0    0    0  0.00000000000E+00  0.00000000000E+00  0.45593999997E+02  0.45594000000E+02  0.51100000000E-03 0. -1.
         11   -1    0    0    0    0 -0.00000000000E+00 -0.00000000000E+00 -0.45593999997E+02  0.45594000000E+02  0.51100000000E-03 0.  1.
    9900012    2    1    2    0    0 -0.14053302189E+02 -0.89196199688E+01  0.85804843433E+01  0.72461557882E+02  0.69999983831E+02 0.  0.
         12    1    1    2    0    0  0.14053302189E+02  0.89196199688E+01 -0.85804843433E+01  0.18726442118E+02  0.00000000000E+00 0. -1.
         11    1    3    3    0    0 -0.21292204351E+01 -0.32636649715E+02  0.12213203362E+02  0.34911986780E+02  0.51100000000E-03 0. -1.
        -11    1    3    3    0    0 -0.17677641931E+02  0.94812751337E+01  0.39182377023E+01  0.20438840215E+02  0.51100000000E-03 0.  1.
         12    1    3    3    0    0  0.57535601766E+01  0.14235754613E+02 -0.75509567211E+01  0.17110730887E+02  0.00000000000E+00 0. -1.
</event>
<event>
 7    1  0.1283194E-013  0.7246156E+02  0.7816164E-02  0.1226708E+00
        -11   -1    0    0    0    0  0.00000000000E+00  0.00000000000E+00  0.45593999997E+02  0.45594000000E+02  0.51100000000E-03 0.  1.
         11   -1    0    0    0    0 -0.00000000000E+00 -0.00000000000E+00 -0.45593999997E+02  0.45594000000E+02  0.51100000000E-03 0. -1.
    9900012    2    1    2    0    0 -0.35629356690E+01  0.17966018769E+02  0.38996522415E+01  0.72461558037E+02  0.69999984032E+02 0.  0.
         12    1    1    2    0    0  0.35629356690E+01 -0.17966018769E+02 -0.38996522415E+01  0.18726441963E+02  0.00000000000E+00 0. -1.
         11    1    3    3    0    0 -0.76465990583E+01  0.22961496215E+02 -0.28945463633E+02  0.37729837673E+02  0.51100000000E-03 0. -1.
        -11    1    3    3    0    0  0.30839816428E+01 -0.56777763881E+01  0.10331300899E+02  0.12185395604E+02  0.51100000000E-03 0.  1.
         12    1    3    3    0    0  0.99968174654E+00  0.68229894186E+00  0.22513814975E+02  0.22546324760E+02  0.00000000000E+00 0. -1.
</event>
<event>
 7    1  0.1283194E-013  0.7246158E+02  0.7816164E-02  0.1226708E+00
        -11   -1    0    0    0    0  0.00000000000E+00  0.00000000000E+00  0.45593999997E+02  0.45594000000E+02  0.51100000000E-03 0. -1.
         11   -1    0    0    0    0 -0.00000000000E+00 -0.00000000000E+00 -0.45593999997E+02  0.45594000000E+02  0.51100000000E-03 0.  1.
    9900012    2    1    2    0    0 -0.20585145948E+01  0.83310783496E+01 -0.16644350340E+02  0.72461581575E+02  0.70000014695E+02 0.  0.
         12    1    1    2    0    0  0.20585145948E+01 -0.83310783496E+01  0.16644350340E+02  0.18726418425E+02  0.00000000000E+00 0. -1.
         11    1    3    3    0    0 -0.21183881763E+02 -0.20818662137E+01  0.14281557365E+02  0.25633062527E+02  0.51100000000E-03 0. -1.
        -11    1    3    3    0    0  0.12809300666E+02  0.14469578507E+02 -0.33681966013E+02  0.38831967765E+02  0.51100000000E-03 0.  1.
        -12    1    3    3    0    0  0.63160665021E+01 -0.40566339442E+01  0.27560583088E+01  0.79965512828E+01  0.00000000000E+00 0.  1.
</event>
<event>
 7    1  0.1283194E-013  0.7246154E+02  0.7816164E-02  0.1226708E+00
        -11   -1    0    0    0    0  0.00000000000E+00  0.00000000000E+00  0.45593999997E+02  0.45594000000E+02  0.51100000000E-03 0. -1.
         11   -1    0    0    0    0 -0.00000000000E+00 -0.00000000000E+00 -0.45593999997E+02  0.45594000000E+02  0.51100000000E-03 0.  1.
    9900012    2    1    2    0    0 -0.91455342163E+01  0.21306253689E+01 -0.16201850528E+02  0.72461539547E+02  0.69999959946E+02 0.  0.
         12    1    1    2    0    0  0.91455342163E+01 -0.21306253689E+01  0.16201850528E+02  0.18726460453E+02  0.00000000000E+00 0. -1.
         11    1    3    3    0    0 -0.62157644135E+01  0.34852947564E+01  0.25110614597E+02  0.26102221600E+02  0.51100000000E-03 0. -1.
        -11    1    3    3    0    0 -0.12217341909E+01  0.16550245584E+01 -0.42612850773E+02  0.42662475221E+02  0.51100000000E-03 0.  1.
        -12    1    3    3    0    0 -0.17080356119E+01 -0.30096939459E+01  0.13003856483E+01  0.36968427251E+01  0.00000000000E+00 0.  1.
</event>
<event>
 7    1  0.1283194E-013  0.7246157E+02  0.7816164E-02  0.1226708E+00
        -11   -1    0    0    0    0  0.00000000000E+00  0.00000000000E+00  0.45593999997E+02  0.45594000000E+02  0.51100000000E-03 0. -1.
         11   -1    0    0    0    0 -0.00000000000E+00 -0.00000000000E+00 -0.45593999997E+02  0.45594000000E+02  0.51100000000E-03 0.  1.
    9900012    2    1    2    0    0  0.17884284372E+02  0.55317142453E+01  0.48119727302E+00  0.72461573731E+02  0.70000004477E+02 0.  0.
         12    1    1    2    0    0 -0.17884284372E+02 -0.55317142453E+01 -0.48119727302E+00  0.18726426269E+02  0.00000000000E+00 0. -1.
         11    1    3    3    0    0 -0.15027173353E+02  0.11732901937E+02 -0.85754096342E+01  0.20904893625E+02  0.51100000000E-03 0. -1.
        -11    1    3    3    0    0  0.26185677726E+02 -0.16467330486E+02 -0.66336421978E+01  0.31636496336E+02  0.51100000000E-03 0.  1.
         12    1    3    3    0    0  0.67257799984E+01  0.10266142795E+02  0.15690249105E+02  0.19920183771E+02  0.00000000000E+00 0. -1.
</event>
<event>
 7    1  0.1283194E-013  0.7246167E+02  0.7816164E-02  0.1226708E+00
        -11   -1    0    0    0    0  0.00000000000E+00  0.00000000000E+00  0.45593999997E+02  0.45594000000E+02  0.51100000000E-03 0.  1.
         11   -1    0    0    0    0 -0.00000000000E+00 -0.00000000000E+00 -0.45593999997E+02  0.45594000000E+02  0.51100000000E-03 0. -1.
    9900012    2    1    2    0    0 -0.50775865924E+01 -0.15423570026E+02 -0.93277649295E+01  0.72461665694E+02  0.70000124276E+02 0.  0.
         12    1    1    2    0    0  0.50775865924E+01  0.15423570026E+02  0.93277649295E+01  0.18726334306E+02  0.00000000000E+00 0. -1.
         11    1    3    3    0    0  0.73782678251E+01 -0.15995605025E+02 -0.28335719091E+02  0.33364819689E+02  0.51100000000E-03 0. -1.
        -11    1    3    3    0    0 -0.73484126984E+01  0.16085840969E+02  0.11691217517E+02  0.21199953211E+02  0.51100000000E-03 0.  1.
         12    1    3    3    0    0 -0.51074417192E+01 -0.15513805969E+02  0.73167366442E+01  0.17896892794E+02  0.00000000000E+00 0. -1.
</event>
<event>
 7    1  0.1283194E-013  0.7246158E+02  0.7816164E-02  0.1226708E+00
        -11   -1    0    0    0    0  0.00000000000E+00  0.00000000000E+00  0.45593999997E+02  0.45594000000E+02  0.51100000000E-03 0. -1.
         11   -1    0    0    0    0 -0.00000000000E+00 -0.00000000000E+00 -0.45593999997E+02  0.45594000000E+02  0.51100000000E-03 0.  1.
    9900012    2    1    2    0    0  0.67176939544E+01 -0.16878919915E+02 -0.45446261456E+01  0.72461575451E+02  0.70000006718E+02 0.  0.
         12    1    1    2    0    0 -0.67176939544E+01  0.16878919915E+02  0.45446261456E+01  0.18726424549E+02  0.00000000000E+00 0. -1.
         11    1    3    3    0    0  0.35674608995E+02 -0.43863183107E+01 -0.12527389559E+02  0.38063801764E+02  0.51100000000E-03 0.  1.
        -11    1    3    3    0    0 -0.15323319520E+02 -0.38048547835E+01  0.90460121103E+01  0.18196466041E+02  0.51100000000E-03 0. -1.
        -12    1    3    3    0    0 -0.13633595521E+02 -0.86877468210E+01 -0.10632486965E+01  0.16201307646E+02  0.00000000000E+00 0.  1.
</event>
<event>
 7    1  0.1283194E-013  0.7246156E+02  0.7816164E-02  0.1226708E+00
        -11   -1    0    0    0    0  0.00000000000E+00  0.00000000000E+00  0.45593999997E+02  0.45594000000E+02  0.51100000000E-03 0.  1.
         11   -1    0    0    0    0 -0.00000000000E+00 -0.00000000000E+00 -0.45593999997E+02  0.45594000000E+02  0.51100000000E-03 0. -1.
    9900012    2    1    2    0    0  0.72873185765E+00 -0.18696870625E+02 -0.75855686215E+00  0.72461563345E+02  0.69999990947E+02 0.  0.
         12    1    1    2    0    0 -0.72873185765E+00  0.18696870625E+02  0.75855686215E+00  0.18726436655E+02  0.00000000000E+00 0. -1.
         11    1    3    3    0    0  0.18891514729E+02  0.15370705355E+02 -0.98698524087E+01  0.26278544455E+02  0.51100000000E-03 0. -1.
        -11    1    3    3    0    0 -0.80385237625E+01 -0.29915619759E+02 -0.14018631099E+01  0.31008505128E+02  0.51100000000E-03 0.  1.
        -12    1    3    3    0    0 -0.10124259109E+02 -0.41519562215E+01  0.10513158656E+02  0.15174513761E+02  0.00000000000E+00 0.  1.
</event>
<event>
 7    1  0.1283194E-013  0.7246162E+02  0.7816164E-02  0.1226708E+00
        -11   -1    0    0    0    0  0.00000000000E+00  0.00000000000E+00  0.45593999997E+02  0.45594000000E+02  0.51100000000E-03 0.  1.
         11   -1    0    0    0    0 -0.00000000000E+00 -0.00000000000E+00 -0.45593999997E+02  0.45594000000E+02  0.51100000000E-03 0. -1.
    9900012    2    1    2    0    0  0.41939825267E+01  0.12592971638E+02  0.13210034937E+02  0.72461616283E+02  0.70000059908E+02 0.  0.
         12    1    1    2    0    0 -0.41939825267E+01 -0.12592971638E+02 -0.13210034937E+02  0.18726383717E+02  0.00000000000E+00 0. -1.
         11    1    3    3    0    0 -0.17599792804E+01  0.13981899526E+02  0.11628352726E+02  0.18270457816E+02  0.51100000000E-03 0. -1.
        -11    1    3    3    0    0  0.26631509647E+02 -0.12127866207E+02  0.73828145222E+01  0.30179933654E+02  0.51100000000E-03 0.  1.
        -12    1    3    3    0    0 -0.20677547840E+02  0.10738938319E+02 -0.58011323118E+01  0.24011224813E+02  0.00000000000E+00 0.  1.
</event>
<event>
 7    1  0.1283194E-013  0.7246129E+02  0.7816164E-02  0.1226709E+00
        -11   -1    0    0    0    0  0.00000000000E+00  0.00000000000E+00  0.45593999997E+02  0.45594000000E+02  0.51100000000E-03 0.  1.
         11   -1    0    0    0    0 -0.00000000000E+00 -0.00000000000E+00 -0.45593999997E+02  0.45594000000E+02  0.51100000000E-03 0. -1.
    9900012    2    1    2    0    0  0.15325152259E+02 -0.10590589388E+02  0.19154024814E+01  0.72461290679E+02  0.69999635748E+02 0.  0.
         12    1    1    2    0    0 -0.15325152259E+02  0.10590589388E+02 -0.19154024814E+01  0.18726709321E+02  0.00000000000E+00 0. -1.
         11    1    3    3    0    0  0.26567419007E+01 -0.15921811464E+02 -0.23451906836E+02  0.28470235200E+02  0.51100000000E-03 0. -1.
        -11    1    3    3    0    0  0.18604278356E+02  0.13497928664E+02  0.88447598687E+01  0.24628094299E+02  0.51100000000E-03 0.  1.
        -12    1    3    3    0    0 -0.59358679981E+01 -0.81667065878E+01  0.16522549449E+02  0.19362961180E+02  0.00000000000E+00 0.  1.
</event>
<event>
 7    1  0.1283194E-013  0.7246149E+02  0.7816164E-02  0.1226708E+00
        -11   -1    0    0    0    0  0.00000000000E+00  0.00000000000E+00  0.45593999997E+02  0.45594000000E+02  0.51100000000E-03 0. -1.
         11   -1    0    0    0    0 -0.00000000000E+00 -0.00000000000E+00 -0.45593999997E+02  0.45594000000E+02  0.51100000000E-03 0.  1.
    9900012    2    1    2    0    0 -0.13215841472E+01 -0.10808513776E+02 -0.15235213550E+02  0.72461487067E+02  0.69999891581E+02 0.  0.
         12    1    1    2    0    0  0.13215841472E+01  0.10808513776E+02  0.15235213550E+02  0.18726512933E+02  0.00000000000E+00 0. -1.
         11    1    3    3    0    0  0.12050305959E+02  0.60163664711E-01  0.15709817714E+02  0.19799289539E+02  0.51100000000E-03 0. -1.
        -11    1    3    3    0    0 -0.18088264213E+02  0.50755762768E+01 -0.30748848119E+02  0.36033851274E+02  0.51100000000E-03 0.  1.
        -12    1    3    3    0    0  0.47163741065E+01 -0.15944253718E+02 -0.19618314505E+00  0.16628346254E+02  0.00000000000E+00 0.  1.
</event>
<event>
 7    1  0.1324717E-013  0.7246157E+02  0.7816164E-02  0.1226708E+00
        -11   -1    0    0    0    0  0.00000000000E+00  0.00000000000E+00  0.45593999997E+02  0.45594000000E+02  0.51100000000E-03 0. -1.
         11   -1    0    0    0    0 -0.00000000000E+00 -0.00000000000E+00 -0.45593999997E+02  0.45594000000E+02  0.51100000000E-03 0.  1.
    9900012    2    1    2    0    0 -0.10929186599E+01  0.15760413386E+02 -0.10054557081E+02  0.72461568963E+02  0.69999998265E+02 0.  0.
         12    1    1    2    0    0  0.10929186599E+01 -0.15760413386E+02  0.10054557081E+02  0.18726431037E+02  0.00000000000E+00 0. -1.
         11    1    3    3    0    0 -0.57732073971E+01 -0.81686044664E+01  0.21722338670E+02  0.23914765735E+02  0.51100000000E-03 0. -1.
        -11    1    3    3    0    0  0.15417539601E+02  0.18171922620E+02 -0.16402135715E+02  0.28930077002E+02  0.51100000000E-03 0.  1.
        -12    1    3    3    0    0 -0.10737250864E+02  0.57570952329E+01 -0.15374760037E+02  0.19616726226E+02  0.00000000000E+00 0.  1.
</event>
<event>
 7    1  0.1283194E-013  0.7246163E+02  0.7816164E-02  0.1226708E+00
        -11   -1    0    0    0    0  0.00000000000E+00  0.00000000000E+00  0.45593999997E+02  0.45594000000E+02  0.51100000000E-03 0. -1.
         11   -1    0    0    0    0 -0.00000000000E+00 -0.00000000000E+00 -0.45593999997E+02  0.45594000000E+02  0.51100000000E-03 0.  1.
    9900012    2    1    2    0    0 -0.11572652243E+02  0.10369981355E+02  0.10450565681E+02  0.72461625116E+02  0.70000071415E+02 0.  0.
         12    1    1    2    0    0  0.11572652243E+02 -0.10369981355E+02 -0.10450565681E+02  0.18726374884E+02  0.00000000000E+00 0. -1.
         11    1    3    3    0    0  0.40415249701E+01 -0.78912125492E+00  0.12376098753E+02  0.13043176647E+02  0.51100000000E-03 0. -1.
        -11    1    3    3    0    0 -0.15402232334E+02  0.29861092067E+02 -0.14797925611E+02  0.36713651180E+02  0.51100000000E-03 0.  1.
        -12    1    3    3    0    0 -0.21194487886E+00 -0.18701989457E+02  0.12872392539E+02  0.22704797289E+02  0.00000000000E+00 0.  1.
</event>
<event>
 7    1  0.1283194E-013  0.7246157E+02  0.7816164E-02  0.1226708E+00
        -11   -1    0    0    0    0  0.00000000000E+00  0.00000000000E+00  0.45593999997E+02  0.45594000000E+02  0.51100000000E-03 0.  1.
         11   -1    0    0    0    0 -0.00000000000E+00 -0.00000000000E+00 -0.45593999997E+02  0.45594000000E+02  0.51100000000E-03 0. -1.
    9900012    2    1    2    0    0  0.13022243356E+02  0.48528124622E+01  0.12551914920E+02  0.72461570042E+02  0.69999999672E+02 0.  0.
         12    1    1    2    0    0 -0.13022243356E+02 -0.48528124622E+01 -0.12551914920E+02  0.18726429958E+02  0.00000000000E+00 0. -1.
         11    1    3    3    0    0  0.19507460792E+02 -0.21233164004E+02  0.16899666656E+01  0.28883286997E+02  0.51100000000E-03 0.  1.
        -11    1    3    3    0    0 -0.11705591510E+02  0.29247948752E+02  0.44675460250E+00  0.31506554378E+02  0.51100000000E-03 0. -1.
         12    1    3    3    0    0  0.52203740744E+01 -0.31619722858E+01  0.10415193652E+02  0.12071728667E+02  0.00000000000E+00 0. -1.
</event>
<event>
 7    1  0.1283194E-013  0.7246155E+02  0.7816164E-02  0.1226708E+00
        -11   -1    0    0    0    0  0.00000000000E+00  0.00000000000E+00  0.45593999997E+02  0.45594000000E+02  0.51100000000E-03 0.  1.
         11   -1    0    0    0    0 -0.00000000000E+00 -0.00000000000E+00 -0.45593999997E+02  0.45594000000E+02  0.51100000000E-03 0. -1.
    9900012    2    1    2    0    0  0.56350317067E+01  0.62120632609E+01  0.16743254523E+02  0.72461551209E+02  0.69999975138E+02 0.  0.
         12    1    1    2    0    0 -0.56350317067E+01 -0.62120632609E+01 -0.16743254523E+02  0.18726448791E+02  0.00000000000E+00 0. -1.
         11    1    3    3    0    0  0.48325128100E+01 -0.18654885421E+02  0.61788210391E+01  0.20236989890E+02  0.51100000000E-03 0. -1.
        -11    1    3    3    0    0  0.19299598721E+02  0.19763222778E+02 -0.42949355997E+01  0.27955428049E+02  0.51100000000E-03 0.  1.
        -12    1    3    3    0    0 -0.18497079824E+02  0.51037259042E+01  0.14859369083E+02  0.24269133270E+02  0.00000000000E+00 0.  1.
</event>
<event>
 7    1  0.1283194E-013  0.7246167E+02  0.7816164E-02  0.1226708E+00
        -11   -1    0    0    0    0  0.00000000000E+00  0.00000000000E+00  0.45593999997E+02  0.45594000000E+02  0.51100000000E-03 0.  1.
         11   -1    0    0    0    0 -0.00000000000E+00 -0.00000000000E+00 -0.45593999997E+02  0.45594000000E+02  0.51100000000E-03 0. -1.
    9900012    2    1    2    0    0 -0.37178357472E+01 -0.15903385590E+02  0.91616234844E+01  0.72461673058E+02  0.70000133868E+02 0.  0.
         12    1    1    2    0    0  0.37178357472E+01  0.15903385590E+02 -0.91616234844E+01  0.18726326942E+02  0.00000000000E+00 0. -1.
         11    1    3    3    0    0 -0.21786484030E+02 -0.40560321318E+01  0.15110606601E+02  0.26822242918E+02  0.51100000000E-03 0.  1.
        -11    1    3    3    0    0  0.18163454844E+02  0.94154402279E+01  0.59069352427E+01  0.21294447416E+02  0.51100000000E-03 0. -1.
         12    1    3    3    0    0 -0.94806561231E-01 -0.21262793687E+02 -0.11855918359E+02  0.24344982723E+02  0.00000000000E+00 0. -1.
</event>
<event>
 7    1  0.1283194E-013  0.7246179E+02  0.7816164E-02  0.1226707E+00
        -11   -1    0    0    0    0  0.00000000000E+00  0.00000000000E+00  0.45593999997E+02  0.45594000000E+02  0.51100000000E-03 0.  1.
         11   -1    0    0    0    0 -0.00000000000E+00 -0.00000000000E+00 -0.45593999997E+02  0.45594000000E+02  0.51100000000E-03 0. -1.
    9900012    2    1    2    0    0 -0.13641253949E+01 -0.17497490895E+02 -0.65305400343E+01  0.72461788988E+02  0.70000284889E+02 0.  0.
         12    1    1    2    0    0  0.13641253949E+01  0.17497490895E+02  0.65305400343E+01  0.18726211012E+02  0.00000000000E+00 0. -1.
         11    1    3    3    0    0  0.23307320880E+02 -0.32435107404E+02 -0.11574749637E+02  0.41584158382E+02  0.51100000000E-03 0.  1.
        -11    1    3    3    0    0 -0.20227822565E+02  0.74895284813E+01  0.52603318150E+01  0.22202002920E+02  0.51100000000E-03 0. -1.
        -12    1    3    3    0    0 -0.44436237095E+01  0.74480880274E+01 -0.21612221192E+00  0.86756276860E+01  0.00000000000E+00 0.  1.
</event>
<event>
 7    1  0.1283194E-013  0.7246160E+02  0.7816164E-02  0.1226708E+00
        -11   -1    0    0    0    0  0.00000000000E+00  0.00000000000E+00  0.45593999997E+02  0.45594000000E+02  0.51100000000E-03 0. -1.
         11   -1    0    0    0    0 -0.00000000000E+00 -0.00000000000E+00 -0.45593999997E+02  0.45594000000E+02  0.51100000000E-03 0.  1.
    9900012    2    1    2    0    0 -0.38599352833E+01  0.11103184080E+02 -0.14577325018E+02  0.72461596134E+02  0.70000033660E+02 0.  0.
         12    1    1    2    0    0  0.38599352833E+01 -0.11103184080E+02  0.14577325018E+02  0.18726403866E+02  0.00000000000E+00 0. -1.
         11    1    3    3    0    0  0.25034592922E+02 -0.28078824683E+01  0.12158389412E+02  0.27972155442E+02  0.51100000000E-03 0. -1.
        -11    1    3    3    0    0 -0.18169432868E+02  0.84296483360E+01 -0.67157844803E+01  0.21125553798E+02  0.51100000000E-03 0.  1.
         12    1    3    3    0    0 -0.10725095338E+02  0.54814182121E+01 -0.20019929949E+02  0.23363886893E+02  0.00000000000E+00 0. -1.
</event>
<event>
 7    1  0.1283194E-013  0.7246159E+02  0.7816164E-02  0.1226708E+00
        -11   -1    0    0    0    0  0.00000000000E+00  0.00000000000E+00  0.45593999997E+02  0.45594000000E+02  0.51100000000E-03 0.  1.
         11   -1    0    0    0    0 -0.00000000000E+00 -0.00000000000E+00 -0.45593999997E+02  0.45594000000E+02  0.51100000000E-03 0. -1.
    9900012    2    1    2    0    0 -0.95024851338E+01  0.15399141092E+02 -0.48215786472E+01  0.72461591088E+02  0.70000027087E+02 0.  0.
         12    1    1    2    0    0  0.95024851338E+01 -0.15399141092E+02  0.48215786472E+01  0.18726408912E+02  0.00000000000E+00 0. -1.
         11    1    3    3    0    0 -0.23659034356E+02  0.17823955897E+02  0.76549214930E+01  0.30594789325E+02  0.51100000000E-03 0. -1.
        -11    1    3    3    0    0  0.84119484023E+01  0.10874247771E+02 -0.20969170947E+02  0.25074215261E+02  0.51100000000E-03 0.  1.
        -12    1    3    3    0    0  0.57446008203E+01 -0.13299062576E+02  0.84926708064E+01  0.16792586502E+02  0.00000000000E+00 0.  1.
</event>
<event>
 7    1  0.1283194E-013  0.7246157E+02  0.7816164E-02  0.1226708E+00
        -11   -1    0    0    0    0  0.00000000000E+00  0.00000000000E+00  0.45593999997E+02  0.45594000000E+02  0.51100000000E-03 0.  1.
         11   -1    0    0    0    0 -0.00000000000E+00 -0.00000000000E+00 -0.45593999997E+02  0.45594000000E+02  0.51100000000E-03 0. -1.
    9900012    2    1    2    0    0  0.10677639175E+02  0.50067415305E+01  0.14546473947E+02  0.72461565651E+02  0.69999993952E+02 0.  0.
         12    1    1    2    0    0 -0.10677639175E+02 -0.50067415305E+01 -0.14546473947E+02  0.18726434349E+02  0.00000000000E+00 0. -1.
         11    1    3    3    0    0  0.21571523802E+02  0.23485244178E+02  0.50906492124E+01  0.32292445601E+02  0.51100000000E-03 0. -1.
        -11    1    3    3    0    0 -0.11502493572E+02 -0.19169576856E+02 -0.72009699628E+01  0.23486890043E+02  0.51100000000E-03 0.  1.
        -12    1    3    3    0    0  0.60860894581E+00  0.69107420854E+00  0.16656794698E+02  0.16682230007E+02  0.00000000000E+00 0.  1.
</event>
<event>
 7    1  0.1283194E-013  0.7246157E+02  0.7816164E-02  0.1226708E+00
        -11   -1    0    0    0    0  0.00000000000E+00  0.00000000000E+00  0.45593999997E+02  0.45594000000E+02  0.51100000000E-03 0.  1.
         11   -1    0    0    0    0 -0.00000000000E+00 -0.00000000000E+00 -0.45593999997E+02  0.45594000000E+02  0.51100000000E-03 0. -1.
    9900012    2    1    2    0    0  0.46884854929E+01 -0.30505813552E+01  0.17871520006E+02  0.72461570277E+02  0.69999999978E+02 0.  0.
         12    1    1    2    0    0 -0.46884854929E+01  0.30505813552E+01 -0.17871520006E+02  0.18726429723E+02  0.00000000000E+00 0. -1.
         11    1    3    3    0    0 -0.59377017851E+01  0.10042704620E+02 -0.16166504749E+02  0.19936601883E+02  0.51100000000E-03 0. -1.
        -11    1    3    3    0    0  0.16971571242E+02 -0.62551288292E+01  0.38233616332E+02  0.42296220696E+02  0.51100000000E-03 0.  1.
        -12    1    3    3    0    0 -0.63453839641E+01 -0.68381571457E+01 -0.41955915761E+01  0.10228747698E+02  0.00000000000E+00 0.  1.
</event>
<event>
 8    1  0.1283194E-013  0.7246154E+02  0.7816164E-02  0.1226708E+00
        -11   -1    0    0    0    0  0.00000000000E+00  0.00000000000E+00  0.45593999997E+02  0.45594000000E+02  0.51100000000E-03 0.  1.
         11   -1    0    0    0    0 -0.00000000000E+00 -0.00000000000E+00 -0.45593999997E+02  0.45594000000E+02  0.51100000000E-03 0. -1.
    9900012    2    1    2    0    0 -0.15829014013E+02 -0.90057682174E+01  0.43610300109E+01  0.72461544688E+02  0.69999966643E+02 0.  0.
        -24    2    3    3    0    0 -0.83373182549E+01 -0.16621425231E+02 -0.36638492094E+01  0.59100316307E+02  0.55978933039E+02 0.  0.
         12    1    1    2    0    0  0.15829014013E+02  0.90057682174E+01 -0.43610300109E+01  0.18726455312E+02  0.00000000000E+00 0. -1.
         11    1    4    4    0    0 -0.33417157792E+00 -0.19891130261E+02 -0.27387608524E+02  0.33850403758E+02  0.51100000000E-03 0. -1.
        -11    1    3    3    0    0 -0.74916957580E+01  0.76156570134E+01  0.80248792203E+01  0.13361228381E+02  0.51100000000E-03 0.  1.
        -12    1    4    4    0    0 -0.80031466770E+01  0.32697050304E+01  0.23723759314E+02  0.25249912549E+02  0.00000000000E+00 0.  1.
</event>
<event>
 7    1  0.1283194E-013  0.7246149E+02  0.7816164E-02  0.1226708E+00
        -11   -1    0    0    0    0  0.00000000000E+00  0.00000000000E+00  0.45593999997E+02  0.45594000000E+02  0.51100000000E-03 0.  1.
         11   -1    0    0    0    0 -0.00000000000E+00 -0.00000000000E+00 -0.45593999997E+02  0.45594000000E+02  0.51100000000E-03 0. -1.
    9900012    2    1    2    0    0 -0.17300772955E+02  0.33680957929E+01 -0.63262522474E+01  0.72461487201E+02  0.69999891755E+02 0.  0.
         12    1    1    2    0    0  0.17300772955E+02 -0.33680957929E+01  0.63262522474E+01  0.18726512799E+02  0.00000000000E+00 0. -1.
         11    1    3    3    0    0  0.65555070625E+01 -0.26024663311E+02 -0.12644966104E+02  0.29667371662E+02  0.51100000000E-03 0. -1.
        -11    1    3    3    0    0 -0.44424516562E+01  0.19790923570E+02  0.59286091355E+01  0.21132071337E+02  0.51100000000E-03 0.  1.
        -12    1    3    3    0    0 -0.19413828362E+02  0.96018355345E+01  0.39010472130E+00  0.21662044201E+02  0.00000000000E+00 0.  1.
</event>
<event>
 7    1  0.1283194E-013  0.7246155E+02  0.7816164E-02  0.1226708E+00
        -11   -1    0    0    0    0  0.00000000000E+00  0.00000000000E+00  0.45593999997E+02  0.45594000000E+02  0.51100000000E-03 0.  1.
         11   -1    0    0    0    0 -0.00000000000E+00 -0.00000000000E+00 -0.45593999997E+02  0.45594000000E+02  0.51100000000E-03 0. -1.
    9900012    2    1    2    0    0 -0.53328991950E+01 -0.14896976659E+02  0.10015994856E+02  0.72461551315E+02  0.69999975276E+02 0.  0.
         12    1    1    2    0    0  0.53328991950E+01  0.14896976659E+02 -0.10015994856E+02  0.18726448685E+02  0.00000000000E+00 0. -1.
         11    1    3    3    0    0 -0.22514057030E+02 -0.13449304158E+02 -0.80712786484E+01  0.27439243531E+02  0.51100000000E-03 0. -1.
        -11    1    3    3    0    0  0.15628803061E+02  0.15431004305E+02  0.26974586625E+01  0.22128074079E+02  0.51100000000E-03 0.  1.
         12    1    3    3    0    0  0.15523547742E+01 -0.16878676806E+02  0.15389814842E+02  0.22894233705E+02  0.00000000000E+00 0. -1.
</event>
<event>
 7    1  0.1283194E-013  0.7246182E+02  0.7816164E-02  0.1226707E+00
        -11   -1    0    0    0    0  0.00000000000E+00  0.00000000000E+00  0.45593999997E+02  0.45594000000E+02  0.51100000000E-03 0.  1.
         11   -1    0    0    0    0 -0.00000000000E+00 -0.00000000000E+00 -0.45593999997E+02  0.45594000000E+02  0.51100000000E-03 0. -1.
    9900012    2    1    2    0    0  0.13425712581E+02 -0.25388844598E+01  0.12805235456E+02  0.72461821861E+02  0.70000327711E+02 0.  0.
         12    1    1    2    0    0 -0.13425712581E+02  0.25388844598E+01 -0.12805235456E+02  0.18726178139E+02  0.00000000000E+00 0. -1.
         11    1    3    3    0    0 -0.10463604366E+02 -0.19582502663E+02 -0.15520604557E+02  0.27089676870E+02  0.51100000000E-03 0. -1.
        -11    1    3    3    0    0  0.95768076341E+01 -0.24846652792E+01  0.14307122203E+02  0.17394900173E+02  0.51100000000E-03 0.  1.
         12    1    3    3    0    0  0.14312509312E+02  0.19528283482E+02  0.14018717810E+02  0.27977244818E+02  0.00000000000E+00 0. -1.
</event>
<event>
 7    1  0.1283194E-013  0.7246160E+02  0.7816164E-02  0.1226708E+00
        -11   -1    0    0    0    0  0.00000000000E+00  0.00000000000E+00  0.45593999997E+02  0.45594000000E+02  0.51100000000E-03 0.  1.
         11   -1    0    0    0    0 -0.00000000000E+00 -0.00000000000E+00 -0.45593999997E+02  0.45594000000E+02  0.51100000000E-03 0. -1.
    9900012    2    1    2    0    0 -0.89120412844E+01  0.16318112081E+02  0.22299725393E+01  0.72461600473E+02  0.70000039313E+02 0.  0.
         12    1    1    2    0    0  0.89120412844E+01 -0.16318112081E+02 -0.22299725393E+01  0.18726399527E+02  0.00000000000E+00 0. -1.
         11    1    3    3    0    0 -0.28819728471E+02  0.81825216759E+01  0.12855852053E+02  0.32600664754E+02  0.51100000000E-03 0. -1.
        -11    1    3    3    0    0  0.17291637298E+02 -0.36285646170E+01 -0.18408049377E+02  0.25515161841E+02  0.51100000000E-03 0.  1.
        -12    1    3    3    0    0  0.26160498883E+01  0.11764155022E+02  0.77821698632E+01  0.14345773879E+02  0.00000000000E+00 0.  1.
</event>
<event>
 7    1  0.1283194E-013  0.7246159E+02  0.7816164E-02  0.1226708E+00
        -11   -1    0    0    0    0  0.00000000000E+00  0.00000000000E+00  0.45593999997E+02  0.45594000000E+02  0.51100000000E-03 0.  1.
         11   -1    0    0    0    0 -0.00000000000E+00 -0.00000000000E+00 -0.45593999997E+02  0.45594000000E+02  0.51100000000E-03 0. -1.
    9900012    2    1    2    0    0  0.10401377977E+02  0.14676393808E+02 -0.52051193435E+01  0.72461589068E+02  0.70000024456E+02 0.  0.
         12    1    1    2    0    0 -0.10401377977E+02 -0.14676393808E+02  0.52051193435E+01  0.18726410932E+02  0.00000000000E+00 0. -1.
         11    1    3    3    0    0  0.24168507494E+02  0.11761296351E+02 -0.23478499027E+02  0.35688720391E+02  0.51100000000E-03 0. -1.
        -11    1    3    3    0    0  0.33379236180E+01  0.11999287218E+02  0.85003994310E+01  0.15079171680E+02  0.51100000000E-03 0.  1.
         12    1    3    3    0    0 -0.17105053135E+02 -0.90841897613E+01  0.97729802524E+01  0.21693696996E+02  0.00000000000E+00 0. -1.
</event>
<event>
 7    1  0.1283194E-013  0.7246158E+02  0.7816164E-02  0.1226708E+00
        -11   -1    0    0    0    0  0.00000000000E+00  0.00000000000E+00  0.45593999997E+02  0.45594000000E+02  0.51100000000E-03 0. -1.
         11   -1    0    0    0    0 -0.00000000000E+00 -0.00000000000E+00 -0.45593999997E+02  0.45594000000E+02  0.51100000000E-03 0.  1.
    9900012    2    1    2    0    0 -0.96496406142E+01  0.12474132040E+02 -0.10097493456E+02  0.72461577271E+02  0.70000009089E+02 0.  0.
         12    1    1    2    0    0  0.96496406142E+01 -0.12474132040E+02  0.10097493456E+02  0.18726422729E+02  0.00000000000E+00 0. -1.
         11    1    3    3    0    0 -0.75782417936E+01 -0.48754308835E+01  0.63604836281E+01  0.11029747378E+02  0.51100000000E-03 0. -1.
        -11    1    3    3    0    0 -0.53642127952E+01 -0.38087915935E+01 -0.33453232119E+02  0.34093993779E+02  0.51100000000E-03 0.  1.
        -12    1    3    3    0    0  0.32928139746E+01  0.21158354517E+02  0.16995255035E+02  0.27337836115E+02  0.00000000000E+00 0.  1.
</event>
<event>
 7    1  0.1283194E-013  0.7246161E+02  0.7816164E-02  0.1226708E+00
        -11   -1    0    0    0    0  0.00000000000E+00  0.00000000000E+00  0.45593999997E+02  0.45594000000E+02  0.51100000000E-03 0. -1.
         11   -1    0    0    0    0 -0.00000000000E+00 -0.00000000000E+00 -0.45593999997E+02  0.45594000000E+02  0.51100000000E-03 0.  1.
    9900012    2    1    2    0    0 -0.34918661221E+01  0.64565579154E+01 -0.17227809973E+02  0.72461609382E+02  0.70000050918E+02 0.  0.
         12    1    1    2    0    0  0.34918661221E+01 -0.64565579154E+01  0.17227809973E+02  0.18726390618E+02  0.00000000000E+00 0. -1.
         11    1    3    3    0    0  0.12503976471E+02 -0.72103524629E+01  0.22313079962E+02  0.26574652356E+02  0.51100000000E-03 0. -1.
        -11    1    3    3    0    0 -0.91809745613E+01  0.12086067863E+02 -0.19832914922E+02  0.24974143526E+02  0.51100000000E-03 0.  1.
         12    1    3    3    0    0 -0.68148680315E+01  0.15808425155E+01 -0.19707975013E+02  0.20912813500E+02  0.00000000000E+00 0. -1.
</event>
<event>
 7    1  0.1283194E-013  0.7246157E+02  0.7816164E-02  0.1226708E+00
        -11   -1    0    0    0    0  0.00000000000E+00  0.00000000000E+00  0.45593999997E+02  0.45594000000E+02  0.51100000000E-03 0.  1.
         11   -1    0    0    0    0 -0.00000000000E+00 -0.00000000000E+00 -0.45593999997E+02  0.45594000000E+02  0.51100000000E-03 0. -1.
    9900012    2    1    2    0    0  0.37271303795E+01  0.16458721863E+02 -0.81177744091E+01  0.72461567142E+02  0.69999995894E+02 0.  0.
         12    1    1    2    0    0 -0.37271303795E+01 -0.16458721863E+02  0.81177744091E+01  0.18726432858E+02  0.00000000000E+00 0. -1.
         11    1    3    3    0    0 -0.36254995216E+01  0.26148807805E+02 -0.10678071994E+02  0.28476755752E+02  0.51100000000E-03 0.  1.
        -11    1    3    3    0    0  0.91943061950E+01 -0.22866792136E+02  0.12252939096E+02  0.27523807254E+02  0.51100000000E-03 0. -1.
         12    1    3    3    0    0 -0.18416762939E+01  0.13176706194E+02 -0.96926415118E+01  0.16461004136E+02  0.00000000000E+00 0. -1.
</event>
<event>
 7    1  0.1283194E-013  0.7246155E+02  0.7816164E-02  0.1226708E+00
        -11   -1    0    0    0    0  0.00000000000E+00  0.00000000000E+00  0.45593999997E+02  0.45594000000E+02  0.51100000000E-03 0.  1.
         11   -1    0    0    0    0 -0.00000000000E+00 -0.00000000000E+00 -0.45593999997E+02  0.45594000000E+02  0.51100000000E-03 0. -1.
    9900012    2    1    2    0    0 -0.10353567605E+02  0.92239294402E+01  0.12585818502E+02  0.72461546416E+02  0.69999968894E+02 0.  0.
         12    1    1    2    0    0  0.10353567605E+02 -0.92239294402E+01 -0.12585818502E+02  0.18726453584E+02  0.00000000000E+00 0. -1.
         11    1    3    3    0    0  0.18201539169E+02  0.10924389787E+02  0.14059294079E+02  0.25461776659E+02  0.51100000000E-03 0.  1.
        -11    1    3    3    0    0 -0.22264698461E+02 -0.16314474190E+02  0.76716274870E+01  0.28648433364E+02  0.51100000000E-03 0. -1.
        -12    1    3    3    0    0 -0.62904083134E+01  0.14614013843E+02 -0.91451030648E+01  0.18351336394E+02  0.00000000000E+00 0.  1.
</event>
<event>
 7    1  0.1283194E-013  0.7246157E+02  0.7816164E-02  0.1226708E+00
        -11   -1    0    0    0    0  0.00000000000E+00  0.00000000000E+00  0.45593999997E+02  0.45594000000E+02  0.51100000000E-03 0. -1.
         11   -1    0    0    0    0 -0.00000000000E+00 -0.00000000000E+00 -0.45593999997E+02  0.45594000000E+02  0.51100000000E-03 0.  1.
    9900012    2    1    2    0    0 -0.78620290932E+01 -0.70798023120E+01 -0.15451344202E+02  0.72461571086E+02  0.70000001031E+02 0.  0.
         12    1    1    2    0    0  0.78620290932E+01  0.70798023120E+01  0.15451344202E+02  0.18726428914E+02  0.00000000000E+00 0. -1.
         11    1    3    3    0    0  0.75241140006E+01  0.97689359402E+01  0.28165496604E+01  0.12648215414E+02  0.51100000000E-03 0. -1.
        -11    1    3    3    0    0 -0.31973640843E+02 -0.55024401049E+01 -0.22230981684E+02  0.39329468631E+02  0.51100000000E-03 0.  1.
        -12    1    3    3    0    0  0.16587497749E+02 -0.11346298147E+02  0.39630878223E+01  0.20483887041E+02  0.00000000000E+00 0.  1.
</event>
<event>
 7    1  0.1283194E-013  0.7246159E+02  0.7816164E-02  0.1226708E+00
        -11   -1    0    0    0    0  0.00000000000E+00  0.00000000000E+00  0.45593999997E+02  0.45594000000E+02  0.51100000000E-03 0.  1.
         11   -1    0    0    0    0 -0.00000000000E+00 -0.00000000000E+00 -0.45593999997E+02  0.45594000000E+02  0.51100000000E-03 0. -1.
    9900012    2    1    2    0    0  0.18633593081E+02  0.18556751636E+01 -0.15542960753E+00  0.72461588710E+02  0.70000023990E+02 0.  0.
         12    1    1    2    0    0 -0.18633593081E+02 -0.18556751636E+01  0.15542960753E+00  0.18726411290E+02  0.00000000000E+00 0. -1.
         11    1    3    3    0    0  0.53213076749E+00 -0.94413141231E+01 -0.29253067507E+02  0.30743512069E+02  0.51100000000E-03 0. -1.
        -11    1    3    3    0    0  0.12443756340E+02  0.16782242776E+02  0.15545401294E+02  0.26041318056E+02  0.51100000000E-03 0.  1.
         12    1    3    3    0    0  0.56577059737E+01 -0.54852534889E+01  0.13552236606E+02  0.15676758585E+02  0.00000000000E+00 0. -1.
</event>
<event>
 7    1  0.1283194E-013  0.7246161E+02  0.7816164E-02  0.1226708E+00
        -11   -1    0    0    0    0  0.00000000000E+00  0.00000000000E+00  0.45593999997E+02  0.45594000000E+02  0.51100000000E-03 0. -1.
         11   -1    0    0    0    0 -0.00000000000E+00 -0.00000000000E+00 -0.45593999997E+02  0.45594000000E+02  0.51100000000E-03 0.  1.
    9900012    2    1    2    0    0 -0.14214727374E+02 -0.11029815454E+02  0.51925333963E+01  0.72461609362E+02  0.70000050892E+02 0.  0.
         12    1    1    2    0    0  0.14214727374E+02  0.11029815454E+02 -0.51925333963E+01  0.18726390638E+02  0.00000000000E+00 0. -1.
         11    1    3    3    0    0  0.10525764675E+02 -0.40401767222E+01  0.17032514642E+02  0.20425995820E+02  0.51100000000E-03 0. -1.
        -11    1    3    3    0    0 -0.10474521483E+02 -0.18049639839E+00 -0.27717226208E+02  0.29630943424E+02  0.51100000000E-03 0.  1.
        -12    1    3    3    0    0 -0.14265970566E+02 -0.68091423332E+01  0.15877244962E+02  0.22404670118E+02  0.00000000000E+00 0.  1.
</event>
<event>
 7    1  0.1283194E-013  0.7246155E+02  0.7816164E-02  0.1226708E+00
        -11   -1    0    0    0    0  0.00000000000E+00  0.00000000000E+00  0.45593999997E+02  0.45594000000E+02  0.51100000000E-03 0.  1.
         11   -1    0    0    0    0 -0.00000000000E+00 -0.00000000000E+00 -0.45593999997E+02  0.45594000000E+02  0.51100000000E-03 0. -1.
    9900012    2    1    2    0    0 -0.18068264012E+02  0.20631759634E+01  0.44677680441E+01  0.72461553174E+02  0.69999977697E+02 0.  0.
         12    1    1    2    0    0  0.18068264012E+02 -0.20631759634E+01 -0.44677680441E+01  0.18726446826E+02  0.00000000000E+00 0. -1.
         11    1    3    3    0    0  0.10922405799E+01  0.15769900543E+01 -0.32276444253E+01  0.37546738758E+01  0.51100000000E-03 0. -1.
        -11    1    3    3    0    0  0.12999515033E+02 -0.92250682148E+01  0.25963963204E+02  0.30466648325E+02  0.51100000000E-03 0.  1.
        -12    1    3    3    0    0 -0.32160019625E+02  0.97112541239E+01 -0.18268550734E+02  0.38240230973E+02  0.00000000000E+00 0.  1.
</event>
<event>
 7    1  0.1283194E-013  0.7246156E+02  0.7816164E-02  0.1226708E+00
        -11   -1    0    0    0    0  0.00000000000E+00  0.00000000000E+00  0.45593999997E+02  0.45594000000E+02  0.51100000000E-03 0.  1.
         11   -1    0    0    0    0 -0.00000000000E+00 -0.00000000000E+00 -0.45593999997E+02  0.45594000000E+02  0.51100000000E-03 0. -1.
    9900012    2    1    2    0    0  0.13590190368E+02  0.10022303687E+02  0.80956655295E+01  0.72461557578E+02  0.69999983435E+02 0.  0.
         12    1    1    2    0    0 -0.13590190368E+02 -0.10022303687E+02 -0.80956655295E+01  0.18726442422E+02  0.00000000000E+00 0. -1.
         11    1    3    3    0    0  0.25585555597E+02 -0.64562197803E+01  0.86669478255E+01  0.27774438139E+02  0.51100000000E-03 0. -1.
        -11    1    3    3    0    0 -0.14102953246E+02 -0.10393935014E+02  0.18850094361E+01  0.17620455050E+02  0.51100000000E-03 0.  1.
         12    1    3    3    0    0  0.21075880167E+01  0.26872458481E+02 -0.24562917322E+01  0.27066664389E+02  0.00000000000E+00 0. -1.
</event>
<event>
 7    1  0.1283194E-013  0.7246157E+02  0.7816164E-02  0.1226708E+00
        -11   -1    0    0    0    0  0.00000000000E+00  0.00000000000E+00  0.45593999997E+02  0.45594000000E+02  0.51100000000E-03 0.  1.
         11   -1    0    0    0    0 -0.00000000000E+00 -0.00000000000E+00 -0.45593999997E+02  0.45594000000E+02  0.51100000000E-03 0. -1.
    9900012    2    1    2    0    0  0.68645647517E+01 -0.12570193885E+02  0.12064286993E+02  0.72461573641E+02  0.70000004360E+02 0.  0.
         12    1    1    2    0    0 -0.68645647517E+01  0.12570193885E+02 -0.12064286993E+02  0.18726426359E+02  0.00000000000E+00 0. -1.
         11    1    3    3    0    0  0.69270294976E+01  0.23894442584E+01 -0.91275849941E+01  0.11704955771E+02  0.51100000000E-03 0. -1.
        -11    1    3    3    0    0 -0.22469140888E+02 -0.23734621185E+02  0.97175326880E+01  0.34097286943E+02  0.51100000000E-03 0.  1.
        -12    1    3    3    0    0  0.22406676142E+02  0.87749830420E+01  0.11474339299E+02  0.26659330927E+02  0.00000000000E+00 0.  1.
</event>
<event>
 7    1  0.1283194E-013  0.7246155E+02  0.7816164E-02  0.1226708E+00
        -11   -1    0    0    0    0  0.00000000000E+00  0.00000000000E+00  0.45593999997E+02  0.45594000000E+02  0.51100000000E-03 0. -1.
         11   -1    0    0    0    0 -0.00000000000E+00 -0.00000000000E+00 -0.45593999997E+02  0.45594000000E+02  0.51100000000E-03 0.  1.
    9900012    2    1    2    0    0  0.22329821694E+01 -0.16171235794E+02  0.91752276538E+01  0.72461551352E+02  0.69999975324E+02 0.  0.
         12    1    1    2    0    0 -0.22329821694E+01  0.16171235794E+02 -0.91752276538E+01  0.18726448648E+02  0.00000000000E+00 0. -1.
         11    1    3    3    0    0  0.12002104512E+01  0.18535543116E+02 -0.92190346796E+01  0.20736380215E+02  0.51100000000E-03 0. -1.
        -11    1    3    3    0    0  0.52256509344E+01 -0.29965116116E+02 -0.18902680625E+01  0.30476035259E+02  0.51100000000E-03 0.  1.
        -12    1    3    3    0    0 -0.41928792161E+01 -0.47416627939E+01  0.20284530396E+02  0.21249135878E+02  0.00000000000E+00 0.  1.
</event>
<event>
 7    1  0.1283194E-013  0.7246154E+02  0.7816164E-02  0.1226708E+00
        -11   -1    0    0    0    0  0.00000000000E+00  0.00000000000E+00  0.45593999997E+02  0.45594000000E+02  0.51100000000E-03 0. -1.
         11   -1    0    0    0    0 -0.00000000000E+00 -0.00000000000E+00 -0.45593999997E+02  0.45594000000E+02  0.51100000000E-03 0.  1.
    9900012    2    1    2    0    0 -0.16605020612E+02 -0.27989241663E+00 -0.86530586311E+01  0.72461535492E+02  0.69999954664E+02 0.  0.
         12    1    1    2    0    0  0.16605020612E+02  0.27989241663E+00  0.86530586311E+01  0.18726464508E+02  0.00000000000E+00 0. -1.
         11    1    3    3    0    0  0.10014226468E+02  0.31247480606E+01  0.11463747070E+02  0.15539185286E+02  0.51100000000E-03 0. -1.
        -11    1    3    3    0    0 -0.48918531440E+01 -0.13344664209E+02 -0.28298430268E+02  0.31667198265E+02  0.51100000000E-03 0.  1.
        -12    1    3    3    0    0 -0.21727393936E+02  0.99400237319E+01  0.81816245676E+01  0.25255151942E+02  0.00000000000E+00 0.  1.
</event>
<event>
 7    1  0.1283194E-013  0.7246157E+02  0.7816164E-02  0.1226708E+00
        -11   -1    0    0    0    0  0.00000000000E+00  0.00000000000E+00  0.45593999997E+02  0.45594000000E+02  0.51100000000E-03 0. -1.
         11   -1    0    0    0    0 -0.00000000000E+00 -0.00000000000E+00 -0.45593999997E+02  0.45594000000E+02  0.51100000000E-03 0.  1.
    9900012    2    1    2    0    0 -0.66298009916E+00  0.17334215297E+01 -0.18634242846E+02  0.72461566831E+02  0.69999995488E+02 0.  0.
         12    1    1    2    0    0  0.66298009916E+00 -0.17334215297E+01  0.18634242846E+02  0.18726433169E+02  0.00000000000E+00 0. -1.
         11    1    3    3    0    0  0.14785619336E+01 -0.18407183830E+02  0.84151262208E+01  0.20293469677E+02  0.51100000000E-03 0. -1.
        -11    1    3    3    0    0 -0.14329158687E+02  0.25886913793E+02 -0.11894768736E+02  0.31889537750E+02  0.51100000000E-03 0.  1.
        -12    1    3    3    0    0  0.12187616654E+02 -0.57463084330E+01 -0.15154600330E+02  0.20278559404E+02  0.00000000000E+00 0.  1.
</event>
<event>
 7    1  0.1283194E-013  0.7246156E+02  0.7816164E-02  0.1226708E+00
        -11   -1    0    0    0    0  0.00000000000E+00  0.00000000000E+00  0.45593999997E+02  0.45594000000E+02  0.51100000000E-03 0. -1.
         11   -1    0    0    0    0 -0.00000000000E+00 -0.00000000000E+00 -0.45593999997E+02  0.45594000000E+02  0.51100000000E-03 0.  1.
    9900012    2    1    2    0    0 -0.34596767829E+01 -0.53131210108E+01 -0.17620465965E+02  0.72461563095E+02  0.69999990622E+02 0.  0.
         12    1    1    2    0    0  0.34596767829E+01  0.53131210108E+01  0.17620465965E+02  0.18726436905E+02  0.00000000000E+00 0. -1.
         11    1    3    3    0    0 -0.25218613334E+02 -0.25243527271E+01  0.15144965865E+02  0.29524918400E+02  0.51100000000E-03 0. -1.
        -11    1    3    3    0    0  0.14453525807E+01 -0.62734490896E+01 -0.41056630194E+01  0.76355534608E+01  0.51100000000E-03 0.  1.
         12    1    3    3    0    0  0.20313583971E+02  0.34846808058E+01 -0.28659768811E+02  0.35301091235E+02  0.00000000000E+00 0. -1.
</event>
<event>
 7    1  0.1283194E-013  0.7246157E+02  0.7816164E-02  0.1226708E+00
        -11   -1    0    0    0    0  0.00000000000E+00  0.00000000000E+00  0.45593999997E+02  0.45594000000E+02  0.51100000000E-03 0.  1.
         11   -1    0    0    0    0 -0.00000000000E+00 -0.00000000000E+00 -0.45593999997E+02  0.45594000000E+02  0.51100000000E-03 0. -1.
    9900012    2    1    2    0    0 -0.14305885495E+02 -0.12079666932E+02 -0.32010146240E+00  0.72461570070E+02  0.69999999708E+02 0.  0.
         12    1    1    2    0    0  0.14305885495E+02  0.12079666932E+02  0.32010146240E+00  0.18726429930E+02  0.00000000000E+00 0. -1.
         11    1    3    3    0    0  0.11133692557E+02 -0.15948126268E+02  0.14212048570E+02  0.24089088115E+02  0.51100000000E-03 0. -1.
        -11    1    3    3    0    0 -0.15799331872E+02  0.10699591070E+02  0.97058832731E+01  0.21408043046E+02  0.51100000000E-03 0.  1.
         12    1    3    3    0    0 -0.96402461798E+01 -0.68311317342E+01 -0.24238033305E+02  0.26964438909E+02  0.00000000000E+00 0. -1.
</event>
<event>
 7    1  0.1283194E-013  0.7246153E+02  0.7816164E-02  0.1226708E+00
        -11   -1    0    0    0    0  0.00000000000E+00  0.00000000000E+00  0.45593999997E+02  0.45594000000E+02  0.51100000000E-03 0.  1.
         11   -1    0    0    0    0 -0.00000000000E+00 -0.00000000000E+00 -0.45593999997E+02  0.45594000000E+02  0.51100000000E-03 0. -1.
    9900012    2    1    2    0    0 -0.10942887190E+02 -0.74978437512E+01  0.13218031444E+02  0.72461526861E+02  0.69999943419E+02 0.  0.
         12    1    1    2    0    0  0.10942887190E+02  0.74978437512E+01 -0.13218031444E+02  0.18726473139E+02  0.00000000000E+00 0. -1.
         11    1    3    3    0    0 -0.26244249915E+02  0.35251693726E+00  0.48523285451E+01  0.26691384647E+02  0.51100000000E-03 0.  1.
        -11    1    3    3    0    0  0.26055430861E+02 -0.17383036266E+01 -0.60193578210E+01  0.26798131384E+02  0.51100000000E-03 0. -1.
         12    1    3    3    0    0 -0.10754068136E+02 -0.61120570619E+01  0.14385060720E+02  0.18972010830E+02  0.00000000000E+00 0. -1.
</event>
<event>
 7    1  0.1283194E-013  0.7246155E+02  0.7816164E-02  0.1226708E+00
        -11   -1    0    0    0    0  0.00000000000E+00  0.00000000000E+00  0.45593999997E+02  0.45594000000E+02  0.51100000000E-03 0. -1.
         11   -1    0    0    0    0 -0.00000000000E+00 -0.00000000000E+00 -0.45593999997E+02  0.45594000000E+02  0.51100000000E-03 0.  1.
    9900012    2    1    2    0    0  0.82952370000E+01  0.32519873063E+01 -0.16470986696E+02  0.72461553966E+02  0.69999978729E+02 0.  0.
         12    1    1    2    0    0 -0.82952370000E+01 -0.32519873063E+01  0.16470986696E+02  0.18726446034E+02  0.00000000000E+00 0. -1.
         11    1    3    3    0    0  0.17172914972E+02  0.22830779973E+02 -0.26666876704E+01  0.28692590441E+02  0.51100000000E-03 0. -1.
        -11    1    3    3    0    0  0.24460751134E+01 -0.27234288978E+02 -0.58788306871E+01  0.27968740231E+02  0.51100000000E-03 0.  1.
         12    1    3    3    0    0 -0.11323753086E+02  0.76554963117E+01 -0.79254683388E+01  0.15800223293E+02  0.00000000000E+00 0. -1.
</event>
<event>
 7    1  0.1283194E-013  0.7246153E+02  0.7816164E-02  0.1226708E+00
        -11   -1    0    0    0    0  0.00000000000E+00  0.00000000000E+00  0.45593999997E+02  0.45594000000E+02  0.51100000000E-03 0.  1.
         11   -1    0    0    0    0 -0.00000000000E+00 -0.00000000000E+00 -0.45593999997E+02  0.45594000000E+02  0.51100000000E-03 0. -1.
    9900012    2    1    2    0    0 -0.10014799032E+02 -0.15450086586E+02  0.34174945161E+01  0.72461530927E+02  0.69999948717E+02 0.  0.
         12    1    1    2    0    0  0.10014799032E+02  0.15450086586E+02 -0.34174945161E+01  0.18726469073E+02  0.00000000000E+00 0. -1.
         11    1    3    3    0    0 -0.14474316890E+02 -0.38051923550E+02  0.20243798463E+01  0.40762149714E+02  0.51100000000E-03 0. -1.
        -11    1    3    3    0    0  0.43216224535E+01  0.14082684604E+02 -0.97551070442E+01  0.17668065542E+02  0.51100000000E-03 0.  1.
         12    1    3    3    0    0  0.13789540437E+00  0.85191523602E+01  0.11148221714E+02  0.14031315671E+02  0.00000000000E+00 0. -1.
</event>
<event>
 7    1  0.1283194E-013  0.7246160E+02  0.7816164E-02  0.1226708E+00
        -11   -1    0    0    0    0  0.00000000000E+00  0.00000000000E+00  0.45593999997E+02  0.45594000000E+02  0.51100000000E-03 0. -1.
         11   -1    0    0    0    0 -0.00000000000E+00 -0.00000000000E+00 -0.45593999997E+02  0.45594000000E+02  0.51100000000E-03 0.  1.
    9900012    2    1    2    0    0 -0.11182685917E+02 -0.13951934036E+02 -0.55649892108E+01  0.72461600651E+02  0.70000039545E+02 0.  0.
         12    1    1    2    0    0  0.11182685917E+02  0.13951934036E+02  0.55649892108E+01  0.18726399349E+02  0.00000000000E+00 0. -1.
         11    1    3    3    0    0  0.70800179397E+01 -0.28631736380E+01 -0.13678783971E+01  0.77585764724E+01  0.51100000000E-03 0. -1.
        -11    1    3    3    0    0 -0.23512069698E+02  0.15976597474E+02  0.13982152991E+02  0.31679168089E+02  0.51100000000E-03 0.  1.
        -12    1    3    3    0    0  0.52493658410E+01 -0.27065357873E+02 -0.18179263804E+02  0.33023856089E+02  0.00000000000E+00 0.  1.
</event>
<event>
 7    1  0.1283194E-013  0.7246155E+02  0.7816164E-02  0.1226708E+00
        -11   -1    0    0    0    0  0.00000000000E+00  0.00000000000E+00  0.45593999997E+02  0.45594000000E+02  0.51100000000E-03 0.  1.
         11   -1    0    0    0    0 -0.00000000000E+00 -0.00000000000E+00 -0.45593999997E+02  0.45594000000E+02  0.51100000000E-03 0. -1.
    9900012    2    1    2    0    0 -0.34760656809E+00 -0.18510096977E+02  0.28169619452E+01  0.72461553593E+02  0.69999978244E+02 0.  0.
         12    1    1    2    0    0  0.34760656809E+00  0.18510096977E+02 -0.28169619452E+01  0.18726446407E+02  0.00000000000E+00 0. -1.
         11    1    3    3    0    0  0.85046480408E+01  0.17065705255E+02  0.63229494028E+01  0.20088479872E+02  0.51100000000E-03 0. -1.
        -11    1    3    3    0    0 -0.16728955426E+02 -0.28318449858E+02  0.10695215796E+02  0.34585838043E+02  0.51100000000E-03 0.  1.
         12    1    3    3    0    0  0.78767008166E+01 -0.72573523740E+01 -0.14201203253E+02  0.17787235678E+02  0.00000000000E+00 0. -1.
</event>
<event>
 7    1  0.1283194E-013  0.7246161E+02  0.7816164E-02  0.1226708E+00
        -11   -1    0    0    0    0  0.00000000000E+00  0.00000000000E+00  0.45593999997E+02  0.45594000000E+02  0.51100000000E-03 0. -1.
         11   -1    0    0    0    0 -0.00000000000E+00 -0.00000000000E+00 -0.45593999997E+02  0.45594000000E+02  0.51100000000E-03 0.  1.
    9900012    2    1    2    0    0 -0.16311668317E+02 -0.66752079250E+01 -0.63283969377E+01  0.72461614019E+02  0.70000056959E+02 0.  0.
         12    1    1    2    0    0  0.16311668317E+02  0.66752079250E+01  0.63283969377E+01  0.18726385981E+02  0.00000000000E+00 0. -1.
         11    1    3    3    0    0 -0.14136596891E+02  0.18022437881E+01 -0.24590598023E+02  0.28421628485E+02  0.51100000000E-03 0.  1.
        -11    1    3    3    0    0 -0.99693259956E+01 -0.11966889713E+02  0.27409643846E+02  0.31525901831E+02  0.51100000000E-03 0. -1.
         12    1    3    3    0    0  0.77942545703E+01  0.34894379995E+01 -0.91474427612E+01  0.12514083703E+02  0.00000000000E+00 0. -1.
</event>
<event>
 7    1  0.1283194E-013  0.7246152E+02  0.7816164E-02  0.1226708E+00
        -11   -1    0    0    0    0  0.00000000000E+00  0.00000000000E+00  0.45593999997E+02  0.45594000000E+02  0.51100000000E-03 0.  1.
         11   -1    0    0    0    0 -0.00000000000E+00 -0.00000000000E+00 -0.45593999997E+02  0.45594000000E+02  0.51100000000E-03 0. -1.
    9900012    2    1    2    0    0  0.15065438338E+01 -0.14575374875E+02  0.11660604784E+02  0.72461523262E+02  0.69999938732E+02 0.  0.
         12    1    1    2    0    0 -0.15065438338E+01  0.14575374875E+02 -0.11660604784E+02  0.18726476738E+02  0.00000000000E+00 0. -1.
         11    1    3    3    0    0 -0.98660517872E+01  0.60415676225E+01 -0.23308917642E+02  0.26022012972E+02  0.51100000000E-03 0. -1.
        -11    1    3    3    0    0 -0.44959458914E+01 -0.31979241280E+01  0.13412888281E+02  0.14503303779E+02  0.51100000000E-03 0.  1.
         12    1    3    3    0    0  0.15868541512E+02 -0.17419018369E+02  0.21556634145E+02  0.31936206512E+02  0.00000000000E+00 0. -1.
</event>
<event>
 7    1  0.1283194E-013  0.7246164E+02  0.7816164E-02  0.1226708E+00
        -11   -1    0    0    0    0  0.00000000000E+00  0.00000000000E+00  0.45593999997E+02  0.45594000000E+02  0.51100000000E-03 0.  1.
         11   -1    0    0    0    0 -0.00000000000E+00 -0.00000000000E+00 -0.45593999997E+02  0.45594000000E+02  0.51100000000E-03 0. -1.
    9900012    2    1    2    0    0  0.97227668364E+01 -0.15468381806E+02 -0.41077325050E+01  0.72461641652E+02  0.70000092956E+02 0.  0.
         12    1    1    2    0    0 -0.97227668364E+01  0.15468381806E+02  0.41077325050E+01  0.18726358348E+02  0.00000000000E+00 0. -1.
         11    1    3    3    0    0 -0.58259621495E+01  0.71689899141E+01  0.19450585372E+02  0.21532801093E+02  0.51100000000E-03 0. -1.
        -11    1    3    3    0    0  0.10359676225E+01 -0.29041545844E+02 -0.12751896046E+02  0.31734767479E+02  0.51100000000E-03 0.  1.
        -12    1    3    3    0    0  0.14512761363E+02  0.64041741241E+01 -0.10806421831E+02  0.19194073080E+02  0.00000000000E+00 0.  1.
</event>
<event>
 7    1  0.1283194E-013  0.7246098E+02  0.7816164E-02  0.1226710E+00
        -11   -1    0    0    0    0  0.00000000000E+00  0.00000000000E+00  0.45593999997E+02  0.45594000000E+02  0.51100000000E-03 0. -1.
         11   -1    0    0    0    0 -0.00000000000E+00 -0.00000000000E+00 -0.45593999997E+02  0.45594000000E+02  0.51100000000E-03 0.  1.
    9900012    2    1    2    0    0  0.18077386557E+02  0.45991918012E+01  0.16603246311E+01  0.72460983477E+02  0.69999235558E+02 0.  0.
         12    1    1    2    0    0 -0.18077386557E+02 -0.45991918012E+01 -0.16603246311E+01  0.18727016523E+02  0.00000000000E+00 0. -1.
         11    1    3    3    0    0  0.58105942517E+01  0.16446028774E+01  0.32805316028E+02  0.33356505874E+02  0.51100000000E-03 0. -1.
        -11    1    3    3    0    0  0.23735330337E+01  0.45905654735E+01 -0.28176794122E+02  0.28646791752E+02  0.51100000000E-03 0.  1.
        -12    1    3    3    0    0  0.98932592718E+01 -0.16359765496E+01 -0.29681972752E+01  0.10457685851E+02  0.00000000000E+00 0.  1.
</event>
<event>
 7    1  0.1283194E-013  0.7246162E+02  0.7816164E-02  0.1226708E+00
        -11   -1    0    0    0    0  0.00000000000E+00  0.00000000000E+00  0.45593999997E+02  0.45594000000E+02  0.51100000000E-03 0.  1.
         11   -1    0    0    0    0 -0.00000000000E+00 -0.00000000000E+00 -0.45593999997E+02  0.45594000000E+02  0.51100000000E-03 0. -1.
    9900012    2    1    2    0    0 -0.93253372565E+01  0.16305262868E+01  0.16157254652E+02  0.72461617306E+02  0.70000061241E+02 0.  0.
         12    1    1    2    0    0  0.93253372565E+01 -0.16305262868E+01 -0.16157254652E+02  0.18726382694E+02  0.00000000000E+00 0. -1.
         11    1    3    3    0    0  0.20664466153E+02 -0.12844355090E+02  0.16875477200E+01  0.24389453389E+02  0.51100000000E-03 0. -1.
        -11    1    3    3    0    0 -0.28295387688E+02  0.18543205726E+02  0.21275507692E+02  0.39964067245E+02  0.51100000000E-03 0.  1.
         12    1    3    3    0    0 -0.16944157215E+01 -0.40683243491E+01 -0.68058007598E+01  0.81080966712E+01  0.00000000000E+00 0. -1.
</event>
<event>
 7    1  0.1283194E-013  0.7246160E+02  0.7816164E-02  0.1226708E+00
        -11   -1    0    0    0    0  0.00000000000E+00  0.00000000000E+00  0.45593999997E+02  0.45594000000E+02  0.51100000000E-03 0. -1.
         11   -1    0    0    0    0 -0.00000000000E+00 -0.00000000000E+00 -0.45593999997E+02  0.45594000000E+02  0.51100000000E-03 0.  1.
    9900012    2    1    2    0    0  0.10271819801E+02  0.29795887093E+01 -0.15371725451E+02  0.72461596868E+02  0.70000034618E+02 0.  0.
         12    1    1    2    0    0 -0.10271819801E+02 -0.29795887093E+01  0.15371725451E+02  0.18726403132E+02  0.00000000000E+00 0. -1.
         11    1    3    3    0    0  0.16592455099E+02 -0.19494772340E+02  0.16512092383E+02  0.30463173011E+02  0.51100000000E-03 0. -1.
        -11    1    3    3    0    0 -0.54525970927E+01  0.13362267426E+02 -0.81806076349E+01  0.16589253972E+02  0.51100000000E-03 0.  1.
         12    1    3    3    0    0 -0.86803820538E+00  0.91120936233E+01 -0.23703210199E+02  0.25409169885E+02  0.00000000000E+00 0. -1.
</event>
<event>
 7    1  0.1283194E-013  0.7246158E+02  0.7816164E-02  0.1226708E+00
        -11   -1    0    0    0    0  0.00000000000E+00  0.00000000000E+00  0.45593999997E+02  0.45594000000E+02  0.51100000000E-03 0.  1.
         11   -1    0    0    0    0 -0.00000000000E+00 -0.00000000000E+00 -0.45593999997E+02  0.45594000000E+02  0.51100000000E-03 0. -1.
    9900012    2    1    2    0    0  0.10133561678E+02  0.30015730712E+00  0.15744831123E+02  0.72461578191E+02  0.70000010287E+02 0.  0.
         12    1    1    2    0    0 -0.10133561678E+02 -0.30015730712E+00 -0.15744831123E+02  0.18726421809E+02  0.00000000000E+00 0. -1.
         11    1    3    3    0    0  0.40458658774E+01  0.18628057729E+01 -0.20326928321E+02  0.20809206887E+02  0.51100000000E-03 0. -1.
        -11    1    3    3    0    0  0.12054423824E+02 -0.14300451830E+02  0.31903561014E+02  0.36981742278E+02  0.51100000000E-03 0.  1.
         12    1    3    3    0    0 -0.59667280234E+01  0.12737803365E+02  0.41681984290E+01  0.14670629026E+02  0.00000000000E+00 0. -1.
</event>
<event>
 7    1  0.1283194E-013  0.7246166E+02  0.7816164E-02  0.1226708E+00
        -11   -1    0    0    0    0  0.00000000000E+00  0.00000000000E+00  0.45593999997E+02  0.45594000000E+02  0.51100000000E-03 0.  1.
         11   -1    0    0    0    0 -0.00000000000E+00 -0.00000000000E+00 -0.45593999997E+02  0.45594000000E+02  0.51100000000E-03 0. -1.
    9900012    2    1    2    0    0  0.14857852992E+01 -0.81380950555E+01  0.16799993083E+02  0.72461657146E+02  0.70000113140E+02 0.  0.
         12    1    1    2    0    0 -0.14857852992E+01  0.81380950555E+01 -0.16799993083E+02  0.18726342854E+02  0.00000000000E+00 0. -1.
         11    1    3    3    0    0 -0.11414387770E+02 -0.17818253138E+02  0.15233823210E+02  0.26073890444E+02  0.51100000000E-03 0. -1.
        -11    1    3    3    0    0  0.23193904164E+02  0.18275897340E+02 -0.71641530287E+01  0.30385698985E+02  0.51100000000E-03 0.  1.
        -12    1    3    3    0    0 -0.10293731095E+02 -0.85957392578E+01  0.87303229019E+01  0.16002067717E+02  0.00000000000E+00 0.  1.
</event>
<event>
 7    1  0.1283194E-013  0.7246156E+02  0.7816164E-02  0.1226708E+00
        -11   -1    0    0    0    0  0.00000000000E+00  0.00000000000E+00  0.45593999997E+02  0.45594000000E+02  0.51100000000E-03 0.  1.
         11   -1    0    0    0    0 -0.00000000000E+00 -0.00000000000E+00 -0.45593999997E+02  0.45594000000E+02  0.51100000000E-03 0. -1.
    9900012    2    1    2    0    0 -0.11388965831E+02  0.75414096664E+01  0.12810082407E+02  0.72461558434E+02  0.69999984550E+02 0.  0.
         12    1    1    2    0    0  0.11388965831E+02 -0.75414096664E+01 -0.12810082407E+02  0.18726441566E+02  0.00000000000E+00 0. -1.
         11    1    3    3    0    0 -0.10644676868E+02 -0.44941369626E+01  0.52920903515E+01  0.12708762065E+02  0.51100000000E-03 0. -1.
        -11    1    3    3    0    0  0.18246857540E+02  0.22551353890E+02  0.19503498510E+02  0.34955655147E+02  0.51100000000E-03 0.  1.
        -12    1    3    3    0    0 -0.18991146502E+02 -0.10515807261E+02 -0.11985506455E+02  0.24797141222E+02  0.00000000000E+00 0.  1.
</event>
<event>
 7    1  0.1283194E-013  0.7246166E+02  0.7816164E-02  0.1226708E+00
        -11   -1    0    0    0    0  0.00000000000E+00  0.00000000000E+00  0.45593999997E+02  0.45594000000E+02  0.51100000000E-03 0.  1.
         11   -1    0    0    0    0 -0.00000000000E+00 -0.00000000000E+00 -0.45593999997E+02  0.45594000000E+02  0.51100000000E-03 0. -1.
    9900012    2    1    2    0    0 -0.11509969463E+02 -0.37961870389E+01  0.14275335059E+02  0.72461664957E+02  0.70000123316E+02 0.  0.
         12    1    1    2    0    0  0.11509969463E+02  0.37961870389E+01 -0.14275335059E+02  0.18726335043E+02  0.00000000000E+00 0. -1.
         11    1    3    3    0    0  0.25542987361E+02 -0.94026846392E+00  0.18556332913E+02  0.31585848090E+02  0.51100000000E-03 0.  1.
        -11    1    3    3    0    0 -0.31516837529E+02 -0.85639652420E+01 -0.41565841096E+01  0.32923088255E+02  0.51100000000E-03 0. -1.
        -12    1    3    3    0    0 -0.55361192958E+01  0.57080466670E+01 -0.12441374442E+00  0.79527286129E+01  0.00000000000E+00 0.  1.
</event>
<event>
 7    1  0.1283194E-013  0.7246155E+02  0.7816164E-02  0.1226708E+00
        -11   -1    0    0    0    0  0.00000000000E+00  0.00000000000E+00  0.45593999997E+02  0.45594000000E+02  0.51100000000E-03 0.  1.
         11   -1    0    0    0    0 -0.00000000000E+00 -0.00000000000E+00 -0.45593999997E+02  0.45594000000E+02  0.51100000000E-03 0. -1.
    9900012    2    1    2    0    0 -0.40193840811E+01 -0.54749954383E+01  0.17451327124E+02  0.72461552343E+02  0.69999976615E+02 0.  0.
         12    1    1    2    0    0  0.40193840811E+01  0.54749954383E+01 -0.17451327124E+02  0.18726447657E+02  0.00000000000E+00 0. -1.
         11    1    3    3    0    0 -0.31444142495E+02 -0.74972465449E+01  0.13254390638E+01  0.32352737009E+02  0.51100000000E-03 0. -1.
        -11    1    3    3    0    0  0.22567211349E+02  0.91851309378E+01  0.32300283213E+01  0.24578013379E+02  0.51100000000E-03 0.  1.
        -12    1    3    3    0    0  0.48575470645E+01 -0.71628798312E+01  0.12895859739E+02  0.15530801955E+02  0.00000000000E+00 0.  1.
</event>
<event>
 7    1  0.1283194E-013  0.7246158E+02  0.7816164E-02  0.1226708E+00
        -11   -1    0    0    0    0  0.00000000000E+00  0.00000000000E+00  0.45593999997E+02  0.45594000000E+02  0.51100000000E-03 0.  1.
         11   -1    0    0    0    0 -0.00000000000E+00 -0.00000000000E+00 -0.45593999997E+02  0.45594000000E+02  0.51100000000E-03 0. -1.
    9900012    2    1    2    0    0  0.76861162438E+01  0.16449487481E+02  0.45844052377E+01  0.72461580356E+02  0.70000013108E+02 0.  0.
         12    1    1    2    0    0 -0.76861162438E+01 -0.16449487481E+02 -0.45844052377E+01  0.18726419644E+02  0.00000000000E+00 0. -1.
         11    1    3    3    0    0 -0.66755602651E+01 -0.57250438177E+01 -0.19370881077E+02  0.21273698915E+02  0.51100000000E-03 0. -1.
        -11    1    3    3    0    0  0.20445030950E+02  0.14101733355E+02  0.30357344969E+02  0.39222781237E+02  0.51100000000E-03 0.  1.
         12    1    3    3    0    0 -0.60833544410E+01  0.80727979429E+01 -0.64020586542E+01  0.11965100204E+02  0.00000000000E+00 0. -1.
</event>
<event>
 7    1  0.1283194E-013  0.7246156E+02  0.7816164E-02  0.1226708E+00
        -11   -1    0    0    0    0  0.00000000000E+00  0.00000000000E+00  0.45593999997E+02  0.45594000000E+02  0.51100000000E-03 0.  1.
         11   -1    0    0    0    0 -0.00000000000E+00 -0.00000000000E+00 -0.45593999997E+02  0.45594000000E+02  0.51100000000E-03 0. -1.
    9900012    2    1    2    0    0 -0.10923827520E+02 -0.14338369719E+02  0.50754828300E+01  0.72461564679E+02  0.69999992685E+02 0.  0.
         12    1    1    2    0    0  0.10923827520E+02  0.14338369719E+02 -0.50754828300E+01  0.18726435321E+02  0.00000000000E+00 0. -1.
         11    1    3    3    0    0 -0.27948764257E+02  0.87102118168E+01 -0.15731623413E+00  0.29275005757E+02  0.51100000000E-03 0. -1.
        -11    1    3    3    0    0  0.56459586689E+01 -0.92174361256E+01  0.18135596181E+02  0.21112504046E+02  0.51100000000E-03 0.  1.
         12    1    3    3    0    0  0.11378978069E+02 -0.13831145410E+02 -0.12902797116E+02  0.22074054876E+02  0.00000000000E+00 0. -1.
</event>
<event>
 7    1  0.1283194E-013  0.7246162E+02  0.7816164E-02  0.1226708E+00
        -11   -1    0    0    0    0  0.00000000000E+00  0.00000000000E+00  0.45593999997E+02  0.45594000000E+02  0.51100000000E-03 0.  1.
         11   -1    0    0    0    0 -0.00000000000E+00 -0.00000000000E+00 -0.45593999997E+02  0.45594000000E+02  0.51100000000E-03 0. -1.
    9900012    2    1    2    0    0 -0.40123333770E+01 -0.16089517853E+02 -0.87009196936E+01  0.72461617344E+02  0.70000061290E+02 0.  0.
         12    1    1    2    0    0  0.40123333770E+01  0.16089517853E+02  0.87009196936E+01  0.18726382656E+02  0.00000000000E+00 0. -1.
         11    1    3    3    0    0 -0.14746060912E+02  0.11968956140E+02  0.15459229551E+02  0.24488568805E+02  0.51100000000E-03 0. -1.
        -11    1    3    3    0    0  0.57924179475E+00 -0.12468501422E+02 -0.26430525799E+02  0.29229638093E+02  0.51100000000E-03 0.  1.
         12    1    3    3    0    0  0.10154485741E+02 -0.15589972572E+02  0.22703765548E+01  0.18743410446E+02  0.00000000000E+00 0. -1.
</event>
<event>
 7    1  0.1283194E-013  0.7246151E+02  0.7816164E-02  0.1226708E+00
        -11   -1    0    0    0    0  0.00000000000E+00  0.00000000000E+00  0.45593999997E+02  0.45594000000E+02  0.51100000000E-03 0. -1.
         11   -1    0    0    0    0 -0.00000000000E+00 -0.00000000000E+00 -0.45593999997E+02  0.45594000000E+02  0.51100000000E-03 0.  1.
    9900012    2    1    2    0    0 -0.30243163385E+01 -0.15879469674E+02  0.94539541213E+01  0.72461513544E+02  0.69999926072E+02 0.  0.
         12    1    1    2    0    0  0.30243163385E+01  0.15879469674E+02 -0.94539541213E+01  0.18726486456E+02  0.00000000000E+00 0. -1.
         11    1    3    3    0    0  0.76846799888E+01 -0.24437121116E+02 -0.10841713051E+02  0.27816720459E+02  0.51100000000E-03 0. -1.
        -11    1    3    3    0    0  0.21131621211E-01  0.28396335260E+01 -0.10847137793E+02  0.11212687620E+02  0.51100000000E-03 0.  1.
         12    1    3    3    0    0 -0.10730127949E+02  0.57180179155E+01  0.31142804965E+02  0.33432105464E+02  0.00000000000E+00 0. -1.
</event>
<event>
 7    1  0.1283194E-013  0.7246157E+02  0.7816164E-02  0.1226708E+00
        -11   -1    0    0    0    0  0.00000000000E+00  0.00000000000E+00  0.45593999997E+02  0.45594000000E+02  0.51100000000E-03 0.  1.
         11   -1    0    0    0    0 -0.00000000000E+00 -0.00000000000E+00 -0.45593999997E+02  0.45594000000E+02  0.51100000000E-03 0. -1.
    9900012    2    1    2    0    0  0.12706903976E+02 -0.12830175678E+02  0.49598608652E+01  0.72461573850E+02  0.70000004631E+02 0.  0.
         12    1    1    2    0    0 -0.12706903976E+02  0.12830175678E+02 -0.49598608652E+01  0.18726426150E+02  0.00000000000E+00 0. -1.
         11    1    3    3    0    0  0.20164975495E+02 -0.64041823377E+01 -0.19034576392E+02  0.28459706373E+02  0.51100000000E-03 0. -1.
        -11    1    3    3    0    0 -0.18000003945E+02  0.41970788522E+00  0.12910191287E+01  0.18051122607E+02  0.51100000000E-03 0.  1.
        -12    1    3    3    0    0  0.10541932426E+02 -0.68457012251E+01  0.22703418129E+02  0.25950744869E+02  0.00000000000E+00 0.  1.
</event>
<event>
 7    1  0.1283194E-013  0.7246159E+02  0.7816164E-02  0.1226708E+00
        -11   -1    0    0    0    0  0.00000000000E+00  0.00000000000E+00  0.45593999997E+02  0.45594000000E+02  0.51100000000E-03 0. -1.
         11   -1    0    0    0    0 -0.00000000000E+00 -0.00000000000E+00 -0.45593999997E+02  0.45594000000E+02  0.51100000000E-03 0.  1.
    9900012    2    1    2    0    0  0.18072853759E+02 -0.46434459177E+01  0.15776257470E+01  0.72461587210E+02  0.70000022035E+02 0.  0.
         12    1    1    2    0    0 -0.18072853759E+02  0.46434459177E+01 -0.15776257470E+01  0.18726412790E+02  0.00000000000E+00 0. -1.
         11    1    3    3    0    0 -0.74441886775E+01 -0.32104556338E+02 -0.25771770623E+01  0.33056925516E+02  0.51100000000E-03 0. -1.
        -11    1    3    3    0    0  0.30486094282E+00  0.55178352833E+01 -0.90506434766E+00  0.55998739398E+01  0.51100000000E-03 0.  1.
         12    1    3    3    0    0  0.25212181494E+02  0.21943275137E+02  0.50598671570E+01  0.33804787754E+02  0.00000000000E+00 0. -1.
</event>
<event>
 7    1  0.1283194E-013  0.7246160E+02  0.7816164E-02  0.1226708E+00
        -11   -1    0    0    0    0  0.00000000000E+00  0.00000000000E+00  0.45593999997E+02  0.45594000000E+02  0.51100000000E-03 0.  1.
         11   -1    0    0    0    0 -0.00000000000E+00 -0.00000000000E+00 -0.45593999997E+02  0.45594000000E+02  0.51100000000E-03 0. -1.
    9900012    2    1    2    0    0  0.17355844204E+00  0.76168343463E+01  0.17106484806E+02  0.72461598573E+02  0.70000036838E+02 0.  0.
         12    1    1    2    0    0 -0.17355844204E+00 -0.76168343463E+01 -0.17106484806E+02  0.18726401427E+02  0.00000000000E+00 0. -1.
         11    1    3    3    0    0  0.14436384312E+02 -0.14462062532E+01 -0.22226774163E+02  0.26542987670E+02  0.51100000000E-03 0. -1.
        -11    1    3    3    0    0 -0.55549858049E+01 -0.23186759611E+01  0.27292991854E+01  0.66093267289E+01  0.51100000000E-03 0.  1.
         12    1    3    3    0    0 -0.87078400654E+01  0.11381716561E+02  0.36603959783E+02  0.39309284174E+02  0.00000000000E+00 0. -1.
</event>
<event>
 7    1  0.1283194E-013  0.7246153E+02  0.7816164E-02  0.1226708E+00
        -11   -1    0    0    0    0  0.00000000000E+00  0.00000000000E+00  0.45593999997E+02  0.45594000000E+02  0.51100000000E-03 0.  1.
         11   -1    0    0    0    0 -0.00000000000E+00 -0.00000000000E+00 -0.45593999997E+02  0.45594000000E+02  0.51100000000E-03 0. -1.
    9900012    2    1    2    0    0  0.48406019221E+01 -0.12126842446E+02  0.13423454358E+02  0.72461525116E+02  0.69999941147E+02 0.  0.
         12    1    1    2    0    0 -0.48406019221E+01  0.12126842446E+02 -0.13423454358E+02  0.18726474884E+02  0.00000000000E+00 0. -1.
         11    1    3    3    0    0 -0.21273663674E+01  0.21759929825E+02 -0.57882578163E+01  0.22616899931E+02  0.51100000000E-03 0. -1.
        -11    1    3    3    0    0  0.59050148886E+01 -0.17533198809E+02  0.26162790798E+02  0.32043312623E+02  0.51100000000E-03 0.  1.
         12    1    3    3    0    0  0.10629534009E+01 -0.16353573462E+02 -0.69510786229E+01  0.17801312562E+02  0.00000000000E+00 0. -1.
</event>
<event>
 7    1  0.1283194E-013  0.7246157E+02  0.7816164E-02  0.1226708E+00
        -11   -1    0    0    0    0  0.00000000000E+00  0.00000000000E+00  0.45593999997E+02  0.45594000000E+02  0.51100000000E-03 0.  1.
         11   -1    0    0    0    0 -0.00000000000E+00 -0.00000000000E+00 -0.45593999997E+02  0.45594000000E+02  0.51100000000E-03 0. -1.
    9900012    2    1    2    0    0 -0.86539159174E+01 -0.15581482484E+02 -0.57451083120E+01  0.72461571440E+02  0.70000001492E+02 0.  0.
         12    1    1    2    0    0  0.86539159174E+01  0.15581482484E+02  0.57451083120E+01  0.18726428560E+02  0.00000000000E+00 0. -1.
         11    1    3    3    0    0 -0.26506719721E+02 -0.18446103165E+02 -0.10745349976E+01  0.32311291186E+02  0.51100000000E-03 0. -1.
        -11    1    3    3    0    0  0.17815052161E+02 -0.65287046806E+01 -0.16430690092E+02  0.25099156270E+02  0.51100000000E-03 0.  1.
         12    1    3    3    0    0  0.37751642294E-01  0.93933253623E+01  0.11760116778E+02  0.15051123984E+02  0.00000000000E+00 0. -1.
</event>
<event>
 7    1  0.1283194E-013  0.7246164E+02  0.7816164E-02  0.1226708E+00
        -11   -1    0    0    0    0  0.00000000000E+00  0.00000000000E+00  0.45593999997E+02  0.45594000000E+02  0.51100000000E-03 0.  1.
         11   -1    0    0    0    0 -0.00000000000E+00 -0.00000000000E+00 -0.45593999997E+02  0.45594000000E+02  0.51100000000E-03 0. -1.
    9900012    2    1    2    0    0 -0.26663367094E+01  0.10172122603E+02  0.15495002167E+02  0.72461640988E+02  0.70000092092E+02 0.  0.
         12    1    1    2    0    0  0.26663367094E+01 -0.10172122603E+02 -0.15495002167E+02  0.18726359012E+02  0.00000000000E+00 0. -1.
         11    1    3    3    0    0  0.14737495951E+02 -0.60698960700E+01 -0.19243470832E+02  0.24986968506E+02  0.51100000000E-03 0. -1.
        -11    1    3    3    0    0  0.24750182935E+01  0.35829782518E-01  0.14754109046E+02  0.14960305255E+02  0.51100000000E-03 0.  1.
         12    1    3    3    0    0 -0.19878850954E+02  0.16206188890E+02  0.19984363952E+02  0.32514367227E+02  0.00000000000E+00 0. -1.
</event>
<event>
 7    1  0.1283194E-013  0.7246158E+02  0.7816164E-02  0.1226708E+00
        -11   -1    0    0    0    0  0.00000000000E+00  0.00000000000E+00  0.45593999997E+02  0.45594000000E+02  0.51100000000E-03 0.  1.
         11   -1    0    0    0    0 -0.00000000000E+00 -0.00000000000E+00 -0.45593999997E+02  0.45594000000E+02  0.51100000000E-03 0. -1.
    9900012    2    1    2    0    0 -0.92865488759E+01 -0.87516406292E+01 -0.13705753175E+02  0.72461578190E+02  0.70000010285E+02 0.  0.
         12    1    1    2    0    0  0.92865488759E+01  0.87516406292E+01  0.13705753175E+02  0.18726421810E+02  0.00000000000E+00 0. -1.
         11    1    3    3    0    0 -0.31344079594E+02  0.31104223069E+01 -0.74191231444E+01  0.32359997544E+02  0.51100000000E-03 0.  1.
        -11    1    3    3    0    0  0.16470197851E+02  0.41752586981E+01 -0.13449558727E+02  0.21670044593E+02  0.51100000000E-03 0. -1.
        -12    1    3    3    0    0  0.55873328672E+01 -0.16037321634E+02  0.71629286965E+01  0.18431536053E+02  0.00000000000E+00 0.  1.
</event>
<event>
 7    1  0.1283194E-013  0.7246156E+02  0.7816164E-02  0.1226708E+00
        -11   -1    0    0    0    0  0.00000000000E+00  0.00000000000E+00  0.45593999997E+02  0.45594000000E+02  0.51100000000E-03 0.  1.
         11   -1    0    0    0    0 -0.00000000000E+00 -0.00000000000E+00 -0.45593999997E+02  0.45594000000E+02  0.51100000000E-03 0. -1.
    9900012    2    1    2    0    0  0.11867234092E+02  0.12611883020E+02  0.71266288344E+01  0.72461556749E+02  0.69999982354E+02 0.  0.
         12    1    1    2    0    0 -0.11867234092E+02 -0.12611883020E+02 -0.71266288344E+01  0.18726443251E+02  0.00000000000E+00 0. -1.
         11    1    3    3    0    0  0.25746263625E+01  0.60138248585E+01 -0.25487503280E+02  0.26313639316E+02  0.51100000000E-03 0. -1.
        -11    1    3    3    0    0 -0.49652428413E+01  0.15088160916E+02  0.13599792271E+02  0.20910776800E+02  0.51100000000E-03 0.  1.
        -12    1    3    3    0    0  0.14257850571E+02 -0.84901027542E+01  0.19014339843E+02  0.25237140633E+02  0.00000000000E+00 0.  1.
</event>
<event>
 7    1  0.1283194E-013  0.7246156E+02  0.7816164E-02  0.1226708E+00
        -11   -1    0    0    0    0  0.00000000000E+00  0.00000000000E+00  0.45593999997E+02  0.45594000000E+02  0.51100000000E-03 0.  1.
         11   -1    0    0    0    0 -0.00000000000E+00 -0.00000000000E+00 -0.45593999997E+02  0.45594000000E+02  0.51100000000E-03 0. -1.
    9900012    2    1    2    0    0 -0.25106394109E+01  0.35488939001E+01  0.18214869630E+02  0.72461563238E+02  0.69999990808E+02 0.  0.
         12    1    1    2    0    0  0.25106394109E+01 -0.35488939001E+01 -0.18214869630E+02  0.18726436762E+02  0.00000000000E+00 0. -1.
         11    1    3    3    0    0  0.14530950668E+02 -0.14169454279E+02 -0.65092221988E+01  0.21314125265E+02  0.51100000000E-03 0. -1.
        -11    1    3    3    0    0 -0.32516077277E+01  0.15831333220E+01  0.29226962848E+02  0.29449866239E+02  0.51100000000E-03 0.  1.
        -12    1    3    3    0    0 -0.13789982351E+02  0.16135214858E+02 -0.45028710188E+01  0.21697571734E+02  0.00000000000E+00 0.  1.
</event>
<event>
 7    1  0.1283194E-013  0.7246154E+02  0.7816164E-02  0.1226708E+00
        -11   -1    0    0    0    0  0.00000000000E+00  0.00000000000E+00  0.45593999997E+02  0.45594000000E+02  0.51100000000E-03 0. -1.
         11   -1    0    0    0    0 -0.00000000000E+00 -0.00000000000E+00 -0.45593999997E+02  0.45594000000E+02  0.51100000000E-03 0.  1.
    9900012    2    1    2    0    0  0.90012660788E+01  0.16094229489E+02 -0.32608453955E+01  0.72461544741E+02  0.69999966713E+02 0.  0.
         12    1    1    2    0    0 -0.90012660788E+01 -0.16094229489E+02  0.32608453955E+01  0.18726455259E+02  0.00000000000E+00 0. -1.
         11    1    3    3    0    0  0.14042336853E+02 -0.21737389012E+02 -0.13305822751E+02  0.29098904183E+02  0.51100000000E-03 0. -1.
        -11    1    3    3    0    0 -0.89962564830E+00  0.18952616154E+02 -0.40997493240E+01  0.19411824493E+02  0.51100000000E-03 0.  1.
         12    1    3    3    0    0 -0.41414451257E+01  0.18879002346E+02  0.14144726680E+02  0.23950816065E+02  0.00000000000E+00 0. -1.
</event>
<event>
 7    1  0.1283194E-013  0.7246155E+02  0.7816164E-02  0.1226708E+00
        -11   -1    0    0    0    0  0.00000000000E+00  0.00000000000E+00  0.45593999997E+02  0.45594000000E+02  0.51100000000E-03 0.  1.
         11   -1    0    0    0    0 -0.00000000000E+00 -0.00000000000E+00 -0.45593999997E+02  0.45594000000E+02  0.51100000000E-03 0. -1.
    9900012    2    1    2    0    0 -0.92358025688E+01 -0.15973501953E+02  0.31979624549E+01  0.72461554059E+02  0.69999978850E+02 0.  0.
         12    1    1    2    0    0  0.92358025688E+01  0.15973501953E+02 -0.31979624549E+01  0.18726445941E+02  0.00000000000E+00 0. -1.
         11    1    3    3    0    0  0.17677742511E+02 -0.26208000176E+02  0.27674199577E+01  0.31733585788E+02  0.51100000000E-03 0. -1.
        -11    1    3    3    0    0  0.26144876475E+01  0.83968298061E+01 -0.57456805998E+01  0.10505005581E+02  0.51100000000E-03 0.  1.
         12    1    3    3    0    0 -0.29528032727E+02  0.18376684173E+01  0.61762230969E+01  0.30222962689E+02  0.00000000000E+00 0. -1.
</event>
<event>
 7    1  0.1283194E-013  0.7246158E+02  0.7816164E-02  0.1226708E+00
        -11   -1    0    0    0    0  0.00000000000E+00  0.00000000000E+00  0.45593999997E+02  0.45594000000E+02  0.51100000000E-03 0.  1.
         11   -1    0    0    0    0 -0.00000000000E+00 -0.00000000000E+00 -0.45593999997E+02  0.45594000000E+02  0.51100000000E-03 0. -1.
    9900012    2    1    2    0    0  0.33471862204E+00 -0.98632622885E+01  0.15914858837E+02  0.72461582529E+02  0.70000015937E+02 0.  0.
         12    1    1    2    0    0 -0.33471862204E+00  0.98632622885E+01 -0.15914858837E+02  0.18726417471E+02  0.00000000000E+00 0. -1.
         11    1    3    3    0    0 -0.10732028517E+01  0.10077892926E+02 -0.64751374698E+01  0.12026765804E+02  0.51100000000E-03 0. -1.
        -11    1    3    3    0    0 -0.58534678316E+00 -0.37055568516E+02  0.22205968904E+02  0.43203736460E+02  0.51100000000E-03 0.  1.
        -12    1    3    3    0    0  0.19932682569E+01  0.17114413302E+02  0.18402740222E+00  0.17231080265E+02  0.00000000000E+00 0.  1.
</event>
<event>
 7    1  0.1283194E-013  0.7246156E+02  0.7816164E-02  0.1226708E+00
        -11   -1    0    0    0    0  0.00000000000E+00  0.00000000000E+00  0.45593999997E+02  0.45594000000E+02  0.51100000000E-03 0.  1.
         11   -1    0    0    0    0 -0.00000000000E+00 -0.00000000000E+00 -0.45593999997E+02  0.45594000000E+02  0.51100000000E-03 0. -1.
    9900012    2    1    2    0    0  0.62564736257E+01 -0.14947874828E+02  0.93860108479E+01  0.72461558167E+02  0.69999984201E+02 0.  0.
         12    1    1    2    0    0 -0.62564736257E+01  0.14947874828E+02 -0.93860108479E+01  0.18726441833E+02  0.00000000000E+00 0. -1.
         11    1    3    3    0    0  0.13066703268E+02  0.23235168402E+02  0.12848328957E+01  0.26688247990E+02  0.51100000000E-03 0. -1.
        -11    1    3    3    0    0 -0.72270272179E+01 -0.19088010852E+02  0.15145694812E+02  0.25416021567E+02  0.51100000000E-03 0.  1.
         12    1    3    3    0    0  0.41679757577E+00 -0.19095032378E+02 -0.70445168596E+01  0.20357288610E+02  0.00000000000E+00 0. -1.
</event>
<event>
 7    1  0.1283194E-013  0.7246163E+02  0.7816164E-02  0.1226708E+00
        -11   -1    0    0    0    0  0.00000000000E+00  0.00000000000E+00  0.45593999997E+02  0.45594000000E+02  0.51100000000E-03 0. -1.
         11   -1    0    0    0    0 -0.00000000000E+00 -0.00000000000E+00 -0.45593999997E+02  0.45594000000E+02  0.51100000000E-03 0.  1.
    9900012    2    1    2    0    0 -0.16633262478E+02  0.77490841406E+00 -0.85680189632E+01  0.72461632155E+02  0.70000080586E+02 0.  0.
         12    1    1    2    0    0  0.16633262478E+02 -0.77490841406E+00  0.85680189632E+01  0.18726367845E+02  0.00000000000E+00 0. -1.
         11    1    3    3    0    0  0.11709412838E+02 -0.12816551844E+02  0.18412131957E+02  0.25305749419E+02  0.51100000000E-03 0. -1.
        -11    1    3    3    0    0 -0.97937894084E+01 -0.44983661360E+01 -0.15350311894E+02  0.18755950639E+02  0.51100000000E-03 0.  1.
         12    1    3    3    0    0 -0.18548885907E+02  0.18089826394E+02 -0.11629839027E+02  0.28399932098E+02  0.00000000000E+00 0. -1.
</event>
<event>
 7    1  0.1283194E-013  0.7246156E+02  0.7816164E-02  0.1226708E+00
        -11   -1    0    0    0    0  0.00000000000E+00  0.00000000000E+00  0.45593999997E+02  0.45594000000E+02  0.51100000000E-03 0.  1.
         11   -1    0    0    0    0 -0.00000000000E+00 -0.00000000000E+00 -0.45593999997E+02  0.45594000000E+02  0.51100000000E-03 0. -1.
    9900012    2    1    2    0    0 -0.85108169359E+01 -0.25581117038E+01  0.16483377621E+02  0.72461556713E+02  0.69999982307E+02 0.  0.
         12    1    1    2    0    0  0.85108169359E+01  0.25581117038E+01 -0.16483377621E+02  0.18726443287E+02  0.00000000000E+00 0. -1.
         11    1    3    3    0    0  0.17440441104E+02  0.12613983511E+02 -0.64938415455E+01  0.22482249536E+02  0.51100000000E-03 0. -1.
        -11    1    3    3    0    0 -0.26281850611E+02 -0.93848096650E+01  0.29933334367E+02  0.40924501592E+02  0.51100000000E-03 0.  1.
         12    1    3    3    0    0  0.33059257064E+00 -0.57872855498E+01 -0.69561152005E+01  0.90548055840E+01  0.00000000000E+00 0. -1.
</event>
<event>
 7    1  0.1283194E-013  0.7246160E+02  0.7816164E-02  0.1226708E+00
        -11   -1    0    0    0    0  0.00000000000E+00  0.00000000000E+00  0.45593999997E+02  0.45594000000E+02  0.51100000000E-03 0.  1.
         11   -1    0    0    0    0 -0.00000000000E+00 -0.00000000000E+00 -0.45593999997E+02  0.45594000000E+02  0.51100000000E-03 0. -1.
    9900012    2    1    2    0    0 -0.11490534635E+02  0.17811134485E+00  0.14785593399E+02  0.72461604671E+02  0.70000044782E+02 0.  0.
         12    1    1    2    0    0  0.11490534635E+02 -0.17811134485E+00 -0.14785593399E+02  0.18726395329E+02  0.00000000000E+00 0. -1.
         11    1    3    3    0    0  0.15418310019E+02 -0.16921392092E+01  0.15461128292E+02  0.21900550387E+02  0.51100000000E-03 0. -1.
        -11    1    3    3    0    0 -0.34467929111E+02 -0.35344686327E+01  0.10331314260E+02  0.36156142774E+02  0.51100000000E-03 0.  1.
        -12    1    3    3    0    0  0.75590844570E+01  0.54047191868E+01 -0.11006849152E+02  0.14404911509E+02  0.00000000000E+00 0.  1.
</event>
<event>
 7    1  0.1283194E-013  0.7246163E+02  0.7816164E-02  0.1226708E+00
        -11   -1    0    0    0    0  0.00000000000E+00  0.00000000000E+00  0.45593999997E+02  0.45594000000E+02  0.51100000000E-03 0.  1.
         11   -1    0    0    0    0 -0.00000000000E+00 -0.00000000000E+00 -0.45593999997E+02  0.45594000000E+02  0.51100000000E-03 0. -1.
    9900012    2    1    2    0    0  0.15368085720E+02 -0.67287344749E+01  0.83200335559E+01  0.72461631300E+02  0.70000079471E+02 0.  0.
         12    1    1    2    0    0 -0.15368085720E+02  0.67287344749E+01 -0.83200335559E+01  0.18726368700E+02  0.00000000000E+00 0. -1.
         11    1    3    3    0    0 -0.37079395060E+01  0.16395476527E+02 -0.17517549698E+02  0.24278076810E+02  0.51100000000E-03 0. -1.
        -11    1    3    3    0    0  0.87266083039E+01  0.54264595001E+01  0.72825574935E+01  0.12595070429E+02  0.51100000000E-03 0.  1.
         12    1    3    3    0    0  0.10349416922E+02 -0.28550670502E+02  0.18555025761E+02  0.35588484060E+02  0.00000000000E+00 0. -1.
</event>
<event>
 7    1  0.1283194E-013  0.7246158E+02  0.7816164E-02  0.1226708E+00
        -11   -1    0    0    0    0  0.00000000000E+00  0.00000000000E+00  0.45593999997E+02  0.45594000000E+02  0.51100000000E-03 0.  1.
         11   -1    0    0    0    0 -0.00000000000E+00 -0.00000000000E+00 -0.45593999997E+02  0.45594000000E+02  0.51100000000E-03 0. -1.
    9900012    2    1    2    0    0  0.12038268684E+02  0.99760948163E+01  0.10307111479E+02  0.72461576750E+02  0.70000008410E+02 0.  0.
         12    1    1    2    0    0 -0.12038268684E+02 -0.99760948163E+01 -0.10307111479E+02  0.18726423250E+02  0.00000000000E+00 0. -1.
         11    1    3    3    0    0  0.15749123019E+02  0.13044266515E+02  0.33819841300E+02  0.39521758951E+02  0.51100000000E-03 0.  1.
        -11    1    3    3    0    0 -0.38647664538E+01  0.70547846517E+01 -0.21029687133E+02  0.22515642282E+02  0.51100000000E-03 0. -1.
        -12    1    3    3    0    0  0.15391211907E+00 -0.10122956350E+02 -0.24830426885E+01  0.10424175516E+02  0.00000000000E+00 0.  1.
</event>
<event>
 7    1  0.1283194E-013  0.7246156E+02  0.7816164E-02  0.1226708E+00
        -11   -1    0    0    0    0  0.00000000000E+00  0.00000000000E+00  0.45593999997E+02  0.45594000000E+02  0.51100000000E-03 0.  1.
         11   -1    0    0    0    0 -0.00000000000E+00 -0.00000000000E+00 -0.45593999997E+02  0.45594000000E+02  0.51100000000E-03 0. -1.
    9900012    2    1    2    0    0 -0.10107190138E+02  0.15751368198E+02 -0.64704316669E+00  0.72461559937E+02  0.69999986507E+02 0.  0.
         12    1    1    2    0    0  0.10107190138E+02 -0.15751368198E+02  0.64704316669E+00  0.18726440063E+02  0.00000000000E+00 0. -1.
         11    1    3    3    0    0 -0.36420380057E+02  0.11090785307E+01 -0.97407087424E+01  0.37716780691E+02  0.51100000000E-03 0. -1.
        -11    1    3    3    0    0  0.20321809972E+02  0.72769147414E+01  0.12150631642E+02  0.24770290637E+02  0.51100000000E-03 0.  1.
         12    1    3    3    0    0  0.59913799468E+01  0.73653749257E+01 -0.30569660664E+01  0.99744886082E+01  0.00000000000E+00 0. -1.
</event>
<event>
 7    1  0.1283194E-013  0.7246159E+02  0.7816164E-02  0.1226708E+00
        -11   -1    0    0    0    0  0.00000000000E+00  0.00000000000E+00  0.45593999997E+02  0.45594000000E+02  0.51100000000E-03 0.  1.
         11   -1    0    0    0    0 -0.00000000000E+00 -0.00000000000E+00 -0.45593999997E+02  0.45594000000E+02  0.51100000000E-03 0. -1.
    9900012    2    1    2    0    0 -0.18153686206E+02  0.11879051523E+01 -0.44397263770E+01  0.72461585185E+02  0.70000019398E+02 0.  0.
         12    1    1    2    0    0  0.18153686206E+02 -0.11879051523E+01  0.44397263770E+01  0.18726414815E+02  0.00000000000E+00 0. -1.
         11    1    3    3    0    0 -0.94287448988E+01  0.27374831302E+02  0.85107068702E+01  0.30178050813E+02  0.51100000000E-03 0. -1.
        -11    1    3    3    0    0 -0.10524500656E+01 -0.11464579530E+02  0.91050742223E+01  0.14678099734E+02  0.51100000000E-03 0.  1.
         12    1    3    3    0    0 -0.76724912416E+01 -0.14722346619E+02 -0.22055507469E+02  0.27605434638E+02  0.00000000000E+00 0. -1.
</event>
<event>
 7    1  0.1283194E-013  0.7246162E+02  0.7816164E-02  0.1226708E+00
        -11   -1    0    0    0    0  0.00000000000E+00  0.00000000000E+00  0.45593999997E+02  0.45594000000E+02  0.51100000000E-03 0. -1.
         11   -1    0    0    0    0 -0.00000000000E+00 -0.00000000000E+00 -0.45593999997E+02  0.45594000000E+02  0.51100000000E-03 0.  1.
    9900012    2    1    2    0    0 -0.13113392210E+02 -0.13125100913E+02 -0.25392514570E+01  0.72461624825E+02  0.70000071036E+02 0.  0.
         12    1    1    2    0    0  0.13113392210E+02  0.13125100913E+02  0.25392514570E+01  0.18726375175E+02  0.00000000000E+00 0. -1.
         11    1    3    3    0    0 -0.33962725423E+02 -0.61826004743E+01  0.11563755866E+02  0.36406204372E+02  0.51100000000E-03 0. -1.
        -11    1    3    3    0    0  0.22584584142E+01  0.81043669795E+01 -0.74312083894E+01  0.11225161778E+02  0.51100000000E-03 0.  1.
         12    1    3    3    0    0  0.18590874798E+02 -0.15046867418E+02 -0.66717989338E+01  0.24830258675E+02  0.00000000000E+00 0. -1.
</event>
<event>
 7    1  0.1283194E-013  0.7246167E+02  0.7816164E-02  0.1226708E+00
        -11   -1    0    0    0    0  0.00000000000E+00  0.00000000000E+00  0.45593999997E+02  0.45594000000E+02  0.51100000000E-03 0. -1.
         11   -1    0    0    0    0 -0.00000000000E+00 -0.00000000000E+00 -0.45593999997E+02  0.45594000000E+02  0.51100000000E-03 0.  1.
    9900012    2    1    2    0    0 -0.15045908284E+02 -0.35326406440E+01  0.10574338545E+02  0.72461667158E+02  0.70000126183E+02 0.  0.
         12    1    1    2    0    0  0.15045908284E+02  0.35326406440E+01 -0.10574338545E+02  0.18726332842E+02  0.00000000000E+00 0. -1.
         11    1    3    3    0    0 -0.23444404385E+02  0.19283373305E+02  0.21487960621E+02  0.37191679646E+02  0.51100000000E-03 0. -1.
        -11    1    3    3    0    0  0.31249621542E+01  0.20351560839E+01 -0.90604907883E+01  0.97979458223E+01  0.51100000000E-03 0.  1.
         12    1    3    3    0    0  0.52735339463E+01 -0.24851170033E+02 -0.18531312872E+01  0.25472041690E+02  0.00000000000E+00 0. -1.
</event>
<event>
 7    1  0.1283194E-013  0.7246172E+02  0.7816164E-02  0.1226708E+00
        -11   -1    0    0    0    0  0.00000000000E+00  0.00000000000E+00  0.45593999997E+02  0.45594000000E+02  0.51100000000E-03 0.  1.
         11   -1    0    0    0    0 -0.00000000000E+00 -0.00000000000E+00 -0.45593999997E+02  0.45594000000E+02  0.51100000000E-03 0. -1.
    9900012    2    1    2    0    0  0.85181248415E+00  0.63370579882E+01  0.17600844500E+02  0.72461718586E+02  0.70000193178E+02 0.  0.
         12    1    1    2    0    0 -0.85181248415E+00 -0.63370579882E+01 -0.17600844500E+02  0.18726281414E+02  0.00000000000E+00 0. -1.
         11    1    3    3    0    0  0.92833642169E+01  0.70901994722E+01 -0.40593597922E+01  0.12366494326E+02  0.51100000000E-03 0. -1.
        -11    1    3    3    0    0 -0.16007416463E+02  0.10686804684E+02  0.35641220863E+02  0.40506071163E+02  0.51100000000E-03 0.  1.
        -12    1    3    3    0    0  0.75758647305E+01 -0.11439946168E+02 -0.13981016570E+02  0.19589153098E+02  0.00000000000E+00 0.  1.
</event>
<event>
 7    1  0.1283194E-013  0.7246163E+02  0.7816164E-02  0.1226708E+00
        -11   -1    0    0    0    0  0.00000000000E+00  0.00000000000E+00  0.45593999997E+02  0.45594000000E+02  0.51100000000E-03 0.  1.
         11   -1    0    0    0    0 -0.00000000000E+00 -0.00000000000E+00 -0.45593999997E+02  0.45594000000E+02  0.51100000000E-03 0. -1.
    9900012    2    1    2    0    0 -0.13084203428E+02  0.13262557763E+02 -0.18934130598E+01  0.72461632739E+02  0.70000081346E+02 0.  0.
         12    1    1    2    0    0  0.13084203428E+02 -0.13262557763E+02  0.18934130598E+01  0.18726367261E+02  0.00000000000E+00 0. -1.
         11    1    3    3    0    0  0.85741316697E+01  0.16277455300E+02 -0.15988514542E+02  0.24374246295E+02  0.51100000000E-03 0. -1.
        -11    1    3    3    0    0 -0.18344747246E+02  0.17155290335E+02  0.10977019044E+02  0.27410375506E+02  0.51100000000E-03 0.  1.
         12    1    3    3    0    0 -0.33135878512E+01 -0.20170187872E+02  0.31180824376E+01  0.20677010938E+02  0.00000000000E+00 0. -1.
</event>
<event>
 7    1  0.1283194E-013  0.7246155E+02  0.7816164E-02  0.1226708E+00
        -11   -1    0    0    0    0  0.00000000000E+00  0.00000000000E+00  0.45593999997E+02  0.45594000000E+02  0.51100000000E-03 0.  1.
         11   -1    0    0    0    0 -0.00000000000E+00 -0.00000000000E+00 -0.45593999997E+02  0.45594000000E+02  0.51100000000E-03 0. -1.
    9900012    2    1    2    0    0  0.17606578408E+02  0.61397072022E+01 -0.17298175171E+01  0.72461551421E+02  0.69999975413E+02 0.  0.
         12    1    1    2    0    0 -0.17606578408E+02 -0.61397072022E+01  0.17298175171E+01  0.18726448579E+02  0.00000000000E+00 0. -1.
         11    1    3    3    0    0  0.59871101001E+01  0.11319894162E+01 -0.14295002221E+02  0.15539432942E+02  0.51100000000E-03 0. -1.
        -11    1    3    3    0    0  0.78493944415E+01  0.36212359296E+01  0.34016623014E+02  0.35097820221E+02  0.51100000000E-03 0.  1.
        -12    1    3    3    0    0  0.37700738662E+01  0.13864818564E+01 -0.21451438309E+02  0.21824298257E+02  0.00000000000E+00 0.  1.
</event>
<event>
 7    1  0.1283194E-013  0.7246155E+02  0.7816164E-02  0.1226708E+00
        -11   -1    0    0    0    0  0.00000000000E+00  0.00000000000E+00  0.45593999997E+02  0.45594000000E+02  0.51100000000E-03 0.  1.
         11   -1    0    0    0    0 -0.00000000000E+00 -0.00000000000E+00 -0.45593999997E+02  0.45594000000E+02  0.51100000000E-03 0. -1.
    9900012    2    1    2    0    0  0.18106590431E+02 -0.34227114906E+00  0.47659222197E+01  0.72461553963E+02  0.69999978725E+02 0.  0.
         12    1    1    2    0    0 -0.18106590431E+02  0.34227114906E+00 -0.47659222197E+01  0.18726446037E+02  0.00000000000E+00 0. -1.
         11    1    3    3    0    0  0.15137013230E+02 -0.13396643434E+02  0.28462819565E+02  0.34910332607E+02  0.51100000000E-03 0. -1.
        -11    1    3    3    0    0  0.96022089298E+01  0.13733790997E+02 -0.46792597664E+01  0.17398704081E+02  0.51100000000E-03 0.  1.
         12    1    3    3    0    0 -0.66326317287E+01 -0.67941871202E+00 -0.19017637579E+02  0.20152517275E+02  0.00000000000E+00 0. -1.
</event>
<event>
 7    1  0.1283194E-013  0.7246153E+02  0.7816164E-02  0.1226708E+00
        -11   -1    0    0    0    0  0.00000000000E+00  0.00000000000E+00  0.45593999997E+02  0.45594000000E+02  0.51100000000E-03 0.  1.
         11   -1    0    0    0    0 -0.00000000000E+00 -0.00000000000E+00 -0.45593999997E+02  0.45594000000E+02  0.51100000000E-03 0. -1.
    9900012    2    1    2    0    0 -0.25731808938E+01 -0.12130704288E+02  0.14032303438E+02  0.72461527128E+02  0.69999943768E+02 0.  0.
         12    1    1    2    0    0  0.25731808938E+01  0.12130704288E+02 -0.14032303438E+02  0.18726472872E+02  0.00000000000E+00 0. -1.
         11    1    3    3    0    0  0.23985380207E+02  0.39985084597E+01  0.35112163312E+01  0.24568581033E+02  0.51100000000E-03 0. -1.
        -11    1    3    3    0    0 -0.20330168692E+02 -0.10709580645E+02  0.23270556906E+02  0.32703664865E+02  0.51100000000E-03 0.  1.
         12    1    3    3    0    0 -0.62283924089E+01 -0.54196321025E+01 -0.12749469799E+02  0.15189281230E+02  0.00000000000E+00 0. -1.
</event>
<event>
 7    1  0.1283194E-013  0.7246164E+02  0.7816164E-02  0.1226708E+00
        -11   -1    0    0    0    0  0.00000000000E+00  0.00000000000E+00  0.45593999997E+02  0.45594000000E+02  0.51100000000E-03 0. -1.
         11   -1    0    0    0    0 -0.00000000000E+00 -0.00000000000E+00 -0.45593999997E+02  0.45594000000E+02  0.51100000000E-03 0.  1.
    9900012    2    1    2    0    0 -0.55940984350E+01 -0.42777020992E+01 -0.17351773020E+02  0.72461636245E+02  0.70000085912E+02 0.  0.
         12    1    1    2    0    0  0.55940984350E+01  0.42777020992E+01  0.17351773020E+02  0.18726363755E+02  0.00000000000E+00 0. -1.
         11    1    3    3    0    0  0.10411113058E+02  0.14483724931E+02 -0.24990994703E+02  0.30703735595E+02  0.51100000000E-03 0. -1.
        -11    1    3    3    0    0 -0.19864932147E+02 -0.10081016985E+02  0.17302740373E+02  0.28206865429E+02  0.51100000000E-03 0.  1.
        -12    1    3    3    0    0  0.38597206533E+01 -0.86804100455E+01 -0.96635186905E+01  0.13551035221E+02  0.00000000000E+00 0.  1.
</event>
<event>
 7    1  0.1283194E-013  0.7246171E+02  0.7816164E-02  0.1226708E+00
        -11   -1    0    0    0    0  0.00000000000E+00  0.00000000000E+00  0.45593999997E+02  0.45594000000E+02  0.51100000000E-03 0.  1.
         11   -1    0    0    0    0 -0.00000000000E+00 -0.00000000000E+00 -0.45593999997E+02  0.45594000000E+02  0.51100000000E-03 0. -1.
    9900012    2    1    2    0    0  0.16277071164E+02  0.32967305346E+01 -0.86523089905E+01  0.72461710224E+02  0.70000182285E+02 0.  0.
         12    1    1    2    0    0 -0.16277071164E+02 -0.32967305346E+01  0.86523089905E+01  0.18726289776E+02  0.00000000000E+00 0. -1.
         11    1    3    3    0    0  0.14650661535E+02  0.89148214203E+01 -0.16692893276E+02  0.23932584703E+02  0.51100000000E-03 0. -1.
        -11    1    3    3    0    0 -0.99704914019E+01 -0.23912456532E+02  0.70323234132E+01  0.26845294728E+02  0.51100000000E-03 0.  1.
        -12    1    3    3    0    0  0.11596901030E+02  0.18294365646E+02  0.10082608727E+01  0.21683830794E+02  0.00000000000E+00 0.  1.
</event>
<event>
 7    1  0.1283194E-013  0.7246161E+02  0.7816164E-02  0.1226708E+00
        -11   -1    0    0    0    0  0.00000000000E+00  0.00000000000E+00  0.45593999997E+02  0.45594000000E+02  0.51100000000E-03 0.  1.
         11   -1    0    0    0    0 -0.00000000000E+00 -0.00000000000E+00 -0.45593999997E+02  0.45594000000E+02  0.51100000000E-03 0. -1.
    9900012    2    1    2    0    0 -0.14362081722E+02 -0.11483220449E+02  0.35417437052E+01  0.72461609751E+02  0.70000051399E+02 0.  0.
         12    1    1    2    0    0  0.14362081722E+02  0.11483220449E+02 -0.35417437052E+01  0.18726390249E+02  0.00000000000E+00 0. -1.
         11    1    3    3    0    0 -0.16552457485E+01  0.17909583885E+02 -0.18995402092E+02  0.26159478861E+02  0.51100000000E-03 0. -1.
        -11    1    3    3    0    0 -0.60154960823E+01 -0.31720663391E+02  0.13953209713E+02  0.35172130170E+02  0.51100000000E-03 0.  1.
         12    1    3    3    0    0 -0.66913398917E+01  0.23278590575E+01  0.85839360837E+01  0.11130000720E+02  0.00000000000E+00 0. -1.
</event>
<event>
 7    1  0.1283194E-013  0.7246158E+02  0.7816164E-02  0.1226708E+00
        -11   -1    0    0    0    0  0.00000000000E+00  0.00000000000E+00  0.45593999997E+02  0.45594000000E+02  0.51100000000E-03 0.  1.
         11   -1    0    0    0    0 -0.00000000000E+00 -0.00000000000E+00 -0.45593999997E+02  0.45594000000E+02  0.51100000000E-03 0. -1.
    9900012    2    1    2    0    0 -0.63372016558E+01 -0.23013535924E+01  0.17470617879E+02  0.72461579032E+02  0.70000011383E+02 0.  0.
         12    1    1    2    0    0  0.63372016558E+01  0.23013535924E+01 -0.17470617879E+02  0.18726420968E+02  0.00000000000E+00 0. -1.
         11    1    3    3    0    0  0.18139196284E+00 -0.24663859640E+02 -0.25811975365E+01  0.24799222899E+02  0.51100000000E-03 0. -1.
        -11    1    3    3    0    0 -0.44445773333E+01  0.30604928003E+02  0.23134200227E+02  0.38621329678E+02  0.51100000000E-03 0.  1.
        -12    1    3    3    0    0 -0.20740162854E+01 -0.82424219548E+01 -0.30823848115E+01  0.90410264549E+01  0.00000000000E+00 0.  1.
</event>
<event>
 7    1  0.1283194E-013  0.7246161E+02  0.7816164E-02  0.1226708E+00
        -11   -1    0    0    0    0  0.00000000000E+00  0.00000000000E+00  0.45593999997E+02  0.45594000000E+02  0.51100000000E-03 0.  1.
         11   -1    0    0    0    0 -0.00000000000E+00 -0.00000000000E+00 -0.45593999997E+02  0.45594000000E+02  0.51100000000E-03 0. -1.
    9900012    2    1    2    0    0  0.98949230356E+01 -0.87447994005E+01  0.13277675962E+02  0.72461609601E+02  0.70000051204E+02 0.  0.
         12    1    1    2    0    0 -0.98949230356E+01  0.87447994005E+01 -0.13277675962E+02  0.18726390399E+02  0.00000000000E+00 0. -1.
         11    1    3    3    0    0  0.20922708493E+02  0.18613252594E+02  0.20296207793E+02  0.34585386421E+02  0.51100000000E-03 0. -1.
        -11    1    3    3    0    0 -0.96057724266E+01 -0.19887105064E+02 -0.15119348758E+02  0.26764949446E+02  0.51100000000E-03 0.  1.
        -12    1    3    3    0    0 -0.14220130311E+01 -0.74709469309E+01  0.81008169267E+01  0.11111273734E+02  0.00000000000E+00 0.  1.
</event>
<event>
 7    1  0.1283194E-013  0.7246157E+02  0.7816164E-02  0.1226708E+00
        -11   -1    0    0    0    0  0.00000000000E+00  0.00000000000E+00  0.45593999997E+02  0.45594000000E+02  0.51100000000E-03 0.  1.
         11   -1    0    0    0    0 -0.00000000000E+00 -0.00000000000E+00 -0.45593999997E+02  0.45594000000E+02  0.51100000000E-03 0. -1.
    9900012    2    1    2    0    0 -0.17642930694E+02  0.18247552995E+01  0.60063593524E+01  0.72461572469E+02  0.70000002833E+02 0.  0.
         12    1    1    2    0    0  0.17642930694E+02 -0.18247552995E+01 -0.60063593524E+01  0.18726427531E+02  0.00000000000E+00 0. -1.
         11    1    3    3    0    0  0.79520517478E+01 -0.85424346740E+01  0.14851343222E+02  0.18888375074E+02  0.51100000000E-03 0.  1.
        -11    1    3    3    0    0 -0.37374339809E+02  0.72731433547E+01 -0.13695847685E+02  0.40463763227E+02  0.51100000000E-03 0. -1.
         12    1    3    3    0    0  0.11779357367E+02  0.30940466187E+01  0.48508638145E+01  0.13109434168E+02  0.00000000000E+00 0. -1.
</event>
<event>
 7    1  0.1283194E-013  0.7246162E+02  0.7816164E-02  0.1226708E+00
        -11   -1    0    0    0    0  0.00000000000E+00  0.00000000000E+00  0.45593999997E+02  0.45594000000E+02  0.51100000000E-03 0.  1.
         11   -1    0    0    0    0 -0.00000000000E+00 -0.00000000000E+00 -0.45593999997E+02  0.45594000000E+02  0.51100000000E-03 0. -1.
    9900012    2    1    2    0    0 -0.84829908271E+01 -0.13121807922E+02  0.10321542312E+02  0.72461622555E+02  0.70000068079E+02 0.  0.
         12    1    1    2    0    0  0.84829908271E+01  0.13121807922E+02 -0.10321542312E+02  0.18726377445E+02  0.00000000000E+00 0. -1.
         11    1    3    3    0    0 -0.89518102957E+01  0.14338409595E+02  0.20790910018E+01  0.17030781454E+02  0.51100000000E-03 0. -1.
        -11    1    3    3    0    0  0.75400958956E+01 -0.38494551105E+02  0.13246449213E+02  0.41402317905E+02  0.51100000000E-03 0.  1.
        -12    1    3    3    0    0 -0.70712764270E+01  0.11034333588E+02 -0.50039979026E+01  0.14028523196E+02  0.00000000000E+00 0.  1.
</event>
<event>
 7    1  0.1283194E-013  0.7246163E+02  0.7816164E-02  0.1226708E+00
        -11   -1    0    0    0    0  0.00000000000E+00  0.00000000000E+00  0.45593999997E+02  0.45594000000E+02  0.51100000000E-03 0.  1.
         11   -1    0    0    0    0 -0.00000000000E+00 -0.00000000000E+00 -0.45593999997E+02  0.45594000000E+02  0.51100000000E-03 0. -1.
    9900012    2    1    2    0    0 -0.41418078863E+01 -0.64579661660E+01 -0.17082652041E+02  0.72461630883E+02  0.70000078928E+02 0.  0.
         12    1    1    2    0    0  0.41418078863E+01  0.64579661660E+01  0.17082652041E+02  0.18726369117E+02  0.00000000000E+00 0. -1.
         11    1    3    3    0    0  0.14530338222E+02 -0.39609304490E+01 -0.68674267938E+01  0.16552378980E+02  0.51100000000E-03 0. -1.
        -11    1    3    3    0    0 -0.20876413833E+02  0.21785749893E+02 -0.22447396772E+01  0.30256939855E+02  0.51100000000E-03 0.  1.
        -12    1    3    3    0    0  0.22042677245E+01 -0.24282785610E+02 -0.79704855696E+01  0.25652312048E+02  0.00000000000E+00 0.  1.
</event>
<event>
 7    1  0.1283194E-013  0.7246160E+02  0.7816164E-02  0.1226708E+00
        -11   -1    0    0    0    0  0.00000000000E+00  0.00000000000E+00  0.45593999997E+02  0.45594000000E+02  0.51100000000E-03 0.  1.
         11   -1    0    0    0    0 -0.00000000000E+00 -0.00000000000E+00 -0.45593999997E+02  0.45594000000E+02  0.51100000000E-03 0. -1.
    9900012    2    1    2    0    0 -0.49086112827E+01  0.15204330459E+02  0.97678990520E+01  0.72461602019E+02  0.70000041328E+02 0.  0.
         12    1    1    2    0    0  0.49086112827E+01 -0.15204330459E+02 -0.97678990520E+01  0.18726397981E+02  0.00000000000E+00 0. -1.
         11    1    3    3    0    0  0.32361080849E+01  0.27689149932E+02 -0.16631446013E+02  0.32461768533E+02  0.51100000000E-03 0. -1.
        -11    1    3    3    0    0 -0.14973471188E+02 -0.13272859018E+02  0.10322516904E+02  0.22515061213E+02  0.51100000000E-03 0.  1.
        -12    1    3    3    0    0  0.68287518202E+01  0.78803954495E+00  0.16076828161E+02  0.17484772274E+02  0.00000000000E+00 0.  1.
</event>
<event>
 7    1  0.1283194E-013  0.7246159E+02  0.7816164E-02  0.1226708E+00
        -11   -1    0    0    0    0  0.00000000000E+00  0.00000000000E+00  0.45593999997E+02  0.45594000000E+02  0.51100000000E-03 0.  1.
         11   -1    0    0    0    0 -0.00000000000E+00 -0.00000000000E+00 -0.45593999997E+02  0.45594000000E+02  0.51100000000E-03 0. -1.
    9900012    2    1    2    0    0  0.17041922694E+02  0.96081860008E-01 -0.77615780774E+01  0.72461589370E+02  0.70000024849E+02 0.  0.
         12    1    1    2    0    0 -0.17041922694E+02 -0.96081860008E-01  0.77615780774E+01  0.18726410630E+02  0.00000000000E+00 0. -1.
         11    1    3    3    0    0  0.12889801945E+02 -0.43676343714E+01 -0.29044544673E+02  0.32075049488E+02  0.51100000000E-03 0. -1.
        -11    1    3    3    0    0  0.27831372143E+01  0.15332511744E+02  0.24440683714E+02  0.28985837745E+02  0.51100000000E-03 0.  1.
         12    1    3    3    0    0  0.13689835354E+01 -0.10868795512E+02 -0.31577171185E+01  0.11400702137E+02  0.00000000000E+00 0. -1.
</event>
<event>
 7    1  0.1283194E-013  0.7246157E+02  0.7816164E-02  0.1226708E+00
        -11   -1    0    0    0    0  0.00000000000E+00  0.00000000000E+00  0.45593999997E+02  0.45594000000E+02  0.51100000000E-03 0. -1.
         11   -1    0    0    0    0 -0.00000000000E+00 -0.00000000000E+00 -0.45593999997E+02  0.45594000000E+02  0.51100000000E-03 0.  1.
    9900012    2    1    2    0    0  0.23884364122E+01  0.26815082181E+01 -0.18378903109E+02  0.72461569632E+02  0.69999999137E+02 0.  0.
         12    1    1    2    0    0 -0.23884364122E+01 -0.26815082181E+01  0.18378903109E+02  0.18726430368E+02  0.00000000000E+00 0. -1.
         11    1    3    3    0    0 -0.69485969538E+01  0.27081022812E+02  0.60261753469E+01  0.28600342406E+02  0.51100000000E-03 0. -1.
        -11    1    3    3    0    0  0.93117271835E+01 -0.29579387662E+02 -0.18967321543E+02  0.36351172256E+02  0.51100000000E-03 0.  1.
        -12    1    3    3    0    0  0.25306182465E-01  0.51798730687E+01 -0.54377569132E+01  0.75100549703E+01  0.00000000000E+00 0.  1.
</event>
<event>
 8    1  0.1283194E-013  0.7246169E+02  0.7816164E-02  0.1226708E+00
        -11   -1    0    0    0    0  0.00000000000E+00  0.00000000000E+00  0.45593999997E+02  0.45594000000E+02  0.51100000000E-03 0.  1.
         11   -1    0    0    0    0 -0.00000000000E+00 -0.00000000000E+00 -0.45593999997E+02  0.45594000000E+02  0.51100000000E-03 0. -1.
    9900012    2    1    2    0    0 -0.13820663893E+02 -0.60089440449E+01  0.11115601967E+02  0.72461687868E+02  0.70000153161E+02 0.  0.
         24    2    3    3    0    0 -0.22415901944E+02 -0.13858815092E+02 -0.12801044438E+00  0.56277825136E+02  0.49725625181E+02 0.  0.
         12    1    1    2    0    0  0.13820663893E+02  0.60089440449E+01 -0.11115601967E+02  0.18726312132E+02  0.00000000000E+00 0. -1.
         11    1    3    3    0    0  0.85952380515E+01  0.78498710469E+01  0.11243612411E+02  0.16183862732E+02  0.51100000000E-03 0.  1.
        -11    1    4    4    0    0 -0.28830914314E+02  0.78938795685E+01 -0.10032174323E+02  0.31530611741E+02  0.51100000000E-03 0. -1.
         12    1    4    4    0    0  0.64150123696E+01 -0.21752694660E+02  0.99041638791E+01  0.24747213395E+02  0.00000000000E+00 0. -1.
</event>
<event>
 7    1  0.1283194E-013  0.7246156E+02  0.7816164E-02  0.1226708E+00
        -11   -1    0    0    0    0  0.00000000000E+00  0.00000000000E+00  0.45593999997E+02  0.45594000000E+02  0.51100000000E-03 0. -1.
         11   -1    0    0    0    0 -0.00000000000E+00 -0.00000000000E+00 -0.45593999997E+02  0.45594000000E+02  0.51100000000E-03 0.  1.
    9900012    2    1    2    0    0 -0.73498242132E+00 -0.14220254302E+02 -0.12162382337E+02  0.72461564790E+02  0.69999992830E+02 0.  0.
         12    1    1    2    0    0  0.73498242132E+00  0.14220254302E+02  0.12162382337E+02  0.18726435210E+02  0.00000000000E+00 0. -1.
         11    1    3    3    0    0  0.18910346981E+02  0.13244083603E+01  0.10463372480E+02  0.21652654442E+02  0.51100000000E-03 0. -1.
        -11    1    3    3    0    0 -0.29550142814E+02 -0.18389760994E+02 -0.20124591485E+02  0.40204395685E+02  0.51100000000E-03 0.  1.
        -12    1    3    3    0    0  0.99048134116E+01  0.28450983315E+01 -0.25011633320E+01  0.10604514663E+02  0.00000000000E+00 0.  1.
</event>
<event>
 7    1  0.1283194E-013  0.7246161E+02  0.7816164E-02  0.1226708E+00
        -11   -1    0    0    0    0  0.00000000000E+00  0.00000000000E+00  0.45593999997E+02  0.45594000000E+02  0.51100000000E-03 0. -1.
         11   -1    0    0    0    0 -0.00000000000E+00 -0.00000000000E+00 -0.45593999997E+02  0.45594000000E+02  0.51100000000E-03 0.  1.
    9900012    2    1    2    0    0  0.18290146299E+02  0.22238393288E+01 -0.33470341233E+01  0.72461613525E+02  0.70000056316E+02 0.  0.
         12    1    1    2    0    0 -0.18290146299E+02 -0.22238393288E+01  0.33470341233E+01  0.18726386475E+02  0.00000000000E+00 0. -1.
         11    1    3    3    0    0  0.21797199687E+02 -0.27963890366E+02 -0.71368888282E+01  0.36166728646E+02  0.51100000000E-03 0. -1.
        -11    1    3    3    0    0 -0.20184475328E+01  0.25981190759E+02  0.10616678741E+02  0.28139123502E+02  0.51100000000E-03 0.  1.
        -12    1    3    3    0    0 -0.14886058550E+01  0.42065389358E+01 -0.68268240365E+01  0.81557613768E+01  0.00000000000E+00 0.  1.
</event>
<event>
 7    1  0.1283194E-013  0.7246169E+02  0.7816164E-02  0.1226708E+00
        -11   -1    0    0    0    0  0.00000000000E+00  0.00000000000E+00  0.45593999997E+02  0.45594000000E+02  0.51100000000E-03 0. -1.
         11   -1    0    0    0    0 -0.00000000000E+00 -0.00000000000E+00 -0.45593999997E+02  0.45594000000E+02  0.51100000000E-03 0.  1.
    9900012    2    1    2    0    0 -0.10197203458E+02  0.19322562983E+01 -0.15587109319E+02  0.72461693646E+02  0.70000160688E+02 0.  0.
         12    1    1    2    0    0  0.10197203458E+02 -0.19322562983E+01  0.15587109319E+02  0.18726306354E+02  0.00000000000E+00 0. -1.
         11    1    3    3    0    0 -0.27931749501E+01  0.16262445673E+02  0.12937232203E+02  0.20967616529E+02  0.51100000000E-03 0.  1.
        -11    1    3    3    0    0 -0.13177679939E+02 -0.19285182570E+02 -0.34607916441E+02  0.41752573525E+02  0.51100000000E-03 0. -1.
         12    1    3    3    0    0  0.57736514313E+01  0.49549931957E+01  0.60835749189E+01  0.97415035910E+01  0.00000000000E+00 0. -1.
</event>
<event>
 7    1  0.1283194E-013  0.7246157E+02  0.7816164E-02  0.1226708E+00
        -11   -1    0    0    0    0  0.00000000000E+00  0.00000000000E+00  0.45593999997E+02  0.45594000000E+02  0.51100000000E-03 0. -1.
         11   -1    0    0    0    0 -0.00000000000E+00 -0.00000000000E+00 -0.45593999997E+02  0.45594000000E+02  0.51100000000E-03 0.  1.
    9900012    2    1    2    0    0 -0.83379899392E+00  0.10638963995E+02 -0.15388184617E+02  0.72461574782E+02  0.70000005847E+02 0.  0.
         12    1    1    2    0    0  0.83379899392E+00 -0.10638963995E+02  0.15388184617E+02  0.18726425218E+02  0.00000000000E+00 0. -1.
         11    1    3    3    0    0  0.18800128329E+02 -0.60399564795E+01  0.73028455801E+00  0.19760040871E+02  0.51100000000E-03 0. -1.
        -11    1    3    3    0    0 -0.21727768653E+02 -0.51889868847E+01  0.42550147984E+01  0.22740419229E+02  0.51100000000E-03 0.  1.
        -12    1    3    3    0    0  0.20938413305E+01  0.21867907359E+02 -0.20373483973E+02  0.29961114682E+02  0.00000000000E+00 0.  1.
</event>
<event>
 7    1  0.1283194E-013  0.7246159E+02  0.7816164E-02  0.1226708E+00
        -11   -1    0    0    0    0  0.00000000000E+00  0.00000000000E+00  0.45593999997E+02  0.45594000000E+02  0.51100000000E-03 0.  1.
         11   -1    0    0    0    0 -0.00000000000E+00 -0.00000000000E+00 -0.45593999997E+02  0.45594000000E+02  0.51100000000E-03 0. -1.
    9900012    2    1    2    0    0  0.12996335490E+02 -0.30898611643E+01  0.13123503774E+02  0.72461592723E+02  0.70000029218E+02 0.  0.
         12    1    1    2    0    0 -0.12996335490E+02  0.30898611643E+01 -0.13123503774E+02  0.18726407277E+02  0.00000000000E+00 0. -1.
         11    1    3    3    0    0 -0.68858421496E+01 -0.65962745552E+01 -0.91819056922E+01  0.13237562182E+02  0.51100000000E-03 0. -1.
        -11    1    3    3    0    0  0.21964113301E+02  0.14731217922E+02  0.33871073098E+02  0.42973022324E+02  0.51100000000E-03 0.  1.
        -12    1    3    3    0    0 -0.20819356618E+01 -0.11224804531E+02 -0.11565663631E+02  0.16251008218E+02  0.00000000000E+00 0.  1.
</event>
<event>
 7    1  0.1283194E-013  0.7246221E+02  0.7816164E-02  0.1226706E+00
        -11   -1    0    0    0    0  0.00000000000E+00  0.00000000000E+00  0.45593999997E+02  0.45594000000E+02  0.51100000000E-03 0. -1.
         11   -1    0    0    0    0 -0.00000000000E+00 -0.00000000000E+00 -0.45593999997E+02  0.45594000000E+02  0.51100000000E-03 0.  1.
    9900012    2    1    2    0    0 -0.17909122609E+02  0.45169013608E+01 -0.30848206667E+01  0.72462210589E+02  0.70000834098E+02 0.  0.
         12    1    1    2    0    0  0.17909122609E+02 -0.45169013608E+01  0.30848206667E+01  0.18725789411E+02  0.00000000000E+00 0. -1.
         11    1    3    3    0    0 -0.78230243952E+01  0.95122188367E+01 -0.46265784805E+01  0.13156262637E+02  0.51100000000E-03 0. -1.
        -11    1    3    3    0    0  0.37748256173E+01 -0.26579411780E+02  0.14559837487E+02  0.30540191665E+02  0.51100000000E-03 0.  1.
        -12    1    3    3    0    0 -0.13860923831E+02  0.21584094304E+02 -0.13018079674E+02  0.28765756287E+02  0.00000000000E+00 0.  1.
</event>
<event>
 7    1  0.1283194E-013  0.7246152E+02  0.7816164E-02  0.1226708E+00
        -11   -1    0    0    0    0  0.00000000000E+00  0.00000000000E+00  0.45593999997E+02  0.45594000000E+02  0.51100000000E-03 0. -1.
         11   -1    0    0    0    0 -0.00000000000E+00 -0.00000000000E+00 -0.45593999997E+02  0.45594000000E+02  0.51100000000E-03 0.  1.
    9900012    2    1    2    0    0 -0.15110340652E+02  0.47733389436E+01 -0.99786731350E+01  0.72461519369E+02  0.69999933660E+02 0.  0.
         12    1    1    2    0    0  0.15110340652E+02 -0.47733389436E+01  0.99786731350E+01  0.18726480631E+02  0.00000000000E+00 0. -1.
         11    1    3    3    0    0  0.59994020009E+01 -0.12866381251E+02 -0.47323452437E+01  0.14964347050E+02  0.51100000000E-03 0. -1.
        -11    1    3    3    0    0 -0.12530491551E+02  0.32887364504E+02 -0.14070678131E+02  0.37902189196E+02  0.51100000000E-03 0.  1.
        -12    1    3    3    0    0 -0.85792511014E+01 -0.15247644309E+02  0.88243502400E+01  0.19594983123E+02  0.00000000000E+00 0.  1.
</event>
<event>
 7    1  0.1283194E-013  0.7246157E+02  0.7816164E-02  0.1226708E+00
        -11   -1    0    0    0    0  0.00000000000E+00  0.00000000000E+00  0.45593999997E+02  0.45594000000E+02  0.51100000000E-03 0. -1.
         11   -1    0    0    0    0 -0.00000000000E+00 -0.00000000000E+00 -0.45593999997E+02  0.45594000000E+02  0.51100000000E-03 0.  1.
    9900012    2    1    2    0    0 -0.13602156628E+02 -0.12503179414E+02 -0.30546471033E+01  0.72461574038E+02  0.70000004877E+02 0.  0.
         12    1    1    2    0    0  0.13602156628E+02  0.12503179414E+02  0.30546471033E+01  0.18726425962E+02  0.00000000000E+00 0. -1.
         11    1    3    3    0    0  0.10434814519E+02 -0.10987133470E+01 -0.21055481349E+02  0.23525004148E+02  0.51100000000E-03 0. -1.
        -11    1    3    3    0    0 -0.30018002309E+02 -0.25132610708E+01  0.26824798729E+01  0.30242232760E+02  0.51100000000E-03 0.  1.
         12    1    3    3    0    0  0.59810311616E+01 -0.88912049962E+01  0.15318354372E+02  0.18694337130E+02  0.00000000000E+00 0. -1.
</event>
<event>
 7    1  0.1283194E-013  0.7246157E+02  0.7816164E-02  0.1226708E+00
        -11   -1    0    0    0    0  0.00000000000E+00  0.00000000000E+00  0.45593999997E+02  0.45594000000E+02  0.51100000000E-03 0.  1.
         11   -1    0    0    0    0 -0.00000000000E+00 -0.00000000000E+00 -0.45593999997E+02  0.45594000000E+02  0.51100000000E-03 0. -1.
    9900012    2    1    2    0    0 -0.10832254793E+02  0.85167882490E+01  0.12680913940E+02  0.72461574705E+02  0.70000005745E+02 0.  0.
         12    1    1    2    0    0  0.10832254793E+02 -0.85167882490E+01 -0.12680913940E+02  0.18726425295E+02  0.00000000000E+00 0. -1.
         11    1    3    3    0    0 -0.87765449795E+01  0.16771710499E+02 -0.13174497313E+01  0.18975080735E+02  0.51100000000E-03 0. -1.
        -11    1    3    3    0    0  0.58456582066E+00 -0.29558470222E+02  0.12071072022E+02  0.31933613311E+02  0.51100000000E-03 0.  1.
        -12    1    3    3    0    0 -0.26402756342E+01  0.21303547971E+02  0.19272916493E+01  0.21552880659E+02  0.00000000000E+00 0.  1.
</event>
<event>
 7    1  0.1283194E-013  0.7246157E+02  0.7816164E-02  0.1226708E+00
        -11   -1    0    0    0    0  0.00000000000E+00  0.00000000000E+00  0.45593999997E+02  0.45594000000E+02  0.51100000000E-03 0. -1.
         11   -1    0    0    0    0 -0.00000000000E+00 -0.00000000000E+00 -0.45593999997E+02  0.45594000000E+02  0.51100000000E-03 0.  1.
    9900012    2    1    2    0    0 -0.13107774903E+02 -0.57025414840E+01 -0.12097372949E+02  0.72461570160E+02  0.69999999825E+02 0.  0.
         12    1    1    2    0    0  0.13107774903E+02  0.57025414840E+01  0.12097372949E+02  0.18726429840E+02  0.00000000000E+00 0. -1.
         11    1    3    3    0    0  0.74336294596E+01 -0.11570075014E+02  0.55011031755E+01  0.14811739235E+02  0.51100000000E-03 0. -1.
        -11    1    3    3    0    0 -0.35094396728E+02 -0.65920184104E+01 -0.12387018041E+02  0.37795629438E+02  0.51100000000E-03 0.  1.
        -12    1    3    3    0    0  0.14552992365E+02  0.12459551940E+02 -0.52114580833E+01  0.19854201487E+02  0.00000000000E+00 0.  1.
</event>
<event>
 7    1  0.1283194E-013  0.7246156E+02  0.7816164E-02  0.1226708E+00
        -11   -1    0    0    0    0  0.00000000000E+00  0.00000000000E+00  0.45593999997E+02  0.45594000000E+02  0.51100000000E-03 0.  1.
         11   -1    0    0    0    0 -0.00000000000E+00 -0.00000000000E+00 -0.45593999997E+02  0.45594000000E+02  0.51100000000E-03 0. -1.
    9900012    2    1    2    0    0  0.31373196207E+01 -0.29927798178E+01  0.18217579679E+02  0.72461555735E+02  0.69999981034E+02 0.  0.
         12    1    1    2    0    0 -0.31373196207E+01  0.29927798178E+01 -0.18217579679E+02  0.18726444265E+02  0.00000000000E+00 0. -1.
         11    1    3    3    0    0  0.11278221856E+02  0.85091060931E+01  0.32087707178E+02  0.35060292739E+02  0.51100000000E-03 0. -1.
        -11    1    3    3    0    0 -0.28777862094E+01 -0.12509417039E+02  0.78390199020E+01  0.15040525304E+02  0.51100000000E-03 0.  1.
         12    1    3    3    0    0 -0.52631160259E+01  0.10075311285E+01 -0.21709147401E+02  0.22360737692E+02  0.00000000000E+00 0. -1.
</event>
<event>
 7    1  0.1283194E-013  0.7246157E+02  0.7816164E-02  0.1226708E+00
        -11   -1    0    0    0    0  0.00000000000E+00  0.00000000000E+00  0.45593999997E+02  0.45594000000E+02  0.51100000000E-03 0. -1.
         11   -1    0    0    0    0 -0.00000000000E+00 -0.00000000000E+00 -0.45593999997E+02  0.45594000000E+02  0.51100000000E-03 0.  1.
    9900012    2    1    2    0    0 -0.12569491948E+02 -0.31719803341E+01 -0.13513901904E+02  0.72461571303E+02  0.70000001314E+02 0.  0.
         12    1    1    2    0    0  0.12569491948E+02  0.31719803341E+01  0.13513901904E+02  0.18726428697E+02  0.00000000000E+00 0. -1.
         11    1    3    3    0    0 -0.27845966662E+02 -0.68505312724E+01 -0.17058031931E+02  0.33366211827E+02  0.51100000000E-03 0. -1.
        -11    1    3    3    0    0  0.16692193122E+02  0.12253679681E+02 -0.10005660889E+02  0.22997722214E+02  0.51100000000E-03 0.  1.
         12    1    3    3    0    0 -0.14157184077E+01 -0.85751287429E+01  0.13549790915E+02  0.16097637262E+02  0.00000000000E+00 0. -1.
</event>
<event>
 7    1  0.1283194E-013  0.7246158E+02  0.7816164E-02  0.1226708E+00
        -11   -1    0    0    0    0  0.00000000000E+00  0.00000000000E+00  0.45593999997E+02  0.45594000000E+02  0.51100000000E-03 0.  1.
         11   -1    0    0    0    0 -0.00000000000E+00 -0.00000000000E+00 -0.45593999997E+02  0.45594000000E+02  0.51100000000E-03 0. -1.
    9900012    2    1    2    0    0  0.47515552733E+01  0.84597065928E+01  0.16016704846E+02  0.72461581569E+02  0.70000014687E+02 0.  0.
         12    1    1    2    0    0 -0.47515552733E+01 -0.84597065928E+01 -0.16016704846E+02  0.18726418431E+02  0.00000000000E+00 0. -1.
         11    1    3    3    0    0 -0.14690325601E+02  0.21023560675E+02  0.11605729291E+02  0.28151176216E+02  0.51100000000E-03 0.  1.
        -11    1    3    3    0    0  0.61302958237E+01 -0.25058327854E+02  0.16976068440E+01  0.25853088615E+02  0.51100000000E-03 0. -1.
         12    1    3    3    0    0  0.13311585050E+02  0.12494473771E+02  0.27133687106E+01  0.18457316737E+02  0.00000000000E+00 0. -1.
</event>
<event>
 7    1  0.1283194E-013  0.7246156E+02  0.7816164E-02  0.1226708E+00
        -11   -1    0    0    0    0  0.00000000000E+00  0.00000000000E+00  0.45593999997E+02  0.45594000000E+02  0.51100000000E-03 0.  1.
         11   -1    0    0    0    0 -0.00000000000E+00 -0.00000000000E+00 -0.45593999997E+02  0.45594000000E+02  0.51100000000E-03 0. -1.
    9900012    2    1    2    0    0 -0.84711042718E+01  0.68343128381E+01  0.15238510351E+02  0.72461557806E+02  0.69999983731E+02 0.  0.
         12    1    1    2    0    0  0.84711042718E+01 -0.68343128381E+01 -0.15238510351E+02  0.18726442194E+02  0.00000000000E+00 0. -1.
         11    1    3    3    0    0  0.16559455247E+02 -0.32051144440E+01 -0.11535853244E+02  0.20434388344E+02  0.51100000000E-03 0. -1.
        -11    1    3    3    0    0 -0.61256626506E+01  0.80703589990E+01  0.30950469840E+02  0.32566639693E+02  0.51100000000E-03 0.  1.
        -12    1    3    3    0    0 -0.18904896868E+02  0.19690682831E+01 -0.41761062461E+01  0.19460529769E+02  0.00000000000E+00 0.  1.
</event>
<event>
 7    1  0.1283194E-013  0.7246158E+02  0.7816164E-02  0.1226708E+00
        -11   -1    0    0    0    0  0.00000000000E+00  0.00000000000E+00  0.45593999997E+02  0.45594000000E+02  0.51100000000E-03 0.  1.
         11   -1    0    0    0    0 -0.00000000000E+00 -0.00000000000E+00 -0.45593999997E+02  0.45594000000E+02  0.51100000000E-03 0. -1.
    9900012    2    1    2    0    0 -0.37656520433E+00  0.10992942075E+02  0.15155598028E+02  0.72461582072E+02  0.70000015343E+02 0.  0.
         12    1    1    2    0    0  0.37656520433E+00 -0.10992942075E+02 -0.15155598028E+02  0.18726417928E+02  0.00000000000E+00 0. -1.
         11    1    3    3    0    0 -0.58349719146E+01 -0.71344088055E+01  0.10924999981E+00  0.92173001509E+01  0.51100000000E-03 0. -1.
        -11    1    3    3    0    0  0.29789866736E+02  0.21139909050E+02  0.55290787012E+01  0.36944588593E+02  0.51100000000E-03 0.  1.
        -12    1    3    3    0    0 -0.24331460025E+02 -0.30125581699E+01  0.95172693273E+01  0.26299693328E+02  0.00000000000E+00 0.  1.
</event>
<event>
 7    1  0.1283194E-013  0.7246151E+02  0.7816164E-02  0.1226708E+00
        -11   -1    0    0    0    0  0.00000000000E+00  0.00000000000E+00  0.45593999997E+02  0.45594000000E+02  0.51100000000E-03 0. -1.
         11   -1    0    0    0    0 -0.00000000000E+00 -0.00000000000E+00 -0.45593999997E+02  0.45594000000E+02  0.51100000000E-03 0.  1.
    9900012    2    1    2    0    0 -0.12862556337E+02 -0.13265053977E+02  0.30454106263E+01  0.72461507044E+02  0.69999917605E+02 0.  0.
         12    1    1    2    0    0  0.12862556337E+02  0.13265053977E+02 -0.30454106263E+01  0.18726492956E+02  0.00000000000E+00 0. -1.
         11    1    3    3    0    0  0.16716726892E+00 -0.23356534428E+02 -0.24586008582E+02  0.33912054843E+02  0.51100000000E-03 0.  1.
        -11    1    3    3    0    0 -0.65741824256E+01  0.48751513490E+01  0.29004358722E+02  0.30137017111E+02  0.51100000000E-03 0. -1.
        -12    1    3    3    0    0 -0.64555411807E+01  0.52163291020E+01 -0.13729395137E+01  0.84124350900E+01  0.00000000000E+00 0.  1.
</event>
<event>
 7    1  0.1283194E-013  0.7246159E+02  0.7816164E-02  0.1226708E+00
        -11   -1    0    0    0    0  0.00000000000E+00  0.00000000000E+00  0.45593999997E+02  0.45594000000E+02  0.51100000000E-03 0.  1.
         11   -1    0    0    0    0 -0.00000000000E+00 -0.00000000000E+00 -0.45593999997E+02  0.45594000000E+02  0.51100000000E-03 0. -1.
    9900012    2    1    2    0    0  0.14779312288E+02 -0.73969029798E+01 -0.88054607106E+01  0.72461591275E+02  0.70000027332E+02 0.  0.
         12    1    1    2    0    0 -0.14779312288E+02  0.73969029798E+01  0.88054607106E+01  0.18726408725E+02  0.00000000000E+00 0. -1.
         11    1    3    3    0    0  0.10655730166E+00  0.28557042108E+01 -0.16682553402E+02  0.16925542510E+02  0.51100000000E-03 0. -1.
        -11    1    3    3    0    0 -0.81978639586E+01 -0.25569240467E+02  0.79736322616E+01  0.28010173924E+02  0.51100000000E-03 0.  1.
        -12    1    3    3    0    0  0.22870618945E+02  0.15316633277E+02 -0.96539570068E-01  0.27525874841E+02  0.00000000000E+00 0.  1.
</event>
<event>
 7    1  0.1283194E-013  0.7246157E+02  0.7816164E-02  0.1226708E+00
        -11   -1    0    0    0    0  0.00000000000E+00  0.00000000000E+00  0.45593999997E+02  0.45594000000E+02  0.51100000000E-03 0.  1.
         11   -1    0    0    0    0 -0.00000000000E+00 -0.00000000000E+00 -0.45593999997E+02  0.45594000000E+02  0.51100000000E-03 0. -1.
    9900012    2    1    2    0    0 -0.17505692535E+02  0.56758843288E+00  0.66262837078E+01  0.72461573125E+02  0.70000003687E+02 0.  0.
         12    1    1    2    0    0  0.17505692535E+02 -0.56758843288E+00 -0.66262837078E+01  0.18726426875E+02  0.00000000000E+00 0. -1.
         11    1    3    3    0    0 -0.10499650476E+02  0.22750595060E+02 -0.14971876821E+02  0.29188856290E+02  0.51100000000E-03 0. -1.
        -11    1    3    3    0    0 -0.17268548540E+02 -0.20421373391E+02  0.12839732370E+02  0.29666378064E+02  0.51100000000E-03 0.  1.
         12    1    3    3    0    0  0.10262506481E+02 -0.17616332357E+01  0.87584281590E+01  0.13606338771E+02  0.00000000000E+00 0. -1.
</event>
<event>
 7    1  0.1283194E-013  0.7246144E+02  0.7816164E-02  0.1226708E+00
        -11   -1    0    0    0    0  0.00000000000E+00  0.00000000000E+00  0.45593999997E+02  0.45594000000E+02  0.51100000000E-03 0.  1.
         11   -1    0    0    0    0 -0.00000000000E+00 -0.00000000000E+00 -0.45593999997E+02  0.45594000000E+02  0.51100000000E-03 0. -1.
    9900012    2    1    2    0    0  0.62032398509E+01  0.61560686392E+01  0.16562210547E+02  0.72461436408E+02  0.69999825589E+02 0.  0.
         12    1    1    2    0    0 -0.62032398509E+01 -0.61560686392E+01 -0.16562210547E+02  0.18726563592E+02  0.00000000000E+00 0. -1.
         11    1    3    3    0    0  0.47727657158E+01 -0.41583634774E+01 -0.25485636724E+02  0.26260025874E+02  0.51100000000E-03 0. -1.
        -11    1    3    3    0    0 -0.72674907523E+01  0.42051581548E+01  0.21151730829E+02  0.22757317378E+02  0.51100000000E-03 0.  1.
         12    1    3    3    0    0  0.86979648874E+01  0.61092739618E+01  0.20896116443E+02  0.23444093156E+02  0.00000000000E+00 0. -1.
</event>
<event>
 7    1  0.1283194E-013  0.7246106E+02  0.7816164E-02  0.1226709E+00
        -11   -1    0    0    0    0  0.00000000000E+00  0.00000000000E+00  0.45593999997E+02  0.45594000000E+02  0.51100000000E-03 0. -1.
         11   -1    0    0    0    0 -0.00000000000E+00 -0.00000000000E+00 -0.45593999997E+02  0.45594000000E+02  0.51100000000E-03 0.  1.
    9900012    2    1    2    0    0 -0.15036026595E+02 -0.10482950782E+02  0.38371548183E+01  0.72461064587E+02  0.69999341219E+02 0.  0.
         12    1    1    2    0    0  0.15036026595E+02  0.10482950782E+02 -0.38371548183E+01  0.18726935413E+02  0.00000000000E+00 0. -1.
         11    1    3    3    0    0  0.14478601118E+02  0.18698130745E+02  0.40018685614E+01  0.23984681277E+02  0.51100000000E-03 0. -1.
        -11    1    3    3    0    0 -0.15714963639E+02 -0.25532310333E+02 -0.94654911134E+01  0.31439695854E+02  0.51100000000E-03 0.  1.
         12    1    3    3    0    0 -0.13799664074E+02 -0.36487711944E+01  0.93007773704E+01  0.17036687456E+02  0.00000000000E+00 0. -1.
</event>
<event>
 7    1  0.1283194E-013  0.7246159E+02  0.7816164E-02  0.1226708E+00
        -11   -1    0    0    0    0  0.00000000000E+00  0.00000000000E+00  0.45593999997E+02  0.45594000000E+02  0.51100000000E-03 0.  1.
         11   -1    0    0    0    0 -0.00000000000E+00 -0.00000000000E+00 -0.45593999997E+02  0.45594000000E+02  0.51100000000E-03 0. -1.
    9900012    2    1    2    0    0 -0.16924942367E+02  0.61860093137E+01  0.50948947391E+01  0.72461592503E+02  0.70000028931E+02 0.  0.
         12    1    1    2    0    0  0.16924942367E+02 -0.61860093137E+01 -0.50948947391E+01  0.18726407497E+02  0.00000000000E+00 0. -1.
         11    1    3    3    0    0 -0.20465752423E+02 -0.13975029608E+02 -0.14235854289E+02  0.28579853435E+02  0.51100000000E-03 0. -1.
        -11    1    3    3    0    0 -0.40319095669E+01  0.22359004167E+02 -0.30521728050E+00  0.22721675113E+02  0.51100000000E-03 0.  1.
         12    1    3    3    0    0  0.75727196232E+01 -0.21979652445E+01  0.19635966309E+02  0.21160063955E+02  0.00000000000E+00 0. -1.
</event>
<event>
 7    1  0.1283194E-013  0.7246159E+02  0.7816164E-02  0.1226708E+00
        -11   -1    0    0    0    0  0.00000000000E+00  0.00000000000E+00  0.45593999997E+02  0.45594000000E+02  0.51100000000E-03 0. -1.
         11   -1    0    0    0    0 -0.00000000000E+00 -0.00000000000E+00 -0.45593999997E+02  0.45594000000E+02  0.51100000000E-03 0.  1.
    9900012    2    1    2    0    0 -0.50533493531E+01 -0.52945464909E+01 -0.17236874783E+02  0.72461590453E+02  0.70000026261E+02 0.  0.
         12    1    1    2    0    0  0.50533493531E+01  0.52945464909E+01  0.17236874783E+02  0.18726409547E+02  0.00000000000E+00 0. -1.
         11    1    3    3    0    0 -0.32088292459E+02 -0.45075711291E+01 -0.46895523044E+01  0.32740931744E+02  0.51100000000E-03 0. -1.
        -11    1    3    3    0    0  0.23943904206E+02 -0.59922181018E+01  0.11874709792E+01  0.24710874408E+02  0.51100000000E-03 0.  1.
         12    1    3    3    0    0  0.30910388993E+01  0.52052427399E+01 -0.13734793458E+02  0.15009784302E+02  0.00000000000E+00 0. -1.
</event>
<event>
 7    1  0.1283194E-013  0.7246143E+02  0.7816164E-02  0.1226708E+00
        -11   -1    0    0    0    0  0.00000000000E+00  0.00000000000E+00  0.45593999997E+02  0.45594000000E+02  0.51100000000E-03 0.  1.
         11   -1    0    0    0    0 -0.00000000000E+00 -0.00000000000E+00 -0.45593999997E+02  0.45594000000E+02  0.51100000000E-03 0. -1.
    9900012    2    1    2    0    0 -0.38615071686E+01 -0.15879094958E+02  0.91448072264E+01  0.72461430813E+02  0.69999818299E+02 0.  0.
         12    1    1    2    0    0  0.38615071686E+01  0.15879094958E+02 -0.91448072264E+01  0.18726569187E+02  0.00000000000E+00 0. -1.
         11    1    3    3    0    0 -0.26117607773E+02 -0.19957613901E+02 -0.89715493160E+01  0.34072341948E+02  0.51100000000E-03 0. -1.
        -11    1    3    3    0    0  0.25070738132E+02 -0.90493163895E+00  0.72599676938E+01  0.26116430517E+02  0.51100000000E-03 0.  1.
         12    1    3    3    0    0 -0.28146375277E+01  0.49834505813E+01  0.10856388849E+02  0.12272658349E+02  0.00000000000E+00 0. -1.
</event>
<event>
 7    1  0.1283194E-013  0.7246132E+02  0.7816164E-02  0.1226709E+00
        -11   -1    0    0    0    0  0.00000000000E+00  0.00000000000E+00  0.45593999997E+02  0.45594000000E+02  0.51100000000E-03 0.  1.
         11   -1    0    0    0    0 -0.00000000000E+00 -0.00000000000E+00 -0.45593999997E+02  0.45594000000E+02  0.51100000000E-03 0. -1.
    9900012    2    1    2    0    0  0.70223407814E+01  0.14904446456E+02  0.89012734230E+01  0.72461322164E+02  0.69999676764E+02 0.  0.
         12    1    1    2    0    0 -0.70223407814E+01 -0.14904446456E+02 -0.89012734230E+01  0.18726677836E+02  0.00000000000E+00 0. -1.
         11    1    3    3    0    0 -0.57183537611E+01 -0.21939187667E+02 -0.14493528556E+02  0.26908918512E+02  0.51100000000E-03 0. -1.
        -11    1    3    3    0    0  0.28293437279E+01  0.11106529188E+02  0.78748998244E+01  0.13905906085E+02  0.51100000000E-03 0.  1.
         12    1    3    3    0    0  0.99113508146E+01  0.25737104935E+02  0.15519902155E+02  0.31646497568E+02  0.00000000000E+00 0. -1.
</event>
<event>
 7    1  0.1283194E-013  0.7246172E+02  0.7816164E-02  0.1226708E+00
        -11   -1    0    0    0    0  0.00000000000E+00  0.00000000000E+00  0.45593999997E+02  0.45594000000E+02  0.51100000000E-03 0.  1.
         11   -1    0    0    0    0 -0.00000000000E+00 -0.00000000000E+00 -0.45593999997E+02  0.45594000000E+02  0.51100000000E-03 0. -1.
    9900012    2    1    2    0    0 -0.15684078303E+02 -0.84570936020E+01  0.57585303266E+01  0.72461723917E+02  0.70000200122E+02 0.  0.
         12    1    1    2    0    0  0.15684078303E+02  0.84570936020E+01 -0.57585303266E+01  0.18726276083E+02  0.00000000000E+00 0. -1.
         11    1    3    3    0    0  0.24384551569E+02  0.58596757038E+01 -0.91499021722E+01  0.26695746189E+02  0.51100000000E-03 0. -1.
        -11    1    3    3    0    0 -0.14705273265E+02 -0.13798995474E+01  0.43193610479E+01  0.15388504303E+02  0.51100000000E-03 0.  1.
         12    1    3    3    0    0 -0.25363356606E+02 -0.12936869758E+02  0.10589071451E+02  0.30377473425E+02  0.00000000000E+00 0. -1.
</event>
<event>
 7    1  0.1283194E-013  0.7246154E+02  0.7816164E-02  0.1226708E+00
        -11   -1    0    0    0    0  0.00000000000E+00  0.00000000000E+00  0.45593999997E+02  0.45594000000E+02  0.51100000000E-03 0.  1.
         11   -1    0    0    0    0 -0.00000000000E+00 -0.00000000000E+00 -0.45593999997E+02  0.45594000000E+02  0.51100000000E-03 0. -1.
    9900012    2    1    2    0    0  0.14026318960E+02 -0.94208140889E+00  0.12371549715E+02  0.72461537886E+02  0.69999957782E+02 0.  0.
         12    1    1    2    0    0 -0.14026318960E+02  0.94208140889E+00 -0.12371549715E+02  0.18726462114E+02  0.00000000000E+00 0. -1.
         11    1    3    3    0    0 -0.71412934992E+01 -0.49099723928E+01  0.27914055508E+01  0.91048254761E+01  0.51100000000E-03 0. -1.
        -11    1    3    3    0    0  0.12921813083E+02  0.74318437121E+01  0.34121990079E+02  0.37235947169E+02  0.51100000000E-03 0.  1.
        -12    1    3    3    0    0  0.82457993763E+01 -0.34639527281E+01 -0.24541845915E+02  0.26120765241E+02  0.00000000000E+00 0.  1.
</event>
<event>
 8    1  0.1283194E-013  0.7246137E+02  0.7816164E-02  0.1226709E+00
        -11   -1    0    0    0    0  0.00000000000E+00  0.00000000000E+00  0.45593999997E+02  0.45594000000E+02  0.51100000000E-03 0. -1.
         11   -1    0    0    0    0 -0.00000000000E+00 -0.00000000000E+00 -0.45593999997E+02  0.45594000000E+02  0.51100000000E-03 0.  1.
    9900012    2    1    2    0    0 -0.10408857157E+02 -0.15335868316E+01 -0.15491624288E+02  0.72461371393E+02  0.69999740894E+02 0.  0.
        -24    2    3    3    0    0  0.66213477726E+00 -0.73004211191E+01  0.13829339734E+01  0.51471517728E+02  0.50928087141E+02 0.  0.
         12    1    1    2    0    0  0.10408857157E+02  0.15335868316E+01  0.15491624288E+02  0.18726628607E+02  0.00000000000E+00 0. -1.
         11    1    4    4    0    0  0.15532229333E+02  0.14278625990E+02  0.10702398771E+02  0.23657359277E+02  0.51100000000E-03 0. -1.
        -11    1    3    3    0    0 -0.11070991934E+02  0.57668342876E+01 -0.16874558261E+02  0.20989853665E+02  0.51100000000E-03 0.  1.
        -12    1    4    4    0    0 -0.14870094556E+02 -0.21579047110E+02 -0.93194647977E+01  0.27814158452E+02  0.00000000000E+00 0.  1.
</event>
<event>
 7    1  0.1283194E-013  0.7246157E+02  0.7816164E-02  0.1226708E+00
        -11   -1    0    0    0    0  0.00000000000E+00  0.00000000000E+00  0.45593999997E+02  0.45594000000E+02  0.51100000000E-03 0.  1.
         11   -1    0    0    0    0 -0.00000000000E+00 -0.00000000000E+00 -0.45593999997E+02  0.45594000000E+02  0.51100000000E-03 0. -1.
    9900012    2    1    2    0    0  0.12241163614E+02  0.14094973542E+02 -0.14712776777E+01  0.72461574186E+02  0.70000005069E+02 0.  0.
         12    1    1    2    0    0 -0.12241163614E+02 -0.14094973542E+02  0.14712776777E+01  0.18726425814E+02  0.00000000000E+00 0. -1.
         11    1    3    3    0    0  0.45414310755E+01  0.30400873952E+01 -0.13453360900E+01  0.56282019367E+01  0.51100000000E-03 0. -1.
        -11    1    3    3    0    0 -0.13483804366E+02  0.15961292374E+02  0.25667898731E+02  0.33097082348E+02  0.51100000000E-03 0.  1.
        -12    1    3    3    0    0  0.21183536905E+02 -0.49064062274E+01 -0.25793840319E+02  0.33736289901E+02  0.00000000000E+00 0.  1.
</event>
<event>
 7    1  0.1283194E-013  0.7246154E+02  0.7816164E-02  0.1226708E+00
        -11   -1    0    0    0    0  0.00000000000E+00  0.00000000000E+00  0.45593999997E+02  0.45594000000E+02  0.51100000000E-03 0.  1.
         11   -1    0    0    0    0 -0.00000000000E+00 -0.00000000000E+00 -0.45593999997E+02  0.45594000000E+02  0.51100000000E-03 0. -1.
    9900012    2    1    2    0    0 -0.60250835863E+01  0.52954004362E+01  0.16921509004E+02  0.72461538376E+02  0.69999958420E+02 0.  0.
         12    1    1    2    0    0  0.60250835863E+01 -0.52954004362E+01 -0.16921509004E+02  0.18726461624E+02  0.00000000000E+00 0. -1.
         11    1    3    3    0    0  0.80526608626E+01 -0.37199104827E+01 -0.18992125876E+02  0.20961486744E+02  0.51100000000E-03 0. -1.
        -11    1    3    3    0    0 -0.13106264844E+02 -0.10593848566E+02  0.20509284965E+02  0.26544953864E+02  0.51100000000E-03 0.  1.
        -12    1    3    3    0    0 -0.97147960468E+00  0.19609159485E+02  0.15404349914E+02  0.24955097768E+02  0.00000000000E+00 0.  1.
</event>
<event>
 7    1  0.1283194E-013  0.7246157E+02  0.7816164E-02  0.1226708E+00
        -11   -1    0    0    0    0  0.00000000000E+00  0.00000000000E+00  0.45593999997E+02  0.45594000000E+02  0.51100000000E-03 0.  1.
         11   -1    0    0    0    0 -0.00000000000E+00 -0.00000000000E+00 -0.45593999997E+02  0.45594000000E+02  0.51100000000E-03 0. -1.
    9900012    2    1    2    0    0 -0.29623699131E+01  0.17624331189E+02 -0.55934230304E+01  0.72461573043E+02  0.70000003581E+02 0.  0.
         12    1    1    2    0    0  0.29623699131E+01 -0.17624331189E+02  0.55934230304E+01  0.18726426957E+02  0.00000000000E+00 0. -1.
         11    1    3    3    0    0 -0.15324416251E+02 -0.16275521618E+02 -0.36509075915E+01  0.22650815965E+02  0.51100000000E-03 0.  1.
        -11    1    3    3    0    0  0.75190279858E+01  0.40397612363E+02 -0.44400506612E+01  0.41330580889E+02  0.51100000000E-03 0. -1.
        -12    1    3    3    0    0  0.48430183521E+01 -0.64977595563E+01  0.24975352222E+01  0.84801761890E+01  0.00000000000E+00 0.  1.
</event>
<event>
 7    1  0.1283194E-013  0.7246154E+02  0.7816164E-02  0.1226708E+00
        -11   -1    0    0    0    0  0.00000000000E+00  0.00000000000E+00  0.45593999997E+02  0.45594000000E+02  0.51100000000E-03 0.  1.
         11   -1    0    0    0    0 -0.00000000000E+00 -0.00000000000E+00 -0.45593999997E+02  0.45594000000E+02  0.51100000000E-03 0. -1.
    9900012    2    1    2    0    0  0.80959933571E+01  0.16372146454E+02 -0.41337467242E+01  0.72461544118E+02  0.69999965900E+02 0.  0.
         12    1    1    2    0    0 -0.80959933571E+01 -0.16372146454E+02  0.41337467242E+01  0.18726455882E+02  0.00000000000E+00 0. -1.
         11    1    3    3    0    0 -0.13482098733E+02 -0.19822456463E+01 -0.26540533716E+02  0.29834480291E+02  0.51100000000E-03 0. -1.
        -11    1    3    3    0    0  0.95433054321E+01 -0.16134701150E+01  0.15566484154E+02  0.18330122573E+02  0.51100000000E-03 0.  1.
         12    1    3    3    0    0  0.12034786658E+02  0.19967862215E+02  0.68403028380E+01  0.24296941253E+02  0.00000000000E+00 0. -1.
</event>
<event>
 7    1  0.1283194E-013  0.7246162E+02  0.7816164E-02  0.1226708E+00
        -11   -1    0    0    0    0  0.00000000000E+00  0.00000000000E+00  0.45593999997E+02  0.45594000000E+02  0.51100000000E-03 0. -1.
         11   -1    0    0    0    0 -0.00000000000E+00 -0.00000000000E+00 -0.45593999997E+02  0.45594000000E+02  0.51100000000E-03 0.  1.
    9900012    2    1    2    0    0 -0.55275706753E+01  0.49812207831E+01 -0.17184606281E+02  0.72461620449E+02  0.70000065335E+02 0.  0.
         12    1    1    2    0    0  0.55275706753E+01 -0.49812207831E+01  0.17184606281E+02  0.18726379551E+02  0.00000000000E+00 0. -1.
         11    1    3    3    0    0 -0.65576131570E+01 -0.50961161060E+01  0.85921906620E+01  0.11949829719E+02  0.51100000000E-03 0. -1.
        -11    1    3    3    0    0 -0.69912334390E+01  0.30880813436E+02 -0.20102271639E+02  0.37504710488E+02  0.51100000000E-03 0.  1.
        -12    1    3    3    0    0  0.80212759207E+01 -0.20803476547E+02 -0.56745253043E+01  0.23007080242E+02  0.00000000000E+00 0.  1.
</event>
<event>
 7    1  0.1283194E-013  0.7246136E+02  0.7816164E-02  0.1226709E+00
        -11   -1    0    0    0    0  0.00000000000E+00  0.00000000000E+00  0.45593999997E+02  0.45594000000E+02  0.51100000000E-03 0.  1.
         11   -1    0    0    0    0 -0.00000000000E+00 -0.00000000000E+00 -0.45593999997E+02  0.45594000000E+02  0.51100000000E-03 0. -1.
    9900012    2    1    2    0    0 -0.18261215821E+02  0.31273714343E+01 -0.27266106297E+01  0.72461364935E+02  0.69999732480E+02 0.  0.
         12    1    1    2    0    0  0.18261215821E+02 -0.31273714343E+01  0.27266106297E+01  0.18726635065E+02  0.00000000000E+00 0. -1.
         11    1    3    3    0    0 -0.17316267330E+02  0.18718823012E+02  0.21678461812E+02  0.33469436147E+02  0.51100000000E-03 0.  1.
        -11    1    3    3    0    0 -0.10709759127E+02 -0.99945460015E+01 -0.23511235712E+02  0.27701409627E+02  0.51100000000E-03 0. -1.
        -12    1    3    3    0    0  0.97648106370E+01 -0.55969055765E+01 -0.89383672944E+00  0.11290519160E+02  0.00000000000E+00 0.  1.
</event>
<event>
 7    1  0.1283194E-013  0.7246156E+02  0.7816164E-02  0.1226708E+00
        -11   -1    0    0    0    0  0.00000000000E+00  0.00000000000E+00  0.45593999997E+02  0.45594000000E+02  0.51100000000E-03 0.  1.
         11   -1    0    0    0    0 -0.00000000000E+00 -0.00000000000E+00 -0.45593999997E+02  0.45594000000E+02  0.51100000000E-03 0. -1.
    9900012    2    1    2    0    0  0.16961065502E+02  0.75086706162E+01 -0.25732584571E+01  0.72461560497E+02  0.69999987237E+02 0.  0.
         12    1    1    2    0    0 -0.16961065502E+02 -0.75086706162E+01  0.25732584571E+01  0.18726439503E+02  0.00000000000E+00 0. -1.
         11    1    3    3    0    0 -0.12597708962E+02  0.29968316762E+02  0.43350172296E+01  0.32796259776E+02  0.51100000000E-03 0. -1.
        -11    1    3    3    0    0  0.72395266711E+01 -0.22495142167E+01  0.27190739137E+01  0.80538452830E+01  0.51100000000E-03 0.  1.
         12    1    3    3    0    0  0.22319247792E+02 -0.20210131929E+02 -0.96273496003E+01  0.31611455438E+02  0.00000000000E+00 0. -1.
</event>
<event>
 7    1  0.1283194E-013  0.7246147E+02  0.7816164E-02  0.1226708E+00
        -11   -1    0    0    0    0  0.00000000000E+00  0.00000000000E+00  0.45593999997E+02  0.45594000000E+02  0.51100000000E-03 0. -1.
         11   -1    0    0    0    0 -0.00000000000E+00 -0.00000000000E+00 -0.45593999997E+02  0.45594000000E+02  0.51100000000E-03 0.  1.
    9900012    2    1    2    0    0 -0.17174030920E+00 -0.69017840532E+01 -0.17407437325E+02  0.72461468232E+02  0.69999867044E+02 0.  0.
         12    1    1    2    0    0  0.17174030920E+00  0.69017840532E+01  0.17407437325E+02  0.18726531768E+02  0.00000000000E+00 0. -1.
         11    1    3    3    0    0  0.26220123854E+01 -0.23103215828E+02  0.19952544001E+02  0.30638824111E+02  0.51100000000E-03 0.  1.
        -11    1    3    3    0    0 -0.37620954669E+01  0.11984470628E+02 -0.34287647735E+02  0.36516074351E+02  0.51100000000E-03 0. -1.
        -12    1    3    3    0    0  0.96834277230E+00  0.42169611462E+01 -0.30723335900E+01  0.53065697698E+01  0.00000000000E+00 0.  1.
</event>
<event>
 7    1  0.1283194E-013  0.7246159E+02  0.7816164E-02  0.1226708E+00
        -11   -1    0    0    0    0  0.00000000000E+00  0.00000000000E+00  0.45593999997E+02  0.45594000000E+02  0.51100000000E-03 0. -1.
         11   -1    0    0    0    0 -0.00000000000E+00 -0.00000000000E+00 -0.45593999997E+02  0.45594000000E+02  0.51100000000E-03 0.  1.
    9900012    2    1    2    0    0 -0.67926379028E+01 -0.12367798134E+02 -0.12311622115E+02  0.72461590855E+02  0.70000026784E+02 0.  0.
         12    1    1    2    0    0  0.67926379028E+01  0.12367798134E+02  0.12311622115E+02  0.18726409145E+02  0.00000000000E+00 0. -1.
         11    1    3    3    0    0  0.75044923263E+00 -0.65703265640E+00  0.14027064891E+02  0.14062482557E+02  0.51100000000E-03 0. -1.
        -11    1    3    3    0    0  0.13051307714E+02 -0.15699640483E+02 -0.30800716096E+02  0.36952665082E+02  0.51100000000E-03 0.  1.
        -12    1    3    3    0    0 -0.20594394849E+02  0.39888750055E+01  0.44620290908E+01  0.21446443216E+02  0.00000000000E+00 0.  1.
</event>
<event>
 7    1  0.1283194E-013  0.7246178E+02  0.7816164E-02  0.1226707E+00
        -11   -1    0    0    0    0  0.00000000000E+00  0.00000000000E+00  0.45593999997E+02  0.45594000000E+02  0.51100000000E-03 0. -1.
         11   -1    0    0    0    0 -0.00000000000E+00 -0.00000000000E+00 -0.45593999997E+02  0.45594000000E+02  0.51100000000E-03 0.  1.
    9900012    2    1    2    0    0 -0.10412174082E+00  0.55746318293E+01 -0.17876906024E+02  0.72461784943E+02  0.70000279620E+02 0.  0.
         12    1    1    2    0    0  0.10412174082E+00 -0.55746318293E+01  0.17876906024E+02  0.18726215057E+02  0.00000000000E+00 0. -1.
         11    1    3    3    0    0 -0.23977020435E+02 -0.37474429284E+01 -0.23097944603E+01  0.24377776522E+02  0.51100000000E-03 0. -1.
        -11    1    3    3    0    0  0.30243061862E+02 -0.18186268019E+01 -0.35541281630E+01  0.30505442490E+02  0.51100000000E-03 0.  1.
        -12    1    3    3    0    0 -0.63701631681E+01  0.11140701560E+02 -0.12012983400E+02  0.17578565931E+02  0.00000000000E+00 0.  1.
</event>
<event>
 7    1  0.1283194E-013  0.7246157E+02  0.7816164E-02  0.1226708E+00
        -11   -1    0    0    0    0  0.00000000000E+00  0.00000000000E+00  0.45593999997E+02  0.45594000000E+02  0.51100000000E-03 0. -1.
         11   -1    0    0    0    0 -0.00000000000E+00 -0.00000000000E+00 -0.45593999997E+02  0.45594000000E+02  0.51100000000E-03 0.  1.
    9900012    2    1    2    0    0 -0.17708885896E+02  0.59707763325E+01  0.11934851058E+01  0.72461569043E+02  0.69999998370E+02 0.  0.
         12    1    1    2    0    0  0.17708885896E+02 -0.59707763325E+01 -0.11934851058E+01  0.18726430957E+02  0.00000000000E+00 0. -1.
         11    1    3    3    0    0 -0.18438299472E+02  0.73429013064E+01 -0.12957726008E+02  0.23702146539E+02  0.51100000000E-03 0.  1.
        -11    1    3    3    0    0  0.21117511091E+02 -0.25172871999E+01  0.18140833933E+02  0.27953101180E+02  0.51100000000E-03 0. -1.
        -12    1    3    3    0    0 -0.20388097515E+02  0.11451622259E+01 -0.39896228199E+01  0.20806321324E+02  0.00000000000E+00 0.  1.
</event>
<event>
 7    1  0.1283194E-013  0.7246156E+02  0.7816164E-02  0.1226708E+00
        -11   -1    0    0    0    0  0.00000000000E+00  0.00000000000E+00  0.45593999997E+02  0.45594000000E+02  0.51100000000E-03 0.  1.
         11   -1    0    0    0    0 -0.00000000000E+00 -0.00000000000E+00 -0.45593999997E+02  0.45594000000E+02  0.51100000000E-03 0. -1.
    9900012    2    1    2    0    0 -0.50180368053E+01  0.17694212786E+02 -0.35233330786E+01  0.72461555183E+02  0.69999980315E+02 0.  0.
         12    1    1    2    0    0  0.50180368053E+01 -0.17694212786E+02  0.35233330786E+01  0.18726444817E+02  0.00000000000E+00 0. -1.
         11    1    3    3    0    0  0.19476489651E+02 -0.11762871398E+02  0.12493363853E+02  0.25957329086E+02  0.51100000000E-03 0. -1.
        -11    1    3    3    0    0 -0.10515277059E+02  0.13171761977E+02  0.38167219930E+01  0.17281022315E+02  0.51100000000E-03 0.  1.
         12    1    3    3    0    0 -0.13979249397E+02  0.16285322206E+02 -0.19833418925E+02  0.29223203783E+02  0.00000000000E+00 0. -1.
</event>
<event>
 7    1  0.1283194E-013  0.7246154E+02  0.7816164E-02  0.1226708E+00
        -11   -1    0    0    0    0  0.00000000000E+00  0.00000000000E+00  0.45593999997E+02  0.45594000000E+02  0.51100000000E-03 0.  1.
         11   -1    0    0    0    0 -0.00000000000E+00 -0.00000000000E+00 -0.45593999997E+02  0.45594000000E+02  0.51100000000E-03 0. -1.
    9900012    2    1    2    0    0  0.52898932111E+01  0.68076510013E+01  0.16623879690E+02  0.72461535884E+02  0.69999955175E+02 0.  0.
         12    1    1    2    0    0 -0.52898932111E+01 -0.68076510013E+01 -0.16623879690E+02  0.18726464116E+02  0.00000000000E+00 0. -1.
         11    1    3    3    0    0  0.16577881608E+02 -0.62811514183E+01 -0.20672385897E+02  0.27232821386E+02  0.51100000000E-03 0. -1.
        -11    1    3    3    0    0  0.51163476501E+01  0.14227491476E+01  0.98726390250E+01  0.11210273413E+02  0.51100000000E-03 0.  1.
         12    1    3    3    0    0 -0.16404336047E+02  0.11666053272E+02  0.27423626561E+02  0.34018441085E+02  0.00000000000E+00 0. -1.
</event>
<event>
 7    1  0.1283194E-013  0.7246157E+02  0.7816164E-02  0.1226708E+00
        -11   -1    0    0    0    0  0.00000000000E+00  0.00000000000E+00  0.45593999997E+02  0.45594000000E+02  0.51100000000E-03 0.  1.
         11   -1    0    0    0    0 -0.00000000000E+00 -0.00000000000E+00 -0.45593999997E+02  0.45594000000E+02  0.51100000000E-03 0. -1.
    9900012    2    1    2    0    0 -0.12576437061E+02 -0.30874307020E+01  0.13527018998E+02  0.72461568400E+02  0.69999997533E+02 0.  0.
         12    1    1    2    0    0  0.12576437061E+02  0.30874307020E+01 -0.13527018998E+02  0.18726431600E+02  0.00000000000E+00 0. -1.
         11    1    3    3    0    0  0.15275086363E+02 -0.14048217873E+02  0.23471806932E+02  0.31330598617E+02  0.51100000000E-03 0.  1.
        -11    1    3    3    0    0 -0.30974887473E+02  0.31097915303E+01 -0.99481634693E+01  0.32681499568E+02  0.51100000000E-03 0. -1.
         12    1    3    3    0    0  0.31233640489E+01  0.78509956404E+01  0.33755355308E-02  0.84494702155E+01  0.00000000000E+00 0. -1.
</event>
<event>
 7    1  0.1283194E-013  0.7246151E+02  0.7816164E-02  0.1226708E+00
        -11   -1    0    0    0    0  0.00000000000E+00  0.00000000000E+00  0.45593999997E+02  0.45594000000E+02  0.51100000000E-03 0.  1.
         11   -1    0    0    0    0 -0.00000000000E+00 -0.00000000000E+00 -0.45593999997E+02  0.45594000000E+02  0.51100000000E-03 0. -1.
    9900012    2    1    2    0    0  0.24826377711E+01 -0.31867834904E+01  0.18285578546E+02  0.72461509083E+02  0.69999920260E+02 0.  0.
         12    1    1    2    0    0 -0.24826377711E+01  0.31867834904E+01 -0.18285578546E+02  0.18726490917E+02  0.00000000000E+00 0. -1.
         11    1    3    3    0    0 -0.20571753182E+02  0.10633145097E+02  0.18420142532E+02  0.29589904610E+02  0.51100000000E-03 0. -1.
        -11    1    3    3    0    0  0.28851389403E+02 -0.79596811100E+01  0.83195080100E+01  0.31064021112E+02  0.51100000000E-03 0.  1.
         12    1    3    3    0    0 -0.57969984495E+01 -0.58602474775E+01 -0.84540719960E+01  0.11807583361E+02  0.00000000000E+00 0. -1.
</event>
<event>
 7    1  0.1283194E-013  0.7246163E+02  0.7816164E-02  0.1226708E+00
        -11   -1    0    0    0    0  0.00000000000E+00  0.00000000000E+00  0.45593999997E+02  0.45594000000E+02  0.51100000000E-03 0.  1.
         11   -1    0    0    0    0 -0.00000000000E+00 -0.00000000000E+00 -0.45593999997E+02  0.45594000000E+02  0.51100000000E-03 0. -1.
    9900012    2    1    2    0    0  0.10626129696E+02  0.73462324788E+01  0.13557112221E+02  0.72461626734E+02  0.70000073523E+02 0.  0.
         12    1    1    2    0    0 -0.10626129696E+02 -0.73462324788E+01 -0.13557112221E+02  0.18726373266E+02  0.00000000000E+00 0. -1.
         11    1    3    3    0    0 -0.58286942710E+01 -0.22068734096E+02  0.25665528031E+01  0.22969325089E+02  0.51100000000E-03 0. -1.
        -11    1    3    3    0    0  0.69683864686E+00  0.23317515621E+02  0.19654507088E+02  0.30503963152E+02  0.51100000000E-03 0.  1.
        -12    1    3    3    0    0  0.15757985320E+02  0.60974509535E+01 -0.86639476705E+01  0.18988338492E+02  0.00000000000E+00 0.  1.
</event>
<event>
 7    1  0.1283194E-013  0.7246161E+02  0.7816164E-02  0.1226708E+00
        -11   -1    0    0    0    0  0.00000000000E+00  0.00000000000E+00  0.45593999997E+02  0.45594000000E+02  0.51100000000E-03 0. -1.
         11   -1    0    0    0    0 -0.00000000000E+00 -0.00000000000E+00 -0.45593999997E+02  0.45594000000E+02  0.51100000000E-03 0.  1.
    9900012    2    1    2    0    0  0.15581994332E+02  0.10315275756E+02  0.12141738847E+01  0.72461610077E+02  0.70000051825E+02 0.  0.
         12    1    1    2    0    0 -0.15581994332E+02 -0.10315275756E+02 -0.12141738847E+01  0.18726389923E+02  0.00000000000E+00 0. -1.
         11    1    3    3    0    0 -0.33072291398E+00 -0.15552776394E+02  0.17497106758E+02  0.23412538870E+02  0.51100000000E-03 0. -1.
        -11    1    3    3    0    0 -0.61345270334E+01  0.23103563167E+02 -0.10365321427E+02  0.26054691352E+02  0.51100000000E-03 0.  1.
        -12    1    3    3    0    0  0.22047244280E+02  0.27644889835E+01 -0.59176114459E+01  0.22994379855E+02  0.00000000000E+00 0.  1.
</event>
<event>
 8    1  0.1283194E-013  0.7246157E+02  0.7816164E-02  0.1226708E+00
        -11   -1    0    0    0    0  0.00000000000E+00  0.00000000000E+00  0.45593999997E+02  0.45594000000E+02  0.51100000000E-03 0.  1.
         11   -1    0    0    0    0 -0.00000000000E+00 -0.00000000000E+00 -0.45593999997E+02  0.45594000000E+02  0.51100000000E-03 0. -1.
    9900012    2    1    2    0    0 -0.20055950104E+01 -0.35003117677E+01  0.18286732363E+02  0.72461570166E+02  0.69999999833E+02 0.  0.
         24    2    3    3    0    0  0.41521758931E+01  0.57231613270E+01  0.15346880883E+00  0.51205845154E+02  0.50715085379E+02 0.  0.
         12    1    1    2    0    0  0.20055950104E+01  0.35003117677E+01 -0.18286732363E+02  0.18726429834E+02  0.00000000000E+00 0. -1.
         11    1    3    3    0    0 -0.61577709035E+01 -0.92234730947E+01  0.18133263554E+02  0.21255725012E+02  0.51100000000E-03 0. -1.
        -11    1    4    4    0    0  0.25396119905E+02 -0.45961574673E+01 -0.66045417238E+01  0.26640336734E+02  0.51100000000E-03 0.  1.
         12    1    4    4    0    0 -0.21243944012E+02  0.10319318794E+02  0.67580105326E+01  0.24565508419E+02  0.00000000000E+00 0. -1.
</event>
<event>
 7    1  0.1283194E-013  0.7246158E+02  0.7816164E-02  0.1226708E+00
        -11   -1    0    0    0    0  0.00000000000E+00  0.00000000000E+00  0.45593999997E+02  0.45594000000E+02  0.51100000000E-03 0. -1.
         11   -1    0    0    0    0 -0.00000000000E+00 -0.00000000000E+00 -0.45593999997E+02  0.45594000000E+02  0.51100000000E-03 0.  1.
    9900012    2    1    2    0    0 -0.11971985977E+02 -0.13481394100E+02 -0.50598696752E+01  0.72461582397E+02  0.70000015766E+02 0.  0.
         12    1    1    2    0    0  0.11971985977E+02  0.13481394100E+02  0.50598696752E+01  0.18726417603E+02  0.00000000000E+00 0. -1.
         11    1    3    3    0    0 -0.12484523266E+02 -0.87071524090E+01  0.26527440254E+02  0.30584030325E+02  0.51100000000E-03 0. -1.
        -11    1    3    3    0    0  0.32350021822E+01 -0.15013643526E+02 -0.11568083688E+02  0.19227461911E+02  0.51100000000E-03 0.  1.
         12    1    3    3    0    0 -0.27224648933E+01  0.10239401835E+02 -0.20019226241E+02  0.22650090161E+02  0.00000000000E+00 0. -1.
</event>
<event>
 7    1  0.1283194E-013  0.7246162E+02  0.7816164E-02  0.1226708E+00
        -11   -1    0    0    0    0  0.00000000000E+00  0.00000000000E+00  0.45593999997E+02  0.45594000000E+02  0.51100000000E-03 0.  1.
         11   -1    0    0    0    0 -0.00000000000E+00 -0.00000000000E+00 -0.45593999997E+02  0.45594000000E+02  0.51100000000E-03 0. -1.
    9900012    2    1    2    0    0  0.66230726037E+01 -0.16789285069E+02 -0.49932128785E+01  0.72461618644E+02  0.70000062984E+02 0.  0.
         12    1    1    2    0    0 -0.66230726037E+01  0.16789285069E+02  0.49932128785E+01  0.18726381356E+02  0.00000000000E+00 0. -1.
         11    1    3    3    0    0 -0.60092464457E+01 -0.26003160771E+02  0.23304859236E+02  0.35431509666E+02  0.51100000000E-03 0.  1.
        -11    1    3    3    0    0  0.10412078053E+02  0.14546683028E+02 -0.19105367931E+02  0.26173124394E+02  0.51100000000E-03 0. -1.
        -12    1    3    3    0    0  0.22202409963E+01 -0.53328073262E+01 -0.91927041836E+01  0.10856984584E+02  0.00000000000E+00 0.  1.
</event>
<event>
 7    1  0.1283194E-013  0.7246155E+02  0.7816164E-02  0.1226708E+00
        -11   -1    0    0    0    0  0.00000000000E+00  0.00000000000E+00  0.45593999997E+02  0.45594000000E+02  0.51100000000E-03 0.  1.
         11   -1    0    0    0    0 -0.00000000000E+00 -0.00000000000E+00 -0.45593999997E+02  0.45594000000E+02  0.51100000000E-03 0. -1.
    9900012    2    1    2    0    0 -0.22376743872E+00  0.18036692872E+02  0.50306502574E+01  0.72461553363E+02  0.69999977944E+02 0.  0.
         12    1    1    2    0    0  0.22376743872E+00 -0.18036692872E+02 -0.50306502574E+01  0.18726446637E+02  0.00000000000E+00 0. -1.
         11    1    3    3    0    0  0.19375577792E+02  0.77144328502E+01 -0.13071581562E+02  0.24612836768E+02  0.51100000000E-03 0. -1.
        -11    1    3    3    0    0 -0.25231324671E+02  0.35965740881E+00 -0.13605871516E+01  0.25270542055E+02  0.51100000000E-03 0.  1.
        -12    1    3    3    0    0  0.56319794407E+01  0.99626026135E+01  0.19462818971E+02  0.22578174540E+02  0.00000000000E+00 0.  1.
</event>
<event>
 7    1  0.1283194E-013  0.7246170E+02  0.7816164E-02  0.1226708E+00
        -11   -1    0    0    0    0  0.00000000000E+00  0.00000000000E+00  0.45593999997E+02  0.45594000000E+02  0.51100000000E-03 0.  1.
         11   -1    0    0    0    0 -0.00000000000E+00 -0.00000000000E+00 -0.45593999997E+02  0.45594000000E+02  0.51100000000E-03 0. -1.
    9900012    2    1    2    0    0  0.13217105261E+02 -0.31856362459E+01  0.12877665736E+02  0.72461696986E+02  0.70000165039E+02 0.  0.
         12    1    1    2    0    0 -0.13217105261E+02  0.31856362459E+01 -0.12877665736E+02  0.18726303014E+02  0.00000000000E+00 0. -1.
         11    1    3    3    0    0 -0.19827278249E+02 -0.10835324961E+02  0.12968319829E+02  0.26051920260E+02  0.51100000000E-03 0. -1.
        -11    1    3    3    0    0  0.15209196910E+02  0.19613334287E+02 -0.16711928787E+01  0.24875599257E+02  0.51100000000E-03 0.  1.
         12    1    3    3    0    0  0.17835186600E+02 -0.11963645571E+02  0.15805387850E+01  0.21534177469E+02  0.00000000000E+00 0. -1.
</event>
<event>
 7    1  0.1283194E-013  0.7246156E+02  0.7816164E-02  0.1226708E+00
        -11   -1    0    0    0    0  0.00000000000E+00  0.00000000000E+00  0.45593999997E+02  0.45594000000E+02  0.51100000000E-03 0.  1.
         11   -1    0    0    0    0 -0.00000000000E+00 -0.00000000000E+00 -0.45593999997E+02  0.45594000000E+02  0.51100000000E-03 0. -1.
    9900012    2    1    2    0    0  0.70530861108E+01  0.10480356301E+02  0.13823741391E+02  0.72461555651E+02  0.69999980925E+02 0.  0.
         12    1    1    2    0    0 -0.70530861108E+01 -0.10480356301E+02 -0.13823741391E+02  0.18726444349E+02  0.00000000000E+00 0. -1.
         11    1    3    3    0    0 -0.12369507423E+02 -0.39968421009E+01 -0.22859542079E+02  0.26297112484E+02  0.51100000000E-03 0. -1.
        -11    1    3    3    0    0  0.11950001318E+02  0.36738654612E+01  0.86398127864E+01  0.15196913640E+02  0.51100000000E-03 0.  1.
         12    1    3    3    0    0  0.74725922155E+01  0.10803332941E+02  0.28043470684E+02  0.30967529528E+02  0.00000000000E+00 0. -1.
</event>
<event>
 7    1  0.1283194E-013  0.7246157E+02  0.7816164E-02  0.1226708E+00
        -11   -1    0    0    0    0  0.00000000000E+00  0.00000000000E+00  0.45593999997E+02  0.45594000000E+02  0.51100000000E-03 0.  1.
         11   -1    0    0    0    0 -0.00000000000E+00 -0.00000000000E+00 -0.45593999997E+02  0.45594000000E+02  0.51100000000E-03 0. -1.
    9900012    2    1    2    0    0 -0.12376624598E+02  0.14032344689E+02  0.76919157144E+00  0.72461569758E+02  0.69999999302E+02 0.  0.
         12    1    1    2    0    0  0.12376624598E+02 -0.14032344689E+02 -0.76919157144E+00  0.18726430242E+02  0.00000000000E+00 0. -1.
         11    1    3    3    0    0  0.31334165692E+00 -0.19999419949E+01 -0.50940590965E+01  0.54815499010E+01  0.51100000000E-03 0. -1.
        -11    1    3    3    0    0 -0.35723316249E+02  0.23193066163E+02  0.31810155755E+01  0.42710566634E+02  0.51100000000E-03 0.  1.
        -12    1    3    3    0    0  0.23033349994E+02 -0.71607794786E+01  0.26822350925E+01  0.24269453223E+02  0.00000000000E+00 0.  1.
</event>
<event>
 7    1  0.1283194E-013  0.7246154E+02  0.7816164E-02  0.1226708E+00
        -11   -1    0    0    0    0  0.00000000000E+00  0.00000000000E+00  0.45593999997E+02  0.45594000000E+02  0.51100000000E-03 0.  1.
         11   -1    0    0    0    0 -0.00000000000E+00 -0.00000000000E+00 -0.45593999997E+02  0.45594000000E+02  0.51100000000E-03 0. -1.
    9900012    2    1    2    0    0  0.23155950439E+01 -0.13947068409E+02  0.12279970163E+02  0.72461538380E+02  0.69999958425E+02 0.  0.
         12    1    1    2    0    0 -0.23155950439E+01  0.13947068409E+02 -0.12279970163E+02  0.18726461620E+02  0.00000000000E+00 0. -1.
         11    1    3    3    0    0  0.26840592780E+02 -0.85407994992E+01 -0.74024027389E+01  0.29123156481E+02  0.51100000000E-03 0. -1.
        -11    1    3    3    0    0 -0.20415236199E+01  0.10716889672E+02  0.47485091264E+01  0.11898230209E+02  0.51100000000E-03 0.  1.
         12    1    3    3    0    0 -0.22483474116E+02 -0.16123158582E+02  0.14933863775E+02  0.31440151689E+02  0.00000000000E+00 0. -1.
</event>
<event>
 7    1  0.1283194E-013  0.7246149E+02  0.7816164E-02  0.1226708E+00
        -11   -1    0    0    0    0  0.00000000000E+00  0.00000000000E+00  0.45593999997E+02  0.45594000000E+02  0.51100000000E-03 0. -1.
         11   -1    0    0    0    0 -0.00000000000E+00 -0.00000000000E+00 -0.45593999997E+02  0.45594000000E+02  0.51100000000E-03 0.  1.
    9900012    2    1    2    0    0  0.13166486128E+02 -0.13146269453E+02 -0.21216479062E+01  0.72461490786E+02  0.69999896425E+02 0.  0.
         12    1    1    2    0    0 -0.13166486128E+02  0.13146269453E+02  0.21216479062E+01  0.18726509214E+02  0.00000000000E+00 0. -1.
         11    1    3    3    0    0 -0.76037970451E+01  0.60392963281E+01  0.40676920186E+01  0.10527912816E+02  0.51100000000E-03 0. -1.
        -11    1    3    3    0    0  0.49485711240E+01 -0.34979591324E+02  0.69463945598E+01  0.36004340891E+02  0.51100000000E-03 0.  1.
        -12    1    3    3    0    0  0.15821712050E+02  0.15794025543E+02 -0.13135734485E+02  0.25929237079E+02  0.00000000000E+00 0.  1.
</event>
<event>
 7    1  0.1283194E-013  0.7246156E+02  0.7816164E-02  0.1226708E+00
        -11   -1    0    0    0    0  0.00000000000E+00  0.00000000000E+00  0.45593999997E+02  0.45594000000E+02  0.51100000000E-03 0.  1.
         11   -1    0    0    0    0 -0.00000000000E+00 -0.00000000000E+00 -0.45593999997E+02  0.45594000000E+02  0.51100000000E-03 0. -1.
    9900012    2    1    2    0    0 -0.11430887467E+02 -0.22136899831E+01  0.14666763136E+02  0.72461560068E+02  0.69999986679E+02 0.  0.
         12    1    1    2    0    0  0.11430887467E+02  0.22136899831E+01 -0.14666763136E+02  0.18726439932E+02  0.00000000000E+00 0. -1.
         11    1    3    3    0    0  0.16296680023E+02  0.14753786665E+02  0.50331212148E+01  0.22551902583E+02  0.51100000000E-03 0. -1.
        -11    1    3    3    0    0 -0.60929798066E+01 -0.22472824527E+02  0.13990985393E+02  0.27164313311E+02  0.51100000000E-03 0.  1.
         12    1    3    3    0    0 -0.21634587682E+02  0.55053478788E+01 -0.43573434716E+01  0.22745344174E+02  0.00000000000E+00 0. -1.
</event>
<event>
 7    1  0.1283194E-013  0.7246158E+02  0.7816164E-02  0.1226708E+00
        -11   -1    0    0    0    0  0.00000000000E+00  0.00000000000E+00  0.45593999997E+02  0.45594000000E+02  0.51100000000E-03 0.  1.
         11   -1    0    0    0    0 -0.00000000000E+00 -0.00000000000E+00 -0.45593999997E+02  0.45594000000E+02  0.51100000000E-03 0. -1.
    9900012    2    1    2    0    0  0.61469607658E+01  0.12764081095E+02  0.12246305183E+02  0.72461577931E+02  0.70000009948E+02 0.  0.
         12    1    1    2    0    0 -0.61469607658E+01 -0.12764081095E+02 -0.12246305183E+02  0.18726422069E+02  0.00000000000E+00 0. -1.
         11    1    3    3    0    0  0.24879569873E+02  0.23430184605E+01  0.11691511676E+02  0.27589385243E+02  0.51100000000E-03 0. -1.
        -11    1    3    3    0    0 -0.16656557971E+02 -0.12359535475E+02 -0.49936516536E+01  0.21333907230E+02  0.51100000000E-03 0.  1.
        -12    1    3    3    0    0 -0.20760511369E+01  0.22780598110E+02  0.55484451609E+01  0.23538285458E+02  0.00000000000E+00 0.  1.
</event>
<event>
 7    1  0.1283194E-013  0.7246150E+02  0.7816164E-02  0.1226708E+00
        -11   -1    0    0    0    0  0.00000000000E+00  0.00000000000E+00  0.45593999997E+02  0.45594000000E+02  0.51100000000E-03 0. -1.
         11   -1    0    0    0    0 -0.00000000000E+00 -0.00000000000E+00 -0.45593999997E+02  0.45594000000E+02  0.51100000000E-03 0.  1.
    9900012    2    1    2    0    0  0.12748745595E+02  0.79504229426E+01 -0.11177741382E+02  0.72461504289E+02  0.69999914016E+02 0.  0.
         12    1    1    2    0    0 -0.12748745595E+02 -0.79504229426E+01  0.11177741382E+02  0.18726495711E+02  0.00000000000E+00 0. -1.
         11    1    3    3    0    0  0.32212792775E+00 -0.25470979821E+02 -0.10142883479E+02  0.27418108340E+02  0.51100000000E-03 0. -1.
        -11    1    3    3    0    0 -0.62437391958E+01  0.21944697894E+02  0.20678698645E+01  0.22909171326E+02  0.51100000000E-03 0.  1.
         12    1    3    3    0    0  0.18670356863E+02  0.11476704869E+02 -0.31027277671E+01  0.22134224623E+02  0.00000000000E+00 0. -1.
</event>
<event>
 7    1  0.1283194E-013  0.7246157E+02  0.7816164E-02  0.1226708E+00
        -11   -1    0    0    0    0  0.00000000000E+00  0.00000000000E+00  0.45593999997E+02  0.45594000000E+02  0.51100000000E-03 0. -1.
         11   -1    0    0    0    0 -0.00000000000E+00 -0.00000000000E+00 -0.45593999997E+02  0.45594000000E+02  0.51100000000E-03 0.  1.
    9900012    2    1    2    0    0  0.15951746928E+02 -0.46343959207E+01 -0.86454284495E+01  0.72461567112E+02  0.69999995855E+02 0.  0.
         12    1    1    2    0    0 -0.15951746928E+02  0.46343959207E+01  0.86454284495E+01  0.18726432888E+02  0.00000000000E+00 0. -1.
         11    1    3    3    0    0  0.64100668871E+01  0.16910800319E+02  0.14096950940E+02  0.22930070889E+02  0.51100000000E-03 0. -1.
        -11    1    3    3    0    0 -0.14148496107E+01  0.62139848148E+01 -0.18276763400E+02  0.19356019409E+02  0.51100000000E-03 0.  1.
         12    1    3    3    0    0  0.10956529652E+02 -0.27759181054E+02 -0.44656159891E+01  0.30175476815E+02  0.00000000000E+00 0. -1.
</event>
<event>
 7    1  0.1283194E-013  0.7246159E+02  0.7816164E-02  0.1226708E+00
        -11   -1    0    0    0    0  0.00000000000E+00  0.00000000000E+00  0.45593999997E+02  0.45594000000E+02  0.51100000000E-03 0. -1.
         11   -1    0    0    0    0 -0.00000000000E+00 -0.00000000000E+00 -0.45593999997E+02  0.45594000000E+02  0.51100000000E-03 0.  1.
    9900012    2    1    2    0    0 -0.77384301464E+01  0.77020651018E+01 -0.15214249928E+02  0.72461587935E+02  0.70000022980E+02 0.  0.
         12    1    1    2    0    0  0.77384301464E+01 -0.77020651018E+01  0.15214249928E+02  0.18726412065E+02  0.00000000000E+00 0. -1.
         11    1    3    3    0    0  0.28371130663E+02  0.11153372686E+02 -0.15601420688E+02  0.34245044972E+02  0.51100000000E-03 0.  1.
        -11    1    3    3    0    0 -0.26609878745E+02  0.22739602952E+01  0.28386548434E+01  0.26857298893E+02  0.51100000000E-03 0. -1.
        -12    1    3    3    0    0 -0.94996820646E+01 -0.57252678790E+01 -0.24514840834E+01  0.11359244069E+02  0.00000000000E+00 0.  1.
</event>
<event>
 7    1  0.1283194E-013  0.7246158E+02  0.7816164E-02  0.1226708E+00
        -11   -1    0    0    0    0  0.00000000000E+00  0.00000000000E+00  0.45593999997E+02  0.45594000000E+02  0.51100000000E-03 0. -1.
         11   -1    0    0    0    0 -0.00000000000E+00 -0.00000000000E+00 -0.45593999997E+02  0.45594000000E+02  0.51100000000E-03 0.  1.
    9900012    2    1    2    0    0 -0.59206346476E+01 -0.48314550709E+01 -0.17096251878E+02  0.72461582803E+02  0.70000016295E+02 0.  0.
         12    1    1    2    0    0  0.59206346476E+01  0.48314550709E+01  0.17096251878E+02  0.18726417197E+02  0.00000000000E+00 0. -1.
         11    1    3    3    0    0  0.23912956055E+02  0.77040426635E+01  0.40979408386E-01  0.25123364031E+02  0.51100000000E-03 0. -1.
        -11    1    3    3    0    0 -0.20027018137E+02  0.56607255363E+01 -0.16665925618E+02  0.26662301964E+02  0.51100000000E-03 0.  1.
        -12    1    3    3    0    0 -0.98065725660E+01 -0.18196223271E+02 -0.47130566855E+00  0.20675916808E+02  0.00000000000E+00 0.  1.
</event>
<event>
 7    1  0.1283194E-013  0.7246155E+02  0.7816164E-02  0.1226708E+00
        -11   -1    0    0    0    0  0.00000000000E+00  0.00000000000E+00  0.45593999997E+02  0.45594000000E+02  0.51100000000E-03 0. -1.
         11   -1    0    0    0    0 -0.00000000000E+00 -0.00000000000E+00 -0.45593999997E+02  0.45594000000E+02  0.51100000000E-03 0.  1.
    9900012    2    1    2    0    0  0.35717940776E+01  0.18320055128E+02  0.15158756503E+01  0.72461547804E+02  0.69999970703E+02 0.  0.
         12    1    1    2    0    0 -0.35717940776E+01 -0.18320055128E+02 -0.15158756503E+01  0.18726452196E+02  0.00000000000E+00 0. -1.
         11    1    3    3    0    0  0.32590441537E+01  0.90641800273E+01  0.13748428414E+02  0.16786900026E+02  0.51100000000E-03 0. -1.
        -11    1    3    3    0    0 -0.16365652255E+02 -0.15491105145E+02  0.19781319823E+01  0.22621271378E+02  0.51100000000E-03 0.  1.
        -12    1    3    3    0    0  0.16678402178E+02  0.24746980246E+02 -0.14210684746E+02  0.33053376401E+02  0.00000000000E+00 0.  1.
</event>
<event>
 7    1  0.1283194E-013  0.7246179E+02  0.7816164E-02  0.1226707E+00
        -11   -1    0    0    0    0  0.00000000000E+00  0.00000000000E+00  0.45593999997E+02  0.45594000000E+02  0.51100000000E-03 0.  1.
         11   -1    0    0    0    0 -0.00000000000E+00 -0.00000000000E+00 -0.45593999997E+02  0.45594000000E+02  0.51100000000E-03 0. -1.
    9900012    2    1    2    0    0 -0.46320490400E+01  0.15117615751E+02  0.10033577868E+02  0.72461791918E+02  0.70000288705E+02 0.  0.
         12    1    1    2    0    0  0.46320490400E+01 -0.15117615751E+02 -0.10033577868E+02  0.18726208082E+02  0.00000000000E+00 0. -1.
         11    1    3    3    0    0 -0.24881090768E+02  0.26324141354E+02 -0.12737582882E+02  0.38396290365E+02  0.51100000000E-03 0. -1.
        -11    1    3    3    0    0  0.15896443790E+02 -0.11011943426E+02  0.12817881808E+02  0.23200386149E+02  0.51100000000E-03 0.  1.
         12    1    3    3    0    0  0.43525979381E+01 -0.19458217700E+00  0.99532789419E+01  0.10865115403E+02  0.00000000000E+00 0. -1.
</event>
<event>
 7    1  0.1283194E-013  0.7246152E+02  0.7816164E-02  0.1226708E+00
        -11   -1    0    0    0    0  0.00000000000E+00  0.00000000000E+00  0.45593999997E+02  0.45594000000E+02  0.51100000000E-03 0. -1.
         11   -1    0    0    0    0 -0.00000000000E+00 -0.00000000000E+00 -0.45593999997E+02  0.45594000000E+02  0.51100000000E-03 0.  1.
    9900012    2    1    2    0    0  0.71641430576E+00 -0.18519400864E+02  0.26832401557E+01  0.72461515131E+02  0.69999928140E+02 0.  0.
         12    1    1    2    0    0 -0.71641430576E+00  0.18519400864E+02 -0.26832401557E+01  0.18726484869E+02  0.00000000000E+00 0. -1.
         11    1    3    3    0    0 -0.28865084304E+02 -0.20891156250E+02  0.11157233260E+02  0.37337880974E+02  0.51100000000E-03 0. -1.
        -11    1    3    3    0    0  0.13746914600E+02 -0.49534291634E+01 -0.98508825789E+01  0.17622542647E+02  0.51100000000E-03 0.  1.
         12    1    3    3    0    0  0.15834584010E+02  0.73251845495E+01  0.13768894750E+01  0.17501091511E+02  0.00000000000E+00 0. -1.
</event>
<event>
 7    1  0.1283194E-013  0.7246160E+02  0.7816164E-02  0.1226708E+00
        -11   -1    0    0    0    0  0.00000000000E+00  0.00000000000E+00  0.45593999997E+02  0.45594000000E+02  0.51100000000E-03 0. -1.
         11   -1    0    0    0    0 -0.00000000000E+00 -0.00000000000E+00 -0.45593999997E+02  0.45594000000E+02  0.51100000000E-03 0.  1.
    9900012    2    1    2    0    0  0.51420218271E+01  0.69670357430E+01 -0.16604160552E+02  0.72461598232E+02  0.70000036395E+02 0.  0.
         12    1    1    2    0    0 -0.51420218271E+01 -0.69670357430E+01  0.16604160552E+02  0.18726401768E+02  0.00000000000E+00 0. -1.
         11    1    3    3    0    0 -0.11431280445E+02  0.28790007381E+01  0.12393226489E+01  0.11853216388E+02  0.51100000000E-03 0. -1.
        -11    1    3    3    0    0  0.17544429231E+02 -0.22355161602E+02  0.48130949059E+00  0.28421680218E+02  0.51100000000E-03 0.  1.
        -12    1    3    3    0    0 -0.97112695920E+00  0.26443196607E+02 -0.18324792692E+02  0.32186701626E+02  0.00000000000E+00 0.  1.
</event>
<event>
 7    1  0.1283194E-013  0.7246160E+02  0.7816164E-02  0.1226708E+00
        -11   -1    0    0    0    0  0.00000000000E+00  0.00000000000E+00  0.45593999997E+02  0.45594000000E+02  0.51100000000E-03 0.  1.
         11   -1    0    0    0    0 -0.00000000000E+00 -0.00000000000E+00 -0.45593999997E+02  0.45594000000E+02  0.51100000000E-03 0. -1.
    9900012    2    1    2    0    0  0.11056428281E+02 -0.90411316326E+01  0.12111623662E+02  0.72461598978E+02  0.70000037366E+02 0.  0.
         12    1    1    2    0    0 -0.11056428281E+02  0.90411316326E+01 -0.12111623662E+02  0.18726401022E+02  0.00000000000E+00 0. -1.
         11    1    3    3    0    0  0.13793335606E+02 -0.21777060605E+02 -0.15609746760E+02  0.30135704238E+02  0.51100000000E-03 0. -1.
        -11    1    3    3    0    0 -0.14879582954E+02  0.12391123148E+02  0.13406979791E+02  0.23551837065E+02  0.51100000000E-03 0.  1.
        -12    1    3    3    0    0  0.12142675628E+02  0.34480582430E+00  0.14314390631E+02  0.18774057675E+02  0.00000000000E+00 0.  1.
</event>
<event>
 7    1  0.1283194E-013  0.7246145E+02  0.7816164E-02  0.1226708E+00
        -11   -1    0    0    0    0  0.00000000000E+00  0.00000000000E+00  0.45593999997E+02  0.45594000000E+02  0.51100000000E-03 0.  1.
         11   -1    0    0    0    0 -0.00000000000E+00 -0.00000000000E+00 -0.45593999997E+02  0.45594000000E+02  0.51100000000E-03 0. -1.
    9900012    2    1    2    0    0  0.12472641786E+02  0.13279199270E+02  0.43335449045E+01  0.72461453660E+02  0.69999848062E+02 0.  0.
         12    1    1    2    0    0 -0.12472641786E+02 -0.13279199270E+02 -0.43335449045E+01  0.18726546340E+02  0.00000000000E+00 0. -1.
         11    1    3    3    0    0  0.60725193682E+01  0.72420816853E+01 -0.12806323389E+02  0.15916191681E+02  0.51100000000E-03 0. -1.
        -11    1    3    3    0    0  0.22422408625E+02 -0.14024231606E+02  0.15862226065E+02  0.30839158495E+02  0.51100000000E-03 0.  1.
        -12    1    3    3    0    0 -0.16022286208E+02  0.20061349191E+02  0.12776422285E+01  0.25706103484E+02  0.00000000000E+00 0.  1.
</event>
<event>
 7    1  0.1283194E-013  0.7246161E+02  0.7816164E-02  0.1226708E+00
        -11   -1    0    0    0    0  0.00000000000E+00  0.00000000000E+00  0.45593999997E+02  0.45594000000E+02  0.51100000000E-03 0.  1.
         11   -1    0    0    0    0 -0.00000000000E+00 -0.00000000000E+00 -0.45593999997E+02  0.45594000000E+02  0.51100000000E-03 0. -1.
    9900012    2    1    2    0    0 -0.12760527511E+02  0.11665010327E+02  0.71954283926E+01  0.72461609049E+02  0.70000050485E+02 0.  0.
         12    1    1    2    0    0  0.12760527511E+02 -0.11665010327E+02 -0.71954283926E+01  0.18726390951E+02  0.00000000000E+00 0. -1.
         11    1    3    3    0    0 -0.76521884596E+01 -0.11503146791E+02 -0.67794386219E+01  0.15389579676E+02  0.51100000000E-03 0. -1.
        -11    1    3    3    0    0  0.19741680256E+02  0.44739679300E+01  0.16155862741E+02  0.25899077774E+02  0.51100000000E-03 0.  1.
        -12    1    3    3    0    0 -0.24850019308E+02  0.18694189189E+02 -0.21809957263E+01  0.31172951599E+02  0.00000000000E+00 0.  1.
</event>
<event>
 7    1  0.1283194E-013  0.7246154E+02  0.7816164E-02  0.1226708E+00
        -11   -1    0    0    0    0  0.00000000000E+00  0.00000000000E+00  0.45593999997E+02  0.45594000000E+02  0.51100000000E-03 0. -1.
         11   -1    0    0    0    0 -0.00000000000E+00 -0.00000000000E+00 -0.45593999997E+02  0.45594000000E+02  0.51100000000E-03 0.  1.
    9900012    2    1    2    0    0 -0.10839324182E+02  0.15210396924E+02  0.13538875834E+01  0.72461544519E+02  0.69999966422E+02 0.  0.
         12    1    1    2    0    0  0.10839324182E+02 -0.15210396924E+02 -0.13538875834E+01  0.18726455481E+02  0.00000000000E+00 0. -1.
         11    1    3    3    0    0 -0.78517564082E+01 -0.30839118918E+01  0.24998262833E+02  0.26383209360E+02  0.51100000000E-03 0. -1.
        -11    1    3    3    0    0  0.76106805616E+00  0.13315169742E+02 -0.32568401103E+02  0.35193376089E+02  0.51100000000E-03 0.  1.
        -12    1    3    3    0    0 -0.37486358302E+01  0.49791390737E+01  0.89240258541E+01  0.10884959070E+02  0.00000000000E+00 0.  1.
</event>
<event>
 7    1  0.1283194E-013  0.7246150E+02  0.7816164E-02  0.1226708E+00
        -11   -1    0    0    0    0  0.00000000000E+00  0.00000000000E+00  0.45593999997E+02  0.45594000000E+02  0.51100000000E-03 0. -1.
         11   -1    0    0    0    0 -0.00000000000E+00 -0.00000000000E+00 -0.45593999997E+02  0.45594000000E+02  0.51100000000E-03 0.  1.
    9900012    2    1    2    0    0  0.89559123777E+01 -0.13602676982E+02 -0.92434043994E+01  0.72461502396E+02  0.69999911550E+02 0.  0.
         12    1    1    2    0    0 -0.89559123777E+01  0.13602676982E+02  0.92434043994E+01  0.18726497604E+02  0.00000000000E+00 0. -1.
         11    1    3    3    0    0  0.63021468366E+01 -0.23984774526E+02  0.21466577596E+02  0.32799396606E+02  0.51100000000E-03 0. -1.
        -11    1    3    3    0    0 -0.22385483813E+01  0.12630030329E+02 -0.56253712737E+01  0.14006197457E+02  0.51100000000E-03 0.  1.
         12    1    3    3    0    0  0.48923139224E+01 -0.22479327859E+01 -0.25084610722E+02  0.25655908333E+02  0.00000000000E+00 0. -1.
</event>
<event>
 7    1  0.1283194E-013  0.7246156E+02  0.7816164E-02  0.1226708E+00
        -11   -1    0    0    0    0  0.00000000000E+00  0.00000000000E+00  0.45593999997E+02  0.45594000000E+02  0.51100000000E-03 0.  1.
         11   -1    0    0    0    0 -0.00000000000E+00 -0.00000000000E+00 -0.45593999997E+02  0.45594000000E+02  0.51100000000E-03 0. -1.
    9900012    2    1    2    0    0  0.18151257422E+02 -0.19345296257E+01 -0.41795998274E+01  0.72461558651E+02  0.69999984833E+02 0.  0.
         12    1    1    2    0    0 -0.18151257422E+02  0.19345296257E+01  0.41795998274E+01  0.18726441349E+02  0.00000000000E+00 0. -1.
         11    1    3    3    0    0  0.27640842843E+02 -0.44815674770E+01  0.19586765555E+02  0.34172240566E+02  0.51100000000E-03 0.  1.
        -11    1    3    3    0    0 -0.27280028495E+01  0.14058295759E+02 -0.19658356282E+02  0.24321362034E+02  0.51100000000E-03 0. -1.
        -12    1    3    3    0    0 -0.67615825716E+01 -0.11511257908E+02 -0.41080091003E+01  0.13967956052E+02  0.00000000000E+00 0.  1.
</event>
<event>
 7    1  0.1283194E-013  0.7246178E+02  0.7816164E-02  0.1226707E+00
        -11   -1    0    0    0    0  0.00000000000E+00  0.00000000000E+00  0.45593999997E+02  0.45594000000E+02  0.51100000000E-03 0.  1.
         11   -1    0    0    0    0 -0.00000000000E+00 -0.00000000000E+00 -0.45593999997E+02  0.45594000000E+02  0.51100000000E-03 0. -1.
    9900012    2    1    2    0    0 -0.31684812866E+01 -0.13609826586E+02  0.12466145242E+02  0.72461776928E+02  0.70000269178E+02 0.  0.
         12    1    1    2    0    0  0.31684812866E+01  0.13609826586E+02 -0.12466145242E+02  0.18726223072E+02  0.00000000000E+00 0. -1.
         11    1    3    3    0    0  0.14766413653E+02  0.10353114582E+01  0.30626914359E+01  0.15116180770E+02  0.51100000000E-03 0. -1.
        -11    1    3    3    0    0 -0.15048150506E+02  0.13296587053E+02  0.19015963384E+02  0.27655974483E+02  0.51100000000E-03 0.  1.
        -12    1    3    3    0    0 -0.28867444327E+01 -0.27941725097E+02 -0.96125095778E+01  0.29689621675E+02  0.00000000000E+00 0.  1.
</event>
<event>
 7    1  0.1283194E-013  0.7246157E+02  0.7816164E-02  0.1226708E+00
        -11   -1    0    0    0    0  0.00000000000E+00  0.00000000000E+00  0.45593999997E+02  0.45594000000E+02  0.51100000000E-03 0.  1.
         11   -1    0    0    0    0 -0.00000000000E+00 -0.00000000000E+00 -0.45593999997E+02  0.45594000000E+02  0.51100000000E-03 0. -1.
    9900012    2    1    2    0    0  0.10823571929E+01  0.15899744234E+02 -0.98339132798E+01  0.72461569102E+02  0.69999998446E+02 0.  0.
         12    1    1    2    0    0 -0.10823571929E+01 -0.15899744234E+02  0.98339132798E+01  0.18726430898E+02  0.00000000000E+00 0. -1.
         11    1    3    3    0    0  0.73248231539E+01 -0.15046568539E+02 -0.83201554506E+01  0.18688960539E+02  0.51100000000E-03 0. -1.
        -11    1    3    3    0    0 -0.96621488327E+00  0.27193186994E+02  0.18390114069E+02  0.32842035348E+02  0.51100000000E-03 0.  1.
        -12    1    3    3    0    0 -0.52762510778E+01  0.37531257795E+01 -0.19903871898E+02  0.20930573215E+02  0.00000000000E+00 0.  1.
</event>
<event>
 7    1  0.1283194E-013  0.7246147E+02  0.7816164E-02  0.1226708E+00
        -11   -1    0    0    0    0  0.00000000000E+00  0.00000000000E+00  0.45593999997E+02  0.45594000000E+02  0.51100000000E-03 0. -1.
         11   -1    0    0    0    0 -0.00000000000E+00 -0.00000000000E+00 -0.45593999997E+02  0.45594000000E+02  0.51100000000E-03 0.  1.
    9900012    2    1    2    0    0  0.17107661918E+02  0.26685396330E+01 -0.71336923535E+01  0.72461474250E+02  0.69999874884E+02 0.  0.
         12    1    1    2    0    0 -0.17107661918E+02 -0.26685396330E+01  0.71336923535E+01  0.18726525750E+02  0.00000000000E+00 0. -1.
         11    1    3    3    0    0 -0.21984273114E+02 -0.59567787862E+01  0.68538516774E+01  0.23785852117E+02  0.51100000000E-03 0.  1.
        -11    1    3    3    0    0  0.27763834200E+02 -0.54624229214E+01 -0.10970110038E+02  0.30348177345E+02  0.51100000000E-03 0. -1.
         12    1    3    3    0    0  0.11328100833E+02  0.14087741341E+02 -0.30174339931E+01  0.18327444788E+02  0.00000000000E+00 0. -1.
</event>
<event>
 7    1  0.1283194E-013  0.7246147E+02  0.7816164E-02  0.1226708E+00
        -11   -1    0    0    0    0  0.00000000000E+00  0.00000000000E+00  0.45593999997E+02  0.45594000000E+02  0.51100000000E-03 0.  1.
         11   -1    0    0    0    0 -0.00000000000E+00 -0.00000000000E+00 -0.45593999997E+02  0.45594000000E+02  0.51100000000E-03 0. -1.
    9900012    2    1    2    0    0  0.17085615641E+02  0.70607315488E+01  0.29850901351E+01  0.72461469222E+02  0.69999868335E+02 0.  0.
         12    1    1    2    0    0 -0.17085615641E+02 -0.70607315488E+01 -0.29850901351E+01  0.18726530778E+02  0.00000000000E+00 0. -1.
         11    1    3    3    0    0  0.44570888259E+01 -0.22944410919E+02 -0.50837785580E+01  0.23919791762E+02  0.51100000000E-03 0. -1.
        -11    1    3    3    0    0  0.56500817928E+01  0.15239610739E+02  0.21808780644E+02  0.27199118978E+02  0.51100000000E-03 0.  1.
         12    1    3    3    0    0  0.69784450227E+01  0.14765531729E+02 -0.13739911951E+02  0.21342558483E+02  0.00000000000E+00 0. -1.
</event>
<event>
 7    1  0.1283194E-013  0.7246159E+02  0.7816164E-02  0.1226708E+00
        -11   -1    0    0    0    0  0.00000000000E+00  0.00000000000E+00  0.45593999997E+02  0.45594000000E+02  0.51100000000E-03 0.  1.
         11   -1    0    0    0    0 -0.00000000000E+00 -0.00000000000E+00 -0.45593999997E+02  0.45594000000E+02  0.51100000000E-03 0. -1.
    9900012    2    1    2    0    0 -0.64179003138E+01  0.48775251551E+01  0.16902622135E+02  0.72461592680E+02  0.70000029162E+02 0.  0.
         12    1    1    2    0    0  0.64179003138E+01 -0.48775251551E+01 -0.16902622135E+02  0.18726407320E+02  0.00000000000E+00 0. -1.
         11    1    3    3    0    0 -0.18279165210E+02  0.12410428079E+02 -0.34933174479E+01  0.22368501804E+02  0.51100000000E-03 0. -1.
        -11    1    3    3    0    0 -0.75198465803E+00 -0.24384267534E+02  0.13832203939E+02  0.28044390708E+02  0.51100000000E-03 0.  1.
        -12    1    3    3    0    0  0.12613249555E+02  0.16851364610E+02  0.65637356434E+01  0.22048700169E+02  0.00000000000E+00 0.  1.
</event>
<event>
 7    1  0.1283194E-013  0.7246161E+02  0.7816164E-02  0.1226708E+00
        -11   -1    0    0    0    0  0.00000000000E+00  0.00000000000E+00  0.45593999997E+02  0.45594000000E+02  0.51100000000E-03 0. -1.
         11   -1    0    0    0    0 -0.00000000000E+00 -0.00000000000E+00 -0.45593999997E+02  0.45594000000E+02  0.51100000000E-03 0.  1.
    9900012    2    1    2    0    0 -0.13831162429E+02 -0.18671082384E+01 -0.12485610210E+02  0.72461611944E+02  0.70000054256E+02 0.  0.
         12    1    1    2    0    0  0.13831162429E+02  0.18671082384E+01  0.12485610210E+02  0.18726388056E+02  0.00000000000E+00 0. -1.
         11    1    3    3    0    0 -0.55932186385E+01  0.15122523604E+02 -0.17782485802E+02  0.24003991677E+02  0.51100000000E-03 0. -1.
        -11    1    3    3    0    0 -0.15171067538E+02 -0.25984002775E+02  0.14908613686E+02  0.33579702988E+02  0.51100000000E-03 0.  1.
        -12    1    3    3    0    0  0.69331237478E+01  0.89943709327E+01 -0.96117380932E+01  0.14877917279E+02  0.00000000000E+00 0.  1.
</event>
<event>
 7    1  0.1283194E-013  0.7246161E+02  0.7816164E-02  0.1226708E+00
        -11   -1    0    0    0    0  0.00000000000E+00  0.00000000000E+00  0.45593999997E+02  0.45594000000E+02  0.51100000000E-03 0.  1.
         11   -1    0    0    0    0 -0.00000000000E+00 -0.00000000000E+00 -0.45593999997E+02  0.45594000000E+02  0.51100000000E-03 0. -1.
    9900012    2    1    2    0    0  0.81096051179E+01  0.16825640868E+02  0.13452632895E+01  0.72461611691E+02  0.70000053927E+02 0.  0.
         12    1    1    2    0    0 -0.81096051179E+01 -0.16825640868E+02 -0.13452632895E+01  0.18726388309E+02  0.00000000000E+00 0. -1.
         11    1    3    3    0    0  0.28049574624E+01 -0.18563981440E+02 -0.11311619293E+02  0.21918985482E+02  0.51100000000E-03 0. -1.
        -11    1    3    3    0    0 -0.11497344713E+02  0.21652639881E+02  0.14957052655E+02  0.28718272470E+02  0.51100000000E-03 0.  1.
         12    1    3    3    0    0  0.16801992368E+02  0.13736982427E+02 -0.23001700725E+01  0.21824353739E+02  0.00000000000E+00 0. -1.
</event>
<event>
 7    1  0.1283194E-013  0.7246148E+02  0.7816164E-02  0.1226708E+00
        -11   -1    0    0    0    0  0.00000000000E+00  0.00000000000E+00  0.45593999997E+02  0.45594000000E+02  0.51100000000E-03 0.  1.
         11   -1    0    0    0    0 -0.00000000000E+00 -0.00000000000E+00 -0.45593999997E+02  0.45594000000E+02  0.51100000000E-03 0. -1.
    9900012    2    1    2    0    0  0.87089178305E+01  0.14455297186E+02  0.81167499980E+01  0.72461481449E+02  0.69999884262E+02 0.  0.
         12    1    1    2    0    0 -0.87089178305E+01 -0.14455297186E+02 -0.81167499980E+01  0.18726518551E+02  0.00000000000E+00 0. -1.
         11    1    3    3    0    0 -0.19203059265E+02  0.21890697394E+01  0.17783887893E+02  0.26264351892E+02  0.51100000000E-03 0. -1.
        -11    1    3    3    0    0  0.16994331099E+02  0.22940721314E+02 -0.84369976195E+00  0.28562139511E+02  0.51100000000E-03 0.  1.
         12    1    3    3    0    0  0.10917645996E+02 -0.10674493867E+02 -0.88234381330E+01  0.17634990045E+02  0.00000000000E+00 0. -1.
</event>
<event>
 7    1  0.1283194E-013  0.7246160E+02  0.7816164E-02  0.1226708E+00
        -11   -1    0    0    0    0  0.00000000000E+00  0.00000000000E+00  0.45593999997E+02  0.45594000000E+02  0.51100000000E-03 0.  1.
         11   -1    0    0    0    0 -0.00000000000E+00 -0.00000000000E+00 -0.45593999997E+02  0.45594000000E+02  0.51100000000E-03 0. -1.
    9900012    2    1    2    0    0 -0.62446298661E+01  0.12888675552E+02  0.12065026025E+02  0.72461595844E+02  0.70000033283E+02 0.  0.
         12    1    1    2    0    0  0.62446298661E+01 -0.12888675552E+02 -0.12065026025E+02  0.18726404156E+02  0.00000000000E+00 0. -1.
         11    1    3    3    0    0 -0.13862123071E+02 -0.17830173061E+02  0.48962550004E+00  0.22590114228E+02  0.51100000000E-03 0. -1.
        -11    1    3    3    0    0  0.18418698215E+02  0.19679769359E+02  0.18757589256E+02  0.32838832514E+02  0.51100000000E-03 0.  1.
         12    1    3    3    0    0 -0.10801205010E+02  0.11039079254E+02 -0.71821887309E+01  0.17032649102E+02  0.00000000000E+00 0. -1.
</event>
<event>
 7    1  0.1283194E-013  0.7246152E+02  0.7816164E-02  0.1226708E+00
        -11   -1    0    0    0    0  0.00000000000E+00  0.00000000000E+00  0.45593999997E+02  0.45594000000E+02  0.51100000000E-03 0. -1.
         11   -1    0    0    0    0 -0.00000000000E+00 -0.00000000000E+00 -0.45593999997E+02  0.45594000000E+02  0.51100000000E-03 0.  1.
    9900012    2    1    2    0    0  0.63124781287E+01  0.15648077794E+02  0.81222710920E+01  0.72461521248E+02  0.69999936107E+02 0.  0.
         12    1    1    2    0    0 -0.63124781287E+01 -0.15648077794E+02 -0.81222710920E+01  0.18726478752E+02  0.00000000000E+00 0. -1.
         11    1    3    3    0    0 -0.12936129909E+01  0.34686406747E+02  0.19904180851E+02  0.40012456351E+02  0.51100000000E-03 0. -1.
        -11    1    3    3    0    0 -0.69641334414E+01 -0.12994438047E+01 -0.12540980643E+01  0.71944750335E+01  0.51100000000E-03 0.  1.
         12    1    3    3    0    0  0.14570224561E+02 -0.17738885149E+02 -0.10527811695E+02  0.25254589863E+02  0.00000000000E+00 0. -1.
</event>
<event>
 7    1  0.1283194E-013  0.7246159E+02  0.7816164E-02  0.1226708E+00
        -11   -1    0    0    0    0  0.00000000000E+00  0.00000000000E+00  0.45593999997E+02  0.45594000000E+02  0.51100000000E-03 0.  1.
         11   -1    0    0    0    0 -0.00000000000E+00 -0.00000000000E+00 -0.45593999997E+02  0.45594000000E+02  0.51100000000E-03 0. -1.
    9900012    2    1    2    0    0  0.60483725920E+01  0.95774483040E+01  0.14912006246E+02  0.72461594651E+02  0.70000031729E+02 0.  0.
         12    1    1    2    0    0 -0.60483725920E+01 -0.95774483040E+01 -0.14912006246E+02  0.18726405349E+02  0.00000000000E+00 0. -1.
         11    1    3    3    0    0  0.67150440637E+01  0.98261141238E+01 -0.14599464535E+02  0.18835835541E+02  0.51100000000E-03 0. -1.
        -11    1    3    3    0    0 -0.31528403176E+01 -0.22267888383E+02  0.16873116276E+02  0.28115855104E+02  0.51100000000E-03 0.  1.
        -12    1    3    3    0    0  0.24861688459E+01  0.22019222563E+02  0.12638354505E+02  0.25509904006E+02  0.00000000000E+00 0.  1.
</event>
<event>
 7    1  0.1283194E-013  0.7246156E+02  0.7816164E-02  0.1226708E+00
        -11   -1    0    0    0    0  0.00000000000E+00  0.00000000000E+00  0.45593999997E+02  0.45594000000E+02  0.51100000000E-03 0.  1.
         11   -1    0    0    0    0 -0.00000000000E+00 -0.00000000000E+00 -0.45593999997E+02  0.45594000000E+02  0.51100000000E-03 0. -1.
    9900012    2    1    2    0    0  0.78067433842E+01  0.51317742843E+00  0.17013849003E+02  0.72461557433E+02  0.69999983245E+02 0.  0.
         12    1    1    2    0    0 -0.78067433842E+01 -0.51317742843E+00 -0.17013849003E+02  0.18726442567E+02  0.00000000000E+00 0. -1.
         11    1    3    3    0    0 -0.70542521933E+00 -0.86681843299E-01 -0.52422353286E+01  0.52901956470E+01  0.51100000000E-03 0. -1.
        -11    1    3    3    0    0 -0.39219643660E-01  0.17808393398E+02  0.38235515892E+02  0.42179320637E+02  0.51100000000E-03 0.  1.
        -12    1    3    3    0    0  0.85513882472E+01 -0.17208534127E+02 -0.15979431561E+02  0.24992041148E+02  0.00000000000E+00 0.  1.
</event>
<event>
 7    1  0.1283194E-013  0.7246153E+02  0.7816164E-02  0.1226708E+00
        -11   -1    0    0    0    0  0.00000000000E+00  0.00000000000E+00  0.45593999997E+02  0.45594000000E+02  0.51100000000E-03 0. -1.
         11   -1    0    0    0    0 -0.00000000000E+00 -0.00000000000E+00 -0.45593999997E+02  0.45594000000E+02  0.51100000000E-03 0.  1.
    9900012    2    1    2    0    0 -0.91398320468E+01 -0.12325108570E+02  0.10734795842E+02  0.72461530154E+02  0.69999947710E+02 0.  0.
         12    1    1    2    0    0  0.91398320468E+01  0.12325108570E+02 -0.10734795842E+02  0.18726469846E+02  0.00000000000E+00 0. -1.
         11    1    3    3    0    0 -0.56937385054E+01  0.24097921267E+02  0.80772095737E+01  0.26045532867E+02  0.51100000000E-03 0. -1.
        -11    1    3    3    0    0 -0.90937803185E+00 -0.16349555927E+02 -0.12938528752E+02  0.20869606464E+02  0.51100000000E-03 0.  1.
         12    1    3    3    0    0 -0.25367155095E+01 -0.20073473910E+02  0.15596115020E+02  0.25546390824E+02  0.00000000000E+00 0. -1.
</event>
<event>
 7    1  0.1283194E-013  0.7246154E+02  0.7816164E-02  0.1226708E+00
        -11   -1    0    0    0    0  0.00000000000E+00  0.00000000000E+00  0.45593999997E+02  0.45594000000E+02  0.51100000000E-03 0.  1.
         11   -1    0    0    0    0 -0.00000000000E+00 -0.00000000000E+00 -0.45593999997E+02  0.45594000000E+02  0.51100000000E-03 0. -1.
    9900012    2    1    2    0    0 -0.15202615546E+02  0.10930756811E+02  0.28138512389E+00  0.72461544343E+02  0.69999966193E+02 0.  0.
         12    1    1    2    0    0  0.15202615546E+02 -0.10930756811E+02 -0.28138512389E+00  0.18726455657E+02  0.00000000000E+00 0. -1.
         11    1    3    3    0    0  0.20027280269E+00 -0.89940803891E+01 -0.21710910121E+01  0.92545787416E+01  0.51100000000E-03 0. -1.
        -11    1    3    3    0    0 -0.29480780176E+02 -0.73870345474E-01  0.17700220669E+02  0.34386329676E+02  0.51100000000E-03 0.  1.
        -12    1    3    3    0    0  0.14077891827E+02  0.19998707545E+02 -0.15247744533E+02  0.28820635925E+02  0.00000000000E+00 0.  1.
</event>
<event>
 7    1  0.1283194E-013  0.7246155E+02  0.7816164E-02  0.1226708E+00
        -11   -1    0    0    0    0  0.00000000000E+00  0.00000000000E+00  0.45593999997E+02  0.45594000000E+02  0.51100000000E-03 0.  1.
         11   -1    0    0    0    0 -0.00000000000E+00 -0.00000000000E+00 -0.45593999997E+02  0.45594000000E+02  0.51100000000E-03 0. -1.
    9900012    2    1    2    0    0 -0.14165649225E+02  0.12848391476E+01  0.12180458263E+02  0.72461548304E+02  0.69999971354E+02 0.  0.
         12    1    1    2    0    0  0.14165649225E+02 -0.12848391476E+01 -0.12180458263E+02  0.18726451696E+02  0.00000000000E+00 0. -1.
         11    1    3    3    0    0 -0.15790675396E+02  0.19539506165E+02 -0.19954432580E+02  0.32082972282E+02  0.51100000000E-03 0. -1.
        -11    1    3    3    0    0  0.77471050564E+01 -0.11950257870E+02  0.12834026829E+02  0.19171294813E+02  0.51100000000E-03 0.  1.
         12    1    3    3    0    0 -0.61220788857E+01 -0.63044091477E+01  0.19300864014E+02  0.21207281209E+02  0.00000000000E+00 0. -1.
</event>
<event>
 7    1  0.1283194E-013  0.7246161E+02  0.7816164E-02  0.1226708E+00
        -11   -1    0    0    0    0  0.00000000000E+00  0.00000000000E+00  0.45593999997E+02  0.45594000000E+02  0.51100000000E-03 0.  1.
         11   -1    0    0    0    0 -0.00000000000E+00 -0.00000000000E+00 -0.45593999997E+02  0.45594000000E+02  0.51100000000E-03 0. -1.
    9900012    2    1    2    0    0  0.59916382289E+01  0.11394939919E+02  0.13599012043E+02  0.72461614525E+02  0.70000057618E+02 0.  0.
         12    1    1    2    0    0 -0.59916382289E+01 -0.11394939919E+02 -0.13599012043E+02  0.18726385475E+02  0.00000000000E+00 0. -1.
         11    1    3    3    0    0 -0.12803172873E+02  0.61590802194E+01 -0.85122663514E+01  0.16562432897E+02  0.51100000000E-03 0. -1.
        -11    1    3    3    0    0  0.33918666801E+02 -0.21083976727E+01  0.18535811035E+02  0.38710432564E+02  0.51100000000E-03 0.  1.
        -12    1    3    3    0    0 -0.15123855699E+02  0.73442573722E+01  0.35754673602E+01  0.17188749064E+02  0.00000000000E+00 0.  1.
</event>
<event>
 7    1  0.1283194E-013  0.7246155E+02  0.7816164E-02  0.1226708E+00
        -11   -1    0    0    0    0  0.00000000000E+00  0.00000000000E+00  0.45593999997E+02  0.45594000000E+02  0.51100000000E-03 0. -1.
         11   -1    0    0    0    0 -0.00000000000E+00 -0.00000000000E+00 -0.45593999997E+02  0.45594000000E+02  0.51100000000E-03 0.  1.
    9900012    2    1    2    0    0 -0.13974081661E+02 -0.12466071537E+02 -0.43324317967E-01  0.72461554132E+02  0.69999978946E+02 0.  0.
         12    1    1    2    0    0  0.13974081661E+02  0.12466071537E+02  0.43324317967E-01  0.18726445868E+02  0.00000000000E+00 0. -1.
         11    1    3    3    0    0 -0.11785360497E+01 -0.29953426540E+02 -0.22112432577E+02  0.37249917899E+02  0.51100000000E-03 0.  1.
        -11    1    3    3    0    0 -0.11372206841E+02  0.11375752075E+02  0.23778294712E+02  0.28707875633E+02  0.51100000000E-03 0. -1.
        -12    1    3    3    0    0 -0.14233387705E+01  0.61116029290E+01 -0.17091864528E+01  0.65037606005E+01  0.00000000000E+00 0.  1.
</event>
<event>
 7    1  0.1283194E-013  0.7246157E+02  0.7816164E-02  0.1226708E+00
        -11   -1    0    0    0    0  0.00000000000E+00  0.00000000000E+00  0.45593999997E+02  0.45594000000E+02  0.51100000000E-03 0.  1.
         11   -1    0    0    0    0 -0.00000000000E+00 -0.00000000000E+00 -0.45593999997E+02  0.45594000000E+02  0.51100000000E-03 0. -1.
    9900012    2    1    2    0    0 -0.69182089104E+01 -0.13709632433E+01  0.17347569150E+02  0.72461566539E+02  0.69999995108E+02 0.  0.
         12    1    1    2    0    0  0.69182089104E+01  0.13709632433E+01 -0.17347569150E+02  0.18726433461E+02  0.00000000000E+00 0. -1.
         11    1    3    3    0    0  0.12325462084E+02  0.19639919783E+02 -0.47086482475E+00  0.23191920546E+02  0.51100000000E-03 0. -1.
        -11    1    3    3    0    0 -0.28689434567E+02 -0.22276273799E+02  0.15293071780E+02  0.39410583285E+02  0.51100000000E-03 0.  1.
         12    1    3    3    0    0  0.94457635728E+01  0.12653907731E+01  0.25253621946E+01  0.98590627087E+01  0.00000000000E+00 0. -1.
</event>
<event>
 7    1  0.1283194E-013  0.7246156E+02  0.7816164E-02  0.1226708E+00
        -11   -1    0    0    0    0  0.00000000000E+00  0.00000000000E+00  0.45593999997E+02  0.45594000000E+02  0.51100000000E-03 0. -1.
         11   -1    0    0    0    0 -0.00000000000E+00 -0.00000000000E+00 -0.45593999997E+02  0.45594000000E+02  0.51100000000E-03 0.  1.
    9900012    2    1    2    0    0 -0.88416965965E+00 -0.16617984911E+01 -0.18631593509E+02  0.72461558616E+02  0.69999984787E+02 0.  0.
         12    1    1    2    0    0  0.88416965965E+00  0.16617984911E+01  0.18631593509E+02  0.18726441384E+02  0.00000000000E+00 0. -1.
         11    1    3    3    0    0  0.22303609747E+02 -0.13156055132E+02  0.72733034820E+01  0.26896723559E+02  0.51100000000E-03 0. -1.
        -11    1    3    3    0    0 -0.18347013201E+02 -0.15105893726E+01 -0.25791909127E+02  0.31687810753E+02  0.51100000000E-03 0.  1.
        -12    1    3    3    0    0 -0.48407662056E+01  0.13004846013E+02 -0.11298786390E+00  0.13877024304E+02  0.00000000000E+00 0.  1.
</event>
<event>
 7    1  0.1283194E-013  0.7246155E+02  0.7816164E-02  0.1226708E+00
        -11   -1    0    0    0    0  0.00000000000E+00  0.00000000000E+00  0.45593999997E+02  0.45594000000E+02  0.51100000000E-03 0. -1.
         11   -1    0    0    0    0 -0.00000000000E+00 -0.00000000000E+00 -0.45593999997E+02  0.45594000000E+02  0.51100000000E-03 0.  1.
    9900012    2    1    2    0    0 -0.17891294545E+02 -0.29475198099E+01  0.46790525402E+01  0.72461552761E+02  0.69999977160E+02 0.  0.
         12    1    1    2    0    0  0.17891294545E+02  0.29475198099E+01 -0.46790525402E+01  0.18726447239E+02  0.00000000000E+00 0. -1.
         11    1    3    3    0    0  0.16029073678E+02 -0.57849131585E+01  0.17618269988E+01  0.17131855062E+02  0.51100000000E-03 0. -1.
        -11    1    3    3    0    0 -0.27134310728E+02  0.21447762494E+02  0.65181320119E+01  0.35196070518E+02  0.51100000000E-03 0.  1.
         12    1    3    3    0    0 -0.67860574950E+01 -0.18610369146E+02 -0.36009064705E+01  0.20133627181E+02  0.00000000000E+00 0. -1.
</event>
<event>
 7    1  0.1283194E-013  0.7246157E+02  0.7816164E-02  0.1226708E+00
        -11   -1    0    0    0    0  0.00000000000E+00  0.00000000000E+00  0.45593999997E+02  0.45594000000E+02  0.51100000000E-03 0.  1.
         11   -1    0    0    0    0 -0.00000000000E+00 -0.00000000000E+00 -0.45593999997E+02  0.45594000000E+02  0.51100000000E-03 0. -1.
    9900012    2    1    2    0    0 -0.70464916818E+01 -0.68755510761E+00  0.17336474256E+02  0.72461571705E+02  0.70000001837E+02 0.  0.
         12    1    1    2    0    0  0.70464916818E+01  0.68755510761E+00 -0.17336474256E+02  0.18726428295E+02  0.00000000000E+00 0. -1.
         11    1    3    3    0    0  0.18741170877E+02  0.33232198641E+01 -0.71762354607E+01  0.20341426493E+02  0.51100000000E-03 0. -1.
        -11    1    3    3    0    0 -0.10625786741E+02 -0.17422852499E+02  0.24488945212E+02  0.31877446116E+02  0.51100000000E-03 0.  1.
         12    1    3    3    0    0 -0.15161875818E+02  0.13412077527E+02  0.23764505367E-01  0.20242699096E+02  0.00000000000E+00 0. -1.
</event>
<event>
 7    1  0.1283194E-013  0.7246157E+02  0.7816164E-02  0.1226708E+00
        -11   -1    0    0    0    0  0.00000000000E+00  0.00000000000E+00  0.45593999997E+02  0.45594000000E+02  0.51100000000E-03 0.  1.
         11   -1    0    0    0    0 -0.00000000000E+00 -0.00000000000E+00 -0.45593999997E+02  0.45594000000E+02  0.51100000000E-03 0. -1.
    9900012    2    1    2    0    0 -0.15882604830E+02 -0.98747138607E+01  0.95498775342E+00  0.72461571840E+02  0.70000002014E+02 0.  0.
         12    1    1    2    0    0  0.15882604830E+02  0.98747138607E+01 -0.95498775342E+00  0.18726428160E+02  0.00000000000E+00 0. -1.
         11    1    3    3    0    0 -0.23951432607E+02 -0.98756531820E+01  0.62480826861E+01  0.26650294318E+02  0.51100000000E-03 0. -1.
        -11    1    3    3    0    0  0.18364054439E+02 -0.15787719820E+02  0.44034726470E+01  0.24614653444E+02  0.51100000000E-03 0.  1.
         12    1    3    3    0    0 -0.10295226662E+02  0.15788659141E+02 -0.96965675797E+01  0.21196624078E+02  0.00000000000E+00 0. -1.
</event>
<event>
 7    1  0.1283194E-013  0.7246159E+02  0.7816164E-02  0.1226708E+00
        -11   -1    0    0    0    0  0.00000000000E+00  0.00000000000E+00  0.45593999997E+02  0.45594000000E+02  0.51100000000E-03 0. -1.
         11   -1    0    0    0    0 -0.00000000000E+00 -0.00000000000E+00 -0.45593999997E+02  0.45594000000E+02  0.51100000000E-03 0.  1.
    9900012    2    1    2    0    0 -0.16882649284E+02 -0.63046845309E+01  0.50897534858E+01  0.72461588587E+02  0.70000023829E+02 0.  0.
         12    1    1    2    0    0  0.16882649284E+02  0.63046845309E+01 -0.50897534858E+01  0.18726411413E+02  0.00000000000E+00 0. -1.
         11    1    3    3    0    0  0.19219114447E+02 -0.55280343948E+01 -0.15391727249E+01  0.20057481829E+02  0.51100000000E-03 0. -1.
        -11    1    3    3    0    0 -0.32506379203E+02 -0.23003164094E+00  0.20254911070E+02  0.38301162204E+02  0.51100000000E-03 0.  1.
        -12    1    3    3    0    0 -0.35953845281E+01 -0.54661849517E+00 -0.13625984860E+02  0.14102944554E+02  0.00000000000E+00 0.  1.
</event>
<event>
 7    1  0.1283194E-013  0.7246157E+02  0.7816164E-02  0.1226708E+00
        -11   -1    0    0    0    0  0.00000000000E+00  0.00000000000E+00  0.45593999997E+02  0.45594000000E+02  0.51100000000E-03 0.  1.
         11   -1    0    0    0    0 -0.00000000000E+00 -0.00000000000E+00 -0.45593999997E+02  0.45594000000E+02  0.51100000000E-03 0. -1.
    9900012    2    1    2    0    0  0.14423547396E+02  0.21874241367E+01  0.11741192359E+02  0.72461571033E+02  0.70000000962E+02 0.  0.
         12    1    1    2    0    0 -0.14423547396E+02 -0.21874241367E+01 -0.11741192359E+02  0.18726428967E+02  0.00000000000E+00 0. -1.
         11    1    3    3    0    0 -0.25701925746E+01  0.13056887775E+02 -0.19168027884E+02  0.23334555951E+02  0.51100000000E-03 0. -1.
        -11    1    3    3    0    0  0.15976511829E+02 -0.53122159861E+01  0.37102587497E+02  0.40743963579E+02  0.51100000000E-03 0.  1.
        -12    1    3    3    0    0  0.10172281412E+01 -0.55572476519E+01 -0.61933672538E+01  0.83830515026E+01  0.00000000000E+00 0.  1.
</event>
<event>
 7    1  0.1283194E-013  0.7246162E+02  0.7816164E-02  0.1226708E+00
        -11   -1    0    0    0    0  0.00000000000E+00  0.00000000000E+00  0.45593999997E+02  0.45594000000E+02  0.51100000000E-03 0. -1.
         11   -1    0    0    0    0 -0.00000000000E+00 -0.00000000000E+00 -0.45593999997E+02  0.45594000000E+02  0.51100000000E-03 0.  1.
    9900012    2    1    2    0    0 -0.82807174303E+01 -0.15314013976E+02  0.68983971081E+01  0.72461623204E+02  0.70000068925E+02 0.  0.
         12    1    1    2    0    0  0.82807174303E+01  0.15314013976E+02 -0.68983971081E+01  0.18726376796E+02  0.00000000000E+00 0. -1.
         11    1    3    3    0    0  0.22107393262E-01 -0.17400289300E+02  0.23864005588E+02  0.29534070485E+02  0.51100000000E-03 0. -1.
        -11    1    3    3    0    0 -0.14928285040E+02  0.17054348245E+02 -0.12829517056E+02  0.26044212341E+02  0.51100000000E-03 0.  1.
         12    1    3    3    0    0  0.66254602163E+01 -0.14968072922E+02 -0.41360914242E+01  0.16883340378E+02  0.00000000000E+00 0. -1.
</event>
<event>
 7    1  0.1283194E-013  0.7246173E+02  0.7816164E-02  0.1226708E+00
        -11   -1    0    0    0    0  0.00000000000E+00  0.00000000000E+00  0.45593999997E+02  0.45594000000E+02  0.51100000000E-03 0.  1.
         11   -1    0    0    0    0 -0.00000000000E+00 -0.00000000000E+00 -0.45593999997E+02  0.45594000000E+02  0.51100000000E-03 0. -1.
    9900012    2    1    2    0    0  0.16833769766E+01 -0.15973176328E+02  0.96279303716E+01  0.72461730663E+02  0.70000208909E+02 0.  0.
         12    1    1    2    0    0 -0.16833769766E+01  0.15973176328E+02 -0.96279303716E+01  0.18726269337E+02  0.00000000000E+00 0. -1.
         11    1    3    3    0    0  0.10333228907E+02  0.48867868675E+00 -0.42798682550E+01  0.11195164092E+02  0.51100000000E-03 0. -1.
        -11    1    3    3    0    0 -0.26778471446E+02  0.57171080141E+01  0.17348824254E+02  0.32415329094E+02  0.51100000000E-03 0.  1.
        -12    1    3    3    0    0  0.18128619515E+02 -0.22178963029E+02 -0.34410256274E+01  0.28851237476E+02  0.00000000000E+00 0.  1.
</event>
<event>
 7    1  0.1283194E-013  0.7246139E+02  0.7816164E-02  0.1226708E+00
        -11   -1    0    0    0    0  0.00000000000E+00  0.00000000000E+00  0.45593999997E+02  0.45594000000E+02  0.51100000000E-03 0.  1.
         11   -1    0    0    0    0 -0.00000000000E+00 -0.00000000000E+00 -0.45593999997E+02  0.45594000000E+02  0.51100000000E-03 0. -1.
    9900012    2    1    2    0    0  0.73717316384E+01 -0.47289600029E+01  0.16552350286E+02  0.72461393525E+02  0.69999769725E+02 0.  0.
         12    1    1    2    0    0 -0.73717316384E+01  0.47289600029E+01 -0.16552350286E+02  0.18726606475E+02  0.00000000000E+00 0. -1.
         11    1    3    3    0    0  0.20739675953E+01 -0.10611932656E+02 -0.10032372479E+02  0.14750015393E+02  0.51100000000E-03 0. -1.
        -11    1    3    3    0    0 -0.21906030715E+02 -0.16980482545E+01  0.17360937700E+02  0.28002851777E+02  0.51100000000E-03 0.  1.
        -12    1    3    3    0    0  0.27203794758E+02  0.75810209073E+01  0.92237850655E+01  0.29708526355E+02  0.00000000000E+00 0.  1.
</event>
<event>
 7    1  0.1283194E-013  0.7246158E+02  0.7816164E-02  0.1226708E+00
        -11   -1    0    0    0    0  0.00000000000E+00  0.00000000000E+00  0.45593999997E+02  0.45594000000E+02  0.51100000000E-03 0.  1.
         11   -1    0    0    0    0 -0.00000000000E+00 -0.00000000000E+00 -0.45593999997E+02  0.45594000000E+02  0.51100000000E-03 0. -1.
    9900012    2    1    2    0    0 -0.17259173171E+02  0.69007123975E+01  0.22759694808E+01  0.72461576764E+02  0.70000008428E+02 0.  0.
         12    1    1    2    0    0  0.17259173171E+02 -0.69007123975E+01 -0.22759694808E+01  0.18726423236E+02  0.00000000000E+00 0. -1.
         11    1    3    3    0    0  0.11506052623E+02 -0.18879042092E+01  0.21589492607E+02  0.24536903238E+02  0.51100000000E-03 0. -1.
        -11    1    3    3    0    0 -0.21145130623E+02  0.21506380133E+01  0.47909131238E+01  0.21787488192E+02  0.51100000000E-03 0.  1.
         12    1    3    3    0    0 -0.76200951710E+01  0.66379785935E+01 -0.24104436250E+02  0.26137185333E+02  0.00000000000E+00 0. -1.
</event>
<event>
 7    1  0.1283194E-013  0.7246162E+02  0.7816164E-02  0.1226708E+00
        -11   -1    0    0    0    0  0.00000000000E+00  0.00000000000E+00  0.45593999997E+02  0.45594000000E+02  0.51100000000E-03 0.  1.
         11   -1    0    0    0    0 -0.00000000000E+00 -0.00000000000E+00 -0.45593999997E+02  0.45594000000E+02  0.51100000000E-03 0. -1.
    9900012    2    1    2    0    0  0.39970008205E+01  0.73018421123E+01  0.16774516027E+02  0.72461620165E+02  0.70000064966E+02 0.  0.
         12    1    1    2    0    0 -0.39970008205E+01 -0.73018421123E+01 -0.16774516027E+02  0.18726379835E+02  0.00000000000E+00 0. -1.
         11    1    3    3    0    0  0.21039412004E+01  0.15047493372E+02 -0.91594559821E+01  0.17741174130E+02  0.51100000000E-03 0. -1.
        -11    1    3    3    0    0 -0.87483612959E+01 -0.88657118705E+01  0.37171937107E+02  0.39203157792E+02  0.51100000000E-03 0.  1.
        -12    1    3    3    0    0  0.10641420916E+02  0.11200606110E+01 -0.11237965098E+02  0.15517288243E+02  0.00000000000E+00 0.  1.
</event>
<event>
 7    1  0.1283194E-013  0.7246147E+02  0.7816164E-02  0.1226708E+00
        -11   -1    0    0    0    0  0.00000000000E+00  0.00000000000E+00  0.45593999997E+02  0.45594000000E+02  0.51100000000E-03 0. -1.
         11   -1    0    0    0    0 -0.00000000000E+00 -0.00000000000E+00 -0.45593999997E+02  0.45594000000E+02  0.51100000000E-03 0.  1.
    9900012    2    1    2    0    0  0.68675903952E+01  0.10395008649E+02 -0.13980799795E+02  0.72461474279E+02  0.69999874923E+02 0.  0.
         12    1    1    2    0    0 -0.68675903952E+01 -0.10395008649E+02  0.13980799795E+02  0.18726525721E+02  0.00000000000E+00 0. -1.
         11    1    3    3    0    0 -0.15957707847E+02  0.14536191962E+02  0.18233763301E+00  0.21586629283E+02  0.51100000000E-03 0. -1.
        -11    1    3    3    0    0  0.19478870683E+01 -0.21544621376E+02 -0.74357917842E+01  0.22874789048E+02  0.51100000000E-03 0.  1.
        -12    1    3    3    0    0  0.20877411174E+02  0.17403438063E+02 -0.67273456441E+01  0.28000055949E+02  0.00000000000E+00 0.  1.
</event>
<event>
 7    1  0.1283194E-013  0.7246157E+02  0.7816164E-02  0.1226708E+00
        -11   -1    0    0    0    0  0.00000000000E+00  0.00000000000E+00  0.45593999997E+02  0.45594000000E+02  0.51100000000E-03 0. -1.
         11   -1    0    0    0    0 -0.00000000000E+00 -0.00000000000E+00 -0.45593999997E+02  0.45594000000E+02  0.51100000000E-03 0.  1.
    9900012    2    1    2    0    0  0.68395491430E+01  0.86829313403E+01 -0.15116427375E+02  0.72461571998E+02  0.70000002219E+02 0.  0.
         12    1    1    2    0    0 -0.68395491430E+01 -0.86829313403E+01  0.15116427375E+02  0.18726428002E+02  0.00000000000E+00 0. -1.
         11    1    3    3    0    0  0.97883350478E+01  0.43833616331E+01  0.17571603837E+02  0.20586078399E+02  0.51100000000E-03 0. -1.
        -11    1    3    3    0    0  0.11530872420E+02 -0.74748437137E+01 -0.30029567175E+02  0.33024373004E+02  0.51100000000E-03 0.  1.
        -12    1    3    3    0    0 -0.14479658325E+02  0.11774413421E+02 -0.26584640370E+01  0.18851120594E+02  0.00000000000E+00 0.  1.
</event>
<event>
 7    1  0.1283194E-013  0.7246153E+02  0.7816164E-02  0.1226708E+00
        -11   -1    0    0    0    0  0.00000000000E+00  0.00000000000E+00  0.45593999997E+02  0.45594000000E+02  0.51100000000E-03 0. -1.
         11   -1    0    0    0    0 -0.00000000000E+00 -0.00000000000E+00 -0.45593999997E+02  0.45594000000E+02  0.51100000000E-03 0.  1.
    9900012    2    1    2    0    0 -0.36346867205E+01  0.18356076142E+02 -0.72406169738E+00  0.72461528249E+02  0.69999945228E+02 0.  0.
         12    1    1    2    0    0  0.36346867205E+01 -0.18356076142E+02  0.72406169738E+00  0.18726471751E+02  0.00000000000E+00 0. -1.
         11    1    3    3    0    0 -0.78221415472E+01 -0.66334528325E+01  0.16749808208E+02  0.19640383655E+02  0.51100000000E-03 0. -1.
        -11    1    3    3    0    0 -0.18269993964E+01  0.16920533053E+01 -0.26873783301E+02  0.26988908840E+02  0.51100000000E-03 0.  1.
        -12    1    3    3    0    0  0.60144542230E+01  0.23297475670E+02  0.93999133961E+01  0.25832235754E+02  0.00000000000E+00 0.  1.
</event>
<event>
 7    1  0.1283194E-013  0.7246164E+02  0.7816164E-02  0.1226708E+00
        -11   -1    0    0    0    0  0.00000000000E+00  0.00000000000E+00  0.45593999997E+02  0.45594000000E+02  0.51100000000E-03 0.  1.
         11   -1    0    0    0    0 -0.00000000000E+00 -0.00000000000E+00 -0.45593999997E+02  0.45594000000E+02  0.51100000000E-03 0. -1.
    9900012    2    1    2    0    0  0.17169322509E+02 -0.58227171838E+01  0.46890143348E+01  0.72461640871E+02  0.70000091939E+02 0.  0.
         12    1    1    2    0    0 -0.17169322509E+02  0.58227171838E+01 -0.46890143348E+01  0.18726359129E+02  0.00000000000E+00 0. -1.
         11    1    3    3    0    0 -0.21915292663E+02 -0.24108326446E+01 -0.14799026009E+01  0.22097110184E+02  0.51100000000E-03 0. -1.
        -11    1    3    3    0    0  0.24556779957E+02 -0.16803748624E+02  0.70749316226E+01  0.30585226293E+02  0.51100000000E-03 0.  1.
         12    1    3    3    0    0  0.14527835215E+02  0.13391864084E+02 -0.90601468703E+00  0.19779304393E+02  0.00000000000E+00 0. -1.
</event>
<event>
 7    1  0.1283194E-013  0.7246162E+02  0.7816164E-02  0.1226708E+00
        -11   -1    0    0    0    0  0.00000000000E+00  0.00000000000E+00  0.45593999997E+02  0.45594000000E+02  0.51100000000E-03 0.  1.
         11   -1    0    0    0    0 -0.00000000000E+00 -0.00000000000E+00 -0.45593999997E+02  0.45594000000E+02  0.51100000000E-03 0. -1.
    9900012    2    1    2    0    0  0.65903296398E+01  0.15419476228E+02 -0.83357541383E+01  0.72461615165E+02  0.70000058453E+02 0.  0.
         12    1    1    2    0    0 -0.65903296398E+01 -0.15419476228E+02  0.83357541383E+01  0.18726384835E+02  0.00000000000E+00 0. -1.
         11    1    3    3    0    0  0.28483510785E+02  0.85334938659E+01  0.11779683019E+02  0.31982680259E+02  0.51100000000E-03 0. -1.
        -11    1    3    3    0    0 -0.11536285005E+02  0.84821983621E+01 -0.25082693252E+02  0.28882088944E+02  0.51100000000E-03 0.  1.
        -12    1    3    3    0    0 -0.10356896140E+02 -0.15962159996E+01  0.49672560939E+01  0.11596845962E+02  0.00000000000E+00 0.  1.
</event>
<event>
 7    1  0.1283194E-013  0.7246156E+02  0.7816164E-02  0.1226708E+00
        -11   -1    0    0    0    0  0.00000000000E+00  0.00000000000E+00  0.45593999997E+02  0.45594000000E+02  0.51100000000E-03 0.  1.
         11   -1    0    0    0    0 -0.00000000000E+00 -0.00000000000E+00 -0.45593999997E+02  0.45594000000E+02  0.51100000000E-03 0. -1.
    9900012    2    1    2    0    0  0.35497414282E+01 -0.10993545877E+02  0.14738411173E+02  0.72461562029E+02  0.69999989233E+02 0.  0.
         12    1    1    2    0    0 -0.35497414282E+01  0.10993545877E+02 -0.14738411173E+02  0.18726437971E+02  0.00000000000E+00 0. -1.
         11    1    3    3    0    0 -0.15814535454E+02  0.25179347997E+01 -0.16129438450E+02  0.22728799182E+02  0.51100000000E-03 0. -1.
        -11    1    3    3    0    0  0.59831913311E+01 -0.66558695339E+01  0.33318239334E+02  0.34499336955E+02  0.51100000000E-03 0.  1.
        -12    1    3    3    0    0  0.13381085551E+02 -0.68556111426E+01 -0.24503897109E+01  0.15233425892E+02  0.00000000000E+00 0.  1.
</event>
<event>
 7    1  0.1283194E-013  0.7246156E+02  0.7816164E-02  0.1226708E+00
        -11   -1    0    0    0    0  0.00000000000E+00  0.00000000000E+00  0.45593999997E+02  0.45594000000E+02  0.51100000000E-03 0. -1.
         11   -1    0    0    0    0 -0.00000000000E+00 -0.00000000000E+00 -0.45593999997E+02  0.45594000000E+02  0.51100000000E-03 0.  1.
    9900012    2    1    2    0    0  0.11143437813E+02  0.15046231291E+02 -0.33795332689E+00  0.72461561609E+02  0.69999988686E+02 0.  0.
         12    1    1    2    0    0 -0.11143437813E+02 -0.15046231291E+02  0.33795332689E+00  0.18726438391E+02  0.00000000000E+00 0. -1.
         11    1    3    3    0    0  0.17326933595E+02  0.43560130582E+01  0.98116171464E+01  0.20382966145E+02  0.51100000000E-03 0. -1.
        -11    1    3    3    0    0 -0.20598745978E+02  0.23636704050E+02 -0.92215165554E+01  0.32680858037E+02  0.51100000000E-03 0.  1.
        -12    1    3    3    0    0  0.14415250195E+02 -0.12946485817E+02 -0.92805391788E+00  0.19397737427E+02  0.00000000000E+00 0.  1.
</event>
<event>
 7    1  0.1283194E-013  0.7246162E+02  0.7816164E-02  0.1226708E+00
        -11   -1    0    0    0    0  0.00000000000E+00  0.00000000000E+00  0.45593999997E+02  0.45594000000E+02  0.51100000000E-03 0.  1.
         11   -1    0    0    0    0 -0.00000000000E+00 -0.00000000000E+00 -0.45593999997E+02  0.45594000000E+02  0.51100000000E-03 0. -1.
    9900012    2    1    2    0    0  0.56242217401E+01  0.13404824487E+02  0.11804922336E+02  0.72461618047E+02  0.70000062206E+02 0.  0.
         12    1    1    2    0    0 -0.56242217401E+01 -0.13404824487E+02 -0.11804922336E+02  0.18726381953E+02  0.00000000000E+00 0. -1.
         11    1    3    3    0    0  0.26672924133E+02 -0.19754182677E+00  0.29915327806E+01  0.26840886223E+02  0.51100000000E-03 0. -1.
        -11    1    3    3    0    0 -0.23196076463E+02 -0.63763861282E+01  0.85326821103E+01  0.25524947161E+02  0.51100000000E-03 0.  1.
         12    1    3    3    0    0  0.21473740698E+01  0.19978752442E+02  0.28070744504E+00  0.20095784663E+02  0.00000000000E+00 0. -1.
</event>
<event>
 7    1  0.1283194E-013  0.7246151E+02  0.7816164E-02  0.1226708E+00
        -11   -1    0    0    0    0  0.00000000000E+00  0.00000000000E+00  0.45593999997E+02  0.45594000000E+02  0.51100000000E-03 0. -1.
         11   -1    0    0    0    0 -0.00000000000E+00 -0.00000000000E+00 -0.45593999997E+02  0.45594000000E+02  0.51100000000E-03 0.  1.
    9900012    2    1    2    0    0  0.74296864279E+01  0.63636040616E+01 -0.15968272653E+02  0.72461509977E+02  0.69999921426E+02 0.  0.
         12    1    1    2    0    0 -0.74296864279E+01 -0.63636040616E+01  0.15968272653E+02  0.18726490023E+02  0.00000000000E+00 0. -1.
         11    1    3    3    0    0 -0.18937118591E+02  0.13945837537E+02  0.81141558738E+01  0.24878512233E+02  0.51100000000E-03 0. -1.
        -11    1    3    3    0    0  0.75298711953E+01 -0.17941974005E+02 -0.99336355209E+01  0.21846979341E+02  0.51100000000E-03 0.  1.
         12    1    3    3    0    0  0.18836933824E+02  0.10359740530E+02 -0.14148793006E+02  0.25736018403E+02  0.00000000000E+00 0. -1.
</event>
<event>
 7    1  0.1283194E-013  0.7246152E+02  0.7816164E-02  0.1226708E+00
        -11   -1    0    0    0    0  0.00000000000E+00  0.00000000000E+00  0.45593999997E+02  0.45594000000E+02  0.51100000000E-03 0.  1.
         11   -1    0    0    0    0 -0.00000000000E+00 -0.00000000000E+00 -0.45593999997E+02  0.45594000000E+02  0.51100000000E-03 0. -1.
    9900012    2    1    2    0    0  0.17204030765E+02  0.60791543618E+01  0.42126104822E+01  0.72461524641E+02  0.69999940528E+02 0.  0.
         12    1    1    2    0    0 -0.17204030765E+02 -0.60791543618E+01 -0.42126104822E+01  0.18726475359E+02  0.00000000000E+00 0. -1.
         11    1    3    3    0    0  0.23544129644E+01  0.19532152099E+02 -0.17596914791E+02  0.26395068411E+02  0.51100000000E-03 0. -1.
        -11    1    3    3    0    0  0.18152725280E+02 -0.21896036853E+02  0.79983041235E+01  0.29545401234E+02  0.51100000000E-03 0.  1.
         12    1    3    3    0    0 -0.33031074799E+01  0.84430391161E+01  0.13811221149E+02  0.16521054996E+02  0.00000000000E+00 0. -1.
</event>
<event>
 7    1  0.1283194E-013  0.7246155E+02  0.7816164E-02  0.1226708E+00
        -11   -1    0    0    0    0  0.00000000000E+00  0.00000000000E+00  0.45593999997E+02  0.45594000000E+02  0.51100000000E-03 0. -1.
         11   -1    0    0    0    0 -0.00000000000E+00 -0.00000000000E+00 -0.45593999997E+02  0.45594000000E+02  0.51100000000E-03 0.  1.
    9900012    2    1    2    0    0  0.84842753471E+01 -0.14531302700E+02 -0.82181619916E+01  0.72461551515E+02  0.69999975537E+02 0.  0.
         12    1    1    2    0    0 -0.84842753471E+01  0.14531302700E+02  0.82181619916E+01  0.18726448485E+02  0.00000000000E+00 0. -1.
         11    1    3    3    0    0 -0.25754962070E+01 -0.19157596879E+02  0.26079911260E+02  0.32462416276E+02  0.51100000000E-03 0. -1.
        -11    1    3    3    0    0 -0.17202536328E+01  0.69052585783E+01 -0.82478920339E+01  0.10893557356E+02  0.51100000000E-03 0.  1.
         12    1    3    3    0    0  0.12780025187E+02 -0.22789643990E+01 -0.26050181217E+02  0.29105577884E+02  0.00000000000E+00 0. -1.
</event>
<event>
 7    1  0.1283194E-013  0.7246157E+02  0.7816164E-02  0.1226708E+00
        -11   -1    0    0    0    0  0.00000000000E+00  0.00000000000E+00  0.45593999997E+02  0.45594000000E+02  0.51100000000E-03 0.  1.
         11   -1    0    0    0    0 -0.00000000000E+00 -0.00000000000E+00 -0.45593999997E+02  0.45594000000E+02  0.51100000000E-03 0. -1.
    9900012    2    1    2    0    0  0.11236294768E+02 -0.33030708328E+01  0.14612141197E+02  0.72461567681E+02  0.69999996595E+02 0.  0.
         12    1    1    2    0    0 -0.11236294768E+02  0.33030708328E+01 -0.14612141197E+02  0.18726432319E+02  0.00000000000E+00 0. -1.
         11    1    3    3    0    0  0.26179565457E+02 -0.12603774184E+02  0.19986823192E+02  0.35266100901E+02  0.51100000000E-03 0. -1.
        -11    1    3    3    0    0 -0.21115791629E+02  0.85130532385E+00  0.57718635309E+01  0.21906980298E+02  0.51100000000E-03 0.  1.
         12    1    3    3    0    0  0.61725209401E+01  0.84493980269E+01 -0.11146545525E+02  0.15288486482E+02  0.00000000000E+00 0. -1.
</event>
<event>
 7    1  0.1283194E-013  0.7246153E+02  0.7816164E-02  0.1226708E+00
        -11   -1    0    0    0    0  0.00000000000E+00  0.00000000000E+00  0.45593999997E+02  0.45594000000E+02  0.51100000000E-03 0. -1.
         11   -1    0    0    0    0 -0.00000000000E+00 -0.00000000000E+00 -0.45593999997E+02  0.45594000000E+02  0.51100000000E-03 0.  1.
    9900012    2    1    2    0    0  0.14948874435E+02 -0.12399934972E+01 -0.11210453932E+02  0.72461529214E+02  0.69999946485E+02 0.  0.
         12    1    1    2    0    0 -0.14948874435E+02  0.12399934972E+01  0.11210453932E+02  0.18726470786E+02  0.00000000000E+00 0. -1.
         11    1    3    3    0    0  0.70293774167E+01  0.13753566445E+02 -0.20917635202E+02  0.26002311426E+02  0.51100000000E-03 0. -1.
        -11    1    3    3    0    0  0.23656814639E+02 -0.43310234078E+00  0.22847318009E+01  0.23770832046E+02  0.51100000000E-03 0.  1.
         12    1    3    3    0    0 -0.15737317620E+02 -0.14560457601E+02  0.74224494686E+01  0.22688385742E+02  0.00000000000E+00 0. -1.
</event>
<event>
 7    1  0.1283194E-013  0.7246158E+02  0.7816164E-02  0.1226708E+00
        -11   -1    0    0    0    0  0.00000000000E+00  0.00000000000E+00  0.45593999997E+02  0.45594000000E+02  0.51100000000E-03 0.  1.
         11   -1    0    0    0    0 -0.00000000000E+00 -0.00000000000E+00 -0.45593999997E+02  0.45594000000E+02  0.51100000000E-03 0. -1.
    9900012    2    1    2    0    0 -0.38354731909E+00 -0.15926368674E+02  0.98428867102E+01  0.72461581590E+02  0.70000014714E+02 0.  0.
         12    1    1    2    0    0  0.38354731909E+00  0.15926368674E+02 -0.98428867102E+01  0.18726418410E+02  0.00000000000E+00 0. -1.
         11    1    3    3    0    0 -0.12086279684E+02 -0.19856514257E+02 -0.65106316442E+01  0.24140166522E+02  0.51100000000E-03 0. -1.
        -11    1    3    3    0    0  0.12054021738E+01  0.15178451267E+02  0.26022519804E+02  0.30149791284E+02  0.51100000000E-03 0.  1.
        -12    1    3    3    0    0  0.10497330191E+02 -0.11248305684E+02 -0.96690014491E+01  0.18171623783E+02  0.00000000000E+00 0.  1.
</event>
<event>
 7    1  0.1283194E-013  0.7246157E+02  0.7816164E-02  0.1226708E+00
        -11   -1    0    0    0    0  0.00000000000E+00  0.00000000000E+00  0.45593999997E+02  0.45594000000E+02  0.51100000000E-03 0.  1.
         11   -1    0    0    0    0 -0.00000000000E+00 -0.00000000000E+00 -0.45593999997E+02  0.45594000000E+02  0.51100000000E-03 0. -1.
    9900012    2    1    2    0    0 -0.10985038848E+02 -0.15152553956E+02  0.63894266164E+00  0.72461569010E+02  0.69999998327E+02 0.  0.
         12    1    1    2    0    0  0.10985038848E+02  0.15152553956E+02 -0.63894266164E+00  0.18726430990E+02  0.00000000000E+00 0. -1.
         11    1    3    3    0    0  0.18131541704E+02 -0.21633410449E+02 -0.29520507950E+01  0.28380836076E+02  0.51100000000E-03 0. -1.
        -11    1    3    3    0    0 -0.21014295521E+02 -0.67754752427E+01  0.13284963845E+02  0.25768157591E+02  0.51100000000E-03 0.  1.
        -12    1    3    3    0    0 -0.81022850312E+01  0.13256331736E+02 -0.96939703885E+01  0.18312575343E+02  0.00000000000E+00 0.  1.
</event>
<event>
 7    1  0.1283194E-013  0.7246157E+02  0.7816164E-02  0.1226708E+00
        -11   -1    0    0    0    0  0.00000000000E+00  0.00000000000E+00  0.45593999997E+02  0.45594000000E+02  0.51100000000E-03 0.  1.
         11   -1    0    0    0    0 -0.00000000000E+00 -0.00000000000E+00 -0.45593999997E+02  0.45594000000E+02  0.51100000000E-03 0. -1.
    9900012    2    1    2    0    0 -0.51126737233E+01 -0.43916646071E+01  0.17471494477E+02  0.72461567615E+02  0.69999996509E+02 0.  0.
         12    1    1    2    0    0  0.51126737233E+01  0.43916646071E+01 -0.17471494477E+02  0.18726432385E+02  0.00000000000E+00 0. -1.
         11    1    3    3    0    0 -0.90064368134E+01  0.17745554492E+02 -0.12262405158E+02  0.23374926499E+02  0.51100000000E-03 0. -1.
        -11    1    3    3    0    0  0.10455026084E+02  0.20134686074E+01  0.19157605227E+02  0.21917469392E+02  0.51100000000E-03 0.  1.
         12    1    3    3    0    0 -0.65612629937E+01 -0.24150687706E+02  0.10576294409E+02  0.27169171724E+02  0.00000000000E+00 0. -1.
</event>
<event>
 7    1  0.1283194E-013  0.7246160E+02  0.7816164E-02  0.1226708E+00
        -11   -1    0    0    0    0  0.00000000000E+00  0.00000000000E+00  0.45593999997E+02  0.45594000000E+02  0.51100000000E-03 0. -1.
         11   -1    0    0    0    0 -0.00000000000E+00 -0.00000000000E+00 -0.45593999997E+02  0.45594000000E+02  0.51100000000E-03 0.  1.
    9900012    2    1    2    0    0  0.19358611442E+01 -0.10530793094E+02 -0.15363360626E+02  0.72461601220E+02  0.70000040286E+02 0.  0.
         12    1    1    2    0    0 -0.19358611442E+01  0.10530793094E+02  0.15363360626E+02  0.18726398780E+02  0.00000000000E+00 0. -1.
         11    1    3    3    0    0 -0.16185960854E+02 -0.21985007594E+02 -0.21701123327E+02  0.34874985901E+02  0.51100000000E-03 0. -1.
        -11    1    3    3    0    0 -0.19876262831E+01  0.14637842968E+02  0.86134063333E+01  0.17099937834E+02  0.51100000000E-03 0.  1.
         12    1    3    3    0    0  0.20109448282E+02 -0.31836284687E+01 -0.22756436325E+01  0.20486677485E+02  0.00000000000E+00 0. -1.
</event>
<event>
 7    1  0.1283194E-013  0.7246159E+02  0.7816164E-02  0.1226708E+00
        -11   -1    0    0    0    0  0.00000000000E+00  0.00000000000E+00  0.45593999997E+02  0.45594000000E+02  0.51100000000E-03 0.  1.
         11   -1    0    0    0    0 -0.00000000000E+00 -0.00000000000E+00 -0.45593999997E+02  0.45594000000E+02  0.51100000000E-03 0. -1.
    9900012    2    1    2    0    0 -0.15608225358E+02 -0.10035430900E+02  0.25202840657E+01  0.72461590736E+02  0.70000026629E+02 0.  0.
         12    1    1    2    0    0  0.15608225358E+02  0.10035430900E+02 -0.25202840657E+01  0.18726409264E+02  0.00000000000E+00 0. -1.
         11    1    3    3    0    0 -0.15271169957E+02  0.81190475983E+01 -0.26736069624E+01  0.17500735419E+02  0.51100000000E-03 0. -1.
        -11    1    3    3    0    0 -0.14516012883E+02 -0.25936894665E+02 -0.11357535738E+02  0.31818717026E+02  0.51100000000E-03 0.  1.
        -12    1    3    3    0    0  0.14178957482E+02  0.77824161668E+01  0.16551426766E+02  0.23142138291E+02  0.00000000000E+00 0.  1.
</event>
<event>
 7    1  0.1283194E-013  0.7246153E+02  0.7816164E-02  0.1226708E+00
        -11   -1    0    0    0    0  0.00000000000E+00  0.00000000000E+00  0.45593999997E+02  0.45594000000E+02  0.51100000000E-03 0. -1.
         11   -1    0    0    0    0 -0.00000000000E+00 -0.00000000000E+00 -0.45593999997E+02  0.45594000000E+02  0.51100000000E-03 0.  1.
    9900012    2    1    2    0    0  0.17804574160E+02  0.34178863303E+01  0.46899586522E+01  0.72461534233E+02  0.69999953023E+02 0.  0.
         12    1    1    2    0    0 -0.17804574160E+02 -0.34178863303E+01 -0.46899586522E+01  0.18726465767E+02  0.00000000000E+00 0. -1.
         11    1    3    3    0    0 -0.71739822013E+00 -0.44884374656E+01  0.11008892694E+02  0.11910350528E+02  0.51100000000E-03 0. -1.
        -11    1    3    3    0    0  0.21432851701E+01  0.31287135659E+02 -0.63868944375E+01  0.32004233312E+02  0.51100000000E-03 0.  1.
        -12    1    3    3    0    0  0.16378687210E+02 -0.23380811863E+02  0.67960395233E-01  0.28546950392E+02  0.00000000000E+00 0.  1.
</event>
<event>
 7    1  0.1283194E-013  0.7246151E+02  0.7816164E-02  0.1226708E+00
        -11   -1    0    0    0    0  0.00000000000E+00  0.00000000000E+00  0.45593999997E+02  0.45594000000E+02  0.51100000000E-03 0.  1.
         11   -1    0    0    0    0 -0.00000000000E+00 -0.00000000000E+00 -0.45593999997E+02  0.45594000000E+02  0.51100000000E-03 0. -1.
    9900012    2    1    2    0    0  0.84439092148E+01  0.45356624822E+01  0.16087561197E+02  0.72461509078E+02  0.69999920255E+02 0.  0.
         12    1    1    2    0    0 -0.84439092148E+01 -0.45356624822E+01 -0.16087561197E+02  0.18726490922E+02  0.00000000000E+00 0. -1.
         11    1    3    3    0    0 -0.18896805546E+02 -0.12576194117E+02  0.13512408475E+02  0.26416568690E+02  0.51100000000E-03 0.  1.
        -11    1    3    3    0    0  0.21470302367E+02 -0.52820572483E+01 -0.27756731193E+01  0.22284038549E+02  0.51100000000E-03 0. -1.
         12    1    3    3    0    0  0.58704123934E+01  0.22393913847E+02  0.53508258414E+01  0.23760901840E+02  0.00000000000E+00 0. -1.
</event>
<event>
 7    1  0.1283194E-013  0.7246157E+02  0.7816164E-02  0.1226708E+00
        -11   -1    0    0    0    0  0.00000000000E+00  0.00000000000E+00  0.45593999997E+02  0.45594000000E+02  0.51100000000E-03 0. -1.
         11   -1    0    0    0    0 -0.00000000000E+00 -0.00000000000E+00 -0.45593999997E+02  0.45594000000E+02  0.51100000000E-03 0.  1.
    9900012    2    1    2    0    0 -0.10700881780E+02  0.77457558291E+01 -0.13273043569E+02  0.72461567082E+02  0.69999995816E+02 0.  0.
         12    1    1    2    0    0  0.10700881780E+02 -0.77457558291E+01  0.13273043569E+02  0.18726432918E+02  0.00000000000E+00 0. -1.
         11    1    3    3    0    0 -0.15257744338E+02  0.12773469817E+02  0.23607342013E+02  0.30875020496E+02  0.51100000000E-03 0. -1.
        -11    1    3    3    0    0  0.67771602334E+01  0.49145823771E+01 -0.22127467992E+02  0.23658145759E+02  0.51100000000E-03 0.  1.
         12    1    3    3    0    0 -0.22202976750E+01 -0.99422963653E+01 -0.14752917591E+02  0.17928400827E+02  0.00000000000E+00 0. -1.
</event>
<event>
 7    1  0.1283194E-013  0.7246157E+02  0.7816164E-02  0.1226708E+00
        -11   -1    0    0    0    0  0.00000000000E+00  0.00000000000E+00  0.45593999997E+02  0.45594000000E+02  0.51100000000E-03 0. -1.
         11   -1    0    0    0    0 -0.00000000000E+00 -0.00000000000E+00 -0.45593999997E+02  0.45594000000E+02  0.51100000000E-03 0.  1.
    9900012    2    1    2    0    0 -0.27027579440E+01  0.15278114835E+02 -0.10485879497E+02  0.72461565149E+02  0.69999993298E+02 0.  0.
         12    1    1    2    0    0  0.27027579440E+01 -0.15278114835E+02  0.10485879497E+02  0.18726434851E+02  0.00000000000E+00 0. -1.
         11    1    3    3    0    0  0.44833870730E+01  0.16811666309E+01 -0.20788768274E+02  0.21333072154E+02  0.51100000000E-03 0. -1.
        -11    1    3    3    0    0 -0.13916356032E+02  0.28415984740E+02  0.13737623823E+02  0.34494281592E+02  0.51100000000E-03 0.  1.
        -12    1    3    3    0    0  0.67302110151E+01 -0.14819036537E+02 -0.34347350452E+01  0.16634211403E+02  0.00000000000E+00 0.  1.
</event>
<event>
 7    1  0.1283194E-013  0.7246143E+02  0.7816164E-02  0.1226708E+00
        -11   -1    0    0    0    0  0.00000000000E+00  0.00000000000E+00  0.45593999997E+02  0.45594000000E+02  0.51100000000E-03 0.  1.
         11   -1    0    0    0    0 -0.00000000000E+00 -0.00000000000E+00 -0.45593999997E+02  0.45594000000E+02  0.51100000000E-03 0. -1.
    9900012    2    1    2    0    0  0.10682150654E+02  0.15141414145E+02 -0.27044122676E+01  0.72461425017E+02  0.69999810749E+02 0.  0.
         12    1    1    2    0    0 -0.10682150654E+02 -0.15141414145E+02  0.27044122676E+01  0.18726574983E+02  0.00000000000E+00 0. -1.
         11    1    3    3    0    0 -0.18444519819E+02  0.67535217459E+01 -0.66667374256E+01  0.20742607249E+02  0.51100000000E-03 0. -1.
        -11    1    3    3    0    0  0.24478331915E+02  0.24448700485E+02  0.27803223035E+00  0.34597759912E+02  0.51100000000E-03 0.  1.
         12    1    3    3    0    0  0.46483385575E+01 -0.16060808086E+02  0.36842929278E+01  0.17121057856E+02  0.00000000000E+00 0. -1.
</event>
<event>
 7    1  0.1283194E-013  0.7246153E+02  0.7816164E-02  0.1226708E+00
        -11   -1    0    0    0    0  0.00000000000E+00  0.00000000000E+00  0.45593999997E+02  0.45594000000E+02  0.51100000000E-03 0.  1.
         11   -1    0    0    0    0 -0.00000000000E+00 -0.00000000000E+00 -0.45593999997E+02  0.45594000000E+02  0.51100000000E-03 0. -1.
    9900012    2    1    2    0    0  0.19745766008E+01 -0.32942258354E+01  0.18328389555E+02  0.72461528355E+02  0.69999945366E+02 0.  0.
         12    1    1    2    0    0 -0.19745766008E+01  0.32942258354E+01 -0.18328389555E+02  0.18726471645E+02  0.00000000000E+00 0. -1.
         11    1    3    3    0    0  0.59032479139E+01  0.13350906236E+02 -0.11945335601E+02  0.18862292441E+02  0.51100000000E-03 0. -1.
        -11    1    3    3    0    0  0.43371698218E+01 -0.28432784075E+02  0.25481050749E+02  0.38425488935E+02  0.51100000000E-03 0.  1.
        -12    1    3    3    0    0 -0.82658411349E+01  0.11787652003E+02  0.47926744059E+01  0.15173746979E+02  0.00000000000E+00 0.  1.
</event>
<event>
 7    1  0.1283194E-013  0.7246161E+02  0.7816164E-02  0.1226708E+00
        -11   -1    0    0    0    0  0.00000000000E+00  0.00000000000E+00  0.45593999997E+02  0.45594000000E+02  0.51100000000E-03 0.  1.
         11   -1    0    0    0    0 -0.00000000000E+00 -0.00000000000E+00 -0.45593999997E+02  0.45594000000E+02  0.51100000000E-03 0. -1.
    9900012    2    1    2    0    0 -0.14270567259E+01  0.11689040212E+02  0.14560478777E+02  0.72461609686E+02  0.70000051315E+02 0.  0.
         12    1    1    2    0    0  0.14270567259E+01 -0.11689040212E+02 -0.14560478777E+02  0.18726390314E+02  0.00000000000E+00 0. -1.
         11    1    3    3    0    0 -0.61084903518E+01 -0.88293559684E+01  0.19649240521E+01  0.10914765595E+02  0.51100000000E-03 0. -1.
        -11    1    3    3    0    0  0.24148261321E+02  0.11959096947E+02  0.25143074401E+02  0.36855565593E+02  0.51100000000E-03 0.  1.
        -12    1    3    3    0    0 -0.19466827695E+02  0.85592992325E+01 -0.12547519676E+02  0.24691278498E+02  0.00000000000E+00 0.  1.
</event>
<event>
 7    1  0.1283194E-013  0.7246160E+02  0.7816164E-02  0.1226708E+00
        -11   -1    0    0    0    0  0.00000000000E+00  0.00000000000E+00  0.45593999997E+02  0.45594000000E+02  0.51100000000E-03 0.  1.
         11   -1    0    0    0    0 -0.00000000000E+00 -0.00000000000E+00 -0.45593999997E+02  0.45594000000E+02  0.51100000000E-03 0. -1.
    9900012    2    1    2    0    0 -0.23696806793E+01 -0.16098105486E+02  0.92689693344E+01  0.72461596734E+02  0.70000034443E+02 0.  0.
         12    1    1    2    0    0  0.23696806793E+01  0.16098105486E+02 -0.92689693344E+01  0.18726403266E+02  0.00000000000E+00 0. -1.
         11    1    3    3    0    0 -0.12311459379E+02  0.91643680630E+01 -0.89715206474E+00  0.15374087164E+02  0.51100000000E-03 0. -1.
        -11    1    3    3    0    0  0.11844011944E+02 -0.31539853637E+02  0.24277367431E+02  0.41526299570E+02  0.51100000000E-03 0.  1.
        -12    1    3    3    0    0 -0.19022332438E+01  0.62773800877E+01 -0.14111246032E+02  0.15561210000E+02  0.00000000000E+00 0.  1.
</event>
<event>
 8    1  0.1283194E-013  0.7246161E+02  0.7816164E-02  0.1226708E+00
        -11   -1    0    0    0    0  0.00000000000E+00  0.00000000000E+00  0.45593999997E+02  0.45594000000E+02  0.51100000000E-03 0. -1.
         11   -1    0    0    0    0 -0.00000000000E+00 -0.00000000000E+00 -0.45593999997E+02  0.45594000000E+02  0.51100000000E-03 0.  1.
    9900012    2    1    2    0    0 -0.36292011648E+01  0.17902374295E+02 -0.41245259984E+01  0.72461606295E+02  0.70000046898E+02 0.  0.
         24    2    3    3    0    0  0.82995594223E+01  0.22860656415E+02 -0.11616083450E+02  0.57528310475E+02  0.50824018073E+02 0.  0.
         12    1    1    2    0    0  0.36292011648E+01 -0.17902374295E+02  0.41245259984E+01  0.18726393705E+02  0.00000000000E+00 0. -1.
         11    1    3    3    0    0 -0.11928760587E+02 -0.49582821201E+01  0.74915574515E+01  0.14933295820E+02  0.51100000000E-03 0. -1.
        -11    1    4    4    0    0  0.79354808176E+01  0.37377472004E+02  0.10997994652E+01  0.38226389162E+02  0.51100000000E-03 0.  1.
         12    1    4    4    0    0  0.36407860464E+00 -0.14516815589E+02 -0.12715882915E+02  0.19301921314E+02  0.00000000000E+00 0. -1.
</event>
<event>
 7    1  0.1283194E-013  0.7246158E+02  0.7816164E-02  0.1226708E+00
        -11   -1    0    0    0    0  0.00000000000E+00  0.00000000000E+00  0.45593999997E+02  0.45594000000E+02  0.51100000000E-03 0.  1.
         11   -1    0    0    0    0 -0.00000000000E+00 -0.00000000000E+00 -0.45593999997E+02  0.45594000000E+02  0.51100000000E-03 0. -1.
    9900012    2    1    2    0    0  0.13000127990E+02  0.10042505174E+02  0.89901914141E+01  0.72461580706E+02  0.70000013563E+02 0.  0.
         12    1    1    2    0    0 -0.13000127990E+02 -0.10042505174E+02 -0.89901914141E+01  0.18726419294E+02  0.00000000000E+00 0. -1.
         11    1    3    3    0    0 -0.40378951239E+01 -0.43560704004E+01 -0.29545233738E+00  0.59470361281E+01  0.51100000000E-03 0. -1.
        -11    1    3    3    0    0  0.29089700663E+02  0.19679589450E+02  0.27104655700E+02  0.44363941287E+02  0.51100000000E-03 0.  1.
        -12    1    3    3    0    0 -0.12051677549E+02 -0.52810138756E+01 -0.17819011949E+02  0.22150603291E+02  0.00000000000E+00 0.  1.
</event>
<event>
 7    1  0.1283194E-013  0.7246155E+02  0.7816164E-02  0.1226708E+00
        -11   -1    0    0    0    0  0.00000000000E+00  0.00000000000E+00  0.45593999997E+02  0.45594000000E+02  0.51100000000E-03 0.  1.
         11   -1    0    0    0    0 -0.00000000000E+00 -0.00000000000E+00 -0.45593999997E+02  0.45594000000E+02  0.51100000000E-03 0. -1.
    9900012    2    1    2    0    0 -0.28852175629E+01 -0.59841114888E+01  0.17508450082E+02  0.72461550925E+02  0.69999974767E+02 0.  0.
         12    1    1    2    0    0  0.28852175629E+01  0.59841114888E+01 -0.17508450082E+02  0.18726449075E+02  0.00000000000E+00 0. -1.
         11    1    3    3    0    0  0.28177277626E+02 -0.48445547205E+01  0.11312622952E+01  0.28613081615E+02  0.51100000000E-03 0. -1.
        -11    1    3    3    0    0 -0.24348793940E+02  0.85017788203E+01  0.18720472131E+02  0.31868481082E+02  0.51100000000E-03 0.  1.
         12    1    3    3    0    0 -0.67137012497E+01 -0.96413355887E+01 -0.23432843442E+01  0.11979988227E+02  0.00000000000E+00 0. -1.
</event>
<event>
 7    1  0.1283194E-013  0.7246157E+02  0.7816164E-02  0.1226708E+00
        -11   -1    0    0    0    0  0.00000000000E+00  0.00000000000E+00  0.45593999997E+02  0.45594000000E+02  0.51100000000E-03 0. -1.
         11   -1    0    0    0    0 -0.00000000000E+00 -0.00000000000E+00 -0.45593999997E+02  0.45594000000E+02  0.51100000000E-03 0.  1.
    9900012    2    1    2    0    0 -0.10998663461E+02  0.89659835035E+01 -0.12219648386E+02  0.72461567751E+02  0.69999996686E+02 0.  0.
         12    1    1    2    0    0  0.10998663461E+02 -0.89659835035E+01  0.12219648386E+02  0.18726432249E+02  0.00000000000E+00 0. -1.
         11    1    3    3    0    0  0.10245902519E+02  0.10885361612E+02  0.74280115902E+01  0.16692662229E+02  0.51100000000E-03 0. -1.
        -11    1    3    3    0    0 -0.10800748130E+02 -0.18821183565E+02  0.67538004784E+01  0.22726788865E+02  0.51100000000E-03 0.  1.
        -12    1    3    3    0    0 -0.10443817851E+02  0.16901805457E+02 -0.26401460455E+02  0.33042116656E+02  0.00000000000E+00 0.  1.
</event>
<event>
 7    1  0.1283194E-013  0.7246156E+02  0.7816164E-02  0.1226708E+00
        -11   -1    0    0    0    0  0.00000000000E+00  0.00000000000E+00  0.45593999997E+02  0.45594000000E+02  0.51100000000E-03 0.  1.
         11   -1    0    0    0    0 -0.00000000000E+00 -0.00000000000E+00 -0.45593999997E+02  0.45594000000E+02  0.51100000000E-03 0. -1.
    9900012    2    1    2    0    0 -0.14821671158E+01  0.17489596062E+02  0.65266125065E+01  0.72461562523E+02  0.69999989877E+02 0.  0.
         12    1    1    2    0    0  0.14821671158E+01 -0.17489596062E+02 -0.65266125065E+01  0.18726437477E+02  0.00000000000E+00 0. -1.
         11    1    3    3    0    0 -0.15314263281E+02  0.33324769647E+02  0.62762109116E+01  0.37208302240E+02  0.51100000000E-03 0. -1.
        -11    1    3    3    0    0  0.19667096696E+02 -0.18934728905E+01 -0.24198616039E+01  0.19905669104E+02  0.51100000000E-03 0.  1.
        -12    1    3    3    0    0 -0.58350005302E+01 -0.13941700695E+02  0.26702631988E+01  0.15347591180E+02  0.00000000000E+00 0.  1.
</event>
<event>
 7    1  0.1283194E-013  0.7246157E+02  0.7816164E-02  0.1226708E+00
        -11   -1    0    0    0    0  0.00000000000E+00  0.00000000000E+00  0.45593999997E+02  0.45594000000E+02  0.51100000000E-03 0. -1.
         11   -1    0    0    0    0 -0.00000000000E+00 -0.00000000000E+00 -0.45593999997E+02  0.45594000000E+02  0.51100000000E-03 0.  1.
    9900012    2    1    2    0    0 -0.11347792715E+02  0.14561671353E+02  0.31407921752E+01  0.72461568210E+02  0.69999997284E+02 0.  0.
         12    1    1    2    0    0  0.11347792715E+02 -0.14561671353E+02 -0.31407921752E+01  0.18726431790E+02  0.00000000000E+00 0. -1.
         11    1    3    3    0    0  0.13722389793E+02 -0.93717031606E+01  0.19609653481E+02  0.25703527222E+02  0.51100000000E-03 0. -1.
        -11    1    3    3    0    0 -0.88130912586E+01  0.25800789563E+02 -0.85134238987E+01  0.28562732823E+02  0.51100000000E-03 0.  1.
        -12    1    3    3    0    0 -0.16257091250E+02 -0.18674150486E+01 -0.79554374069E+01  0.18195308164E+02  0.00000000000E+00 0.  1.
</event>
<event>
 7    1  0.1283194E-013  0.7246136E+02  0.7816164E-02  0.1226709E+00
        -11   -1    0    0    0    0  0.00000000000E+00  0.00000000000E+00  0.45593999997E+02  0.45594000000E+02  0.51100000000E-03 0.  1.
         11   -1    0    0    0    0 -0.00000000000E+00 -0.00000000000E+00 -0.45593999997E+02  0.45594000000E+02  0.51100000000E-03 0. -1.
    9900012    2    1    2    0    0 -0.68222462795E+01 -0.16066214234E+02  0.67838571645E+01  0.72461361163E+02  0.69999727567E+02 0.  0.
         12    1    1    2    0    0  0.68222462795E+01  0.16066214234E+02 -0.67838571645E+01  0.18726638837E+02  0.00000000000E+00 0. -1.
         11    1    3    3    0    0 -0.21305631503E+01  0.46288617906E+00 -0.21173969800E+02  0.21285923994E+02  0.51100000000E-03 0. -1.
        -11    1    3    3    0    0 -0.15984900270E+02 -0.20333417329E+02  0.29416081419E+02  0.39169768230E+02  0.51100000000E-03 0.  1.
         12    1    3    3    0    0  0.11293217141E+02  0.38043169160E+01 -0.14582544543E+01  0.12005668938E+02  0.00000000000E+00 0. -1.
</event>
<event>
 7    1  0.1283194E-013  0.7246151E+02  0.7816164E-02  0.1226708E+00
        -11   -1    0    0    0    0  0.00000000000E+00  0.00000000000E+00  0.45593999997E+02  0.45594000000E+02  0.51100000000E-03 0.  1.
         11   -1    0    0    0    0 -0.00000000000E+00 -0.00000000000E+00 -0.45593999997E+02  0.45594000000E+02  0.51100000000E-03 0. -1.
    9900012    2    1    2    0    0 -0.48768668227E+01 -0.13042009766E+02  0.12522127201E+02  0.72461507580E+02  0.69999918302E+02 0.  0.
         12    1    1    2    0    0  0.48768668227E+01  0.13042009766E+02 -0.12522127201E+02  0.18726492420E+02  0.00000000000E+00 0. -1.
         11    1    3    3    0    0  0.10736320003E+02 -0.36252449191E+01  0.26227706613E+02  0.28571026624E+02  0.51100000000E-03 0. -1.
        -11    1    3    3    0    0 -0.37404129360E+01 -0.21996699388E+02 -0.83217202549E+00  0.22327964158E+02  0.51100000000E-03 0.  1.
         12    1    3    3    0    0 -0.11872773889E+02  0.12579934542E+02 -0.12873407386E+02  0.21562516797E+02  0.00000000000E+00 0. -1.
</event>
<event>
 7    1  0.1283194E-013  0.7246138E+02  0.7816164E-02  0.1226709E+00
        -11   -1    0    0    0    0  0.00000000000E+00  0.00000000000E+00  0.45593999997E+02  0.45594000000E+02  0.51100000000E-03 0. -1.
         11   -1    0    0    0    0 -0.00000000000E+00 -0.00000000000E+00 -0.45593999997E+02  0.45594000000E+02  0.51100000000E-03 0.  1.
    9900012    2    1    2    0    0  0.11340195202E+00  0.94900614932E+01 -0.16143490577E+02  0.72461376835E+02  0.69999747983E+02 0.  0.
         12    1    1    2    0    0 -0.11340195202E+00 -0.94900614932E+01  0.16143490577E+02  0.18726623165E+02  0.00000000000E+00 0. -1.
         11    1    3    3    0    0  0.26115819022E+02  0.58568858345E+00  0.14314272170E+02  0.29787202324E+02  0.51100000000E-03 0. -1.
        -11    1    3    3    0    0 -0.16340554183E+02  0.75062538677E+01 -0.26747908832E+02  0.32230547393E+02  0.51100000000E-03 0.  1.
         12    1    3    3    0    0 -0.96618628867E+01  0.13981190421E+01 -0.37098539154E+01  0.10443627118E+02  0.00000000000E+00 0. -1.
</event>
<event>
 7    1  0.1283194E-013  0.7246153E+02  0.7816164E-02  0.1226708E+00
        -11   -1    0    0    0    0  0.00000000000E+00  0.00000000000E+00  0.45593999997E+02  0.45594000000E+02  0.51100000000E-03 0. -1.
         11   -1    0    0    0    0 -0.00000000000E+00 -0.00000000000E+00 -0.45593999997E+02  0.45594000000E+02  0.51100000000E-03 0.  1.
    9900012    2    1    2    0    0  0.18028120181E+02 -0.14618456513E+01  0.48508328330E+01  0.72461529720E+02  0.69999947144E+02 0.  0.
         12    1    1    2    0    0 -0.18028120181E+02  0.14618456513E+01 -0.48508328330E+01  0.18726470280E+02  0.00000000000E+00 0. -1.
         11    1    3    3    0    0 -0.73122987179E+01 -0.23553366546E+02  0.95683692182E+01  0.26453439813E+02  0.51100000000E-03 0. -1.
        -11    1    3    3    0    0  0.53919782831E+01  0.10173224580E+02 -0.16369190187E+02  0.20012953700E+02  0.51100000000E-03 0.  1.
         12    1    3    3    0    0  0.19948440616E+02  0.11918296314E+02  0.11651653802E+02  0.25995136206E+02  0.00000000000E+00 0. -1.
</event>
<event>
 7    1  0.1283194E-013  0.7246157E+02  0.7816164E-02  0.1226708E+00
        -11   -1    0    0    0    0  0.00000000000E+00  0.00000000000E+00  0.45593999997E+02  0.45594000000E+02  0.51100000000E-03 0.  1.
         11   -1    0    0    0    0 -0.00000000000E+00 -0.00000000000E+00 -0.45593999997E+02  0.45594000000E+02  0.51100000000E-03 0. -1.
    9900012    2    1    2    0    0  0.18389943404E+01  0.22420955791E+00  0.18634561188E+02  0.72461573732E+02  0.70000004478E+02 0.  0.
         12    1    1    2    0    0 -0.18389943404E+01 -0.22420955791E+00 -0.18634561188E+02  0.18726426268E+02  0.00000000000E+00 0. -1.
         11    1    3    3    0    0 -0.18213459210E+01  0.11490887579E+02  0.89998171213E+01  0.14708994078E+02  0.51100000000E-03 0. -1.
        -11    1    3    3    0    0  0.16758076222E+02 -0.21027950826E+01 -0.18713411020E+02  0.25208066528E+02  0.51100000000E-03 0.  1.
        -12    1    3    3    0    0 -0.13097735960E+02 -0.91638829383E+01  0.28348155086E+02  0.32544513126E+02  0.00000000000E+00 0.  1.
</event>
<event>
 7    1  0.1283194E-013  0.7246157E+02  0.7816164E-02  0.1226708E+00
        -11   -1    0    0    0    0  0.00000000000E+00  0.00000000000E+00  0.45593999997E+02  0.45594000000E+02  0.51100000000E-03 0.  1.
         11   -1    0    0    0    0 -0.00000000000E+00 -0.00000000000E+00 -0.45593999997E+02  0.45594000000E+02  0.51100000000E-03 0. -1.
    9900012    2    1    2    0    0  0.31060748050E+00 -0.14266787764E+02 -0.12126067467E+02  0.72461568885E+02  0.69999998163E+02 0.  0.
         12    1    1    2    0    0 -0.31060748050E+00  0.14266787764E+02  0.12126067467E+02  0.18726431115E+02  0.00000000000E+00 0. -1.
         11    1    3    3    0    0  0.22366749603E+02 -0.27886591133E+02 -0.21076588080E+02  0.41498867674E+02  0.51100000000E-03 0. -1.
        -11    1    3    3    0    0 -0.59203345942E+01  0.54787252976E+01 -0.37276586443E+01  0.88860695374E+01  0.51100000000E-03 0.  1.
         12    1    3    3    0    0 -0.16135807528E+02  0.81410780713E+01  0.12678179258E+02  0.22076631673E+02  0.00000000000E+00 0. -1.
</event>
<event>
 7    1  0.1283194E-013  0.7246169E+02  0.7816164E-02  0.1226708E+00
        -11   -1    0    0    0    0  0.00000000000E+00  0.00000000000E+00  0.45593999997E+02  0.45594000000E+02  0.51100000000E-03 0. -1.
         11   -1    0    0    0    0 -0.00000000000E+00 -0.00000000000E+00 -0.45593999997E+02  0.45594000000E+02  0.51100000000E-03 0.  1.
    9900012    2    1    2    0    0 -0.76696630642E+01  0.90330896172E+01 -0.14500142040E+02  0.72461693404E+02  0.70000160373E+02 0.  0.
         12    1    1    2    0    0  0.76696630642E+01 -0.90330896172E+01  0.14500142040E+02  0.18726306596E+02  0.00000000000E+00 0. -1.
         11    1    3    3    0    0 -0.40877596524E+01 -0.11899534389E+02  0.22539936541E+02  0.25813900077E+02  0.51100000000E-03 0. -1.
        -11    1    3    3    0    0  0.77713170056E+01  0.82479449789E+01 -0.14791351619E+02  0.18633465790E+02  0.51100000000E-03 0.  1.
         12    1    3    3    0    0 -0.11353220417E+02  0.12684679028E+02 -0.22248726962E+02  0.28014327536E+02  0.00000000000E+00 0. -1.
</event>
<event>
 7    1  0.1283194E-013  0.7246160E+02  0.7816164E-02  0.1226708E+00
        -11   -1    0    0    0    0  0.00000000000E+00  0.00000000000E+00  0.45593999997E+02  0.45594000000E+02  0.51100000000E-03 0. -1.
         11   -1    0    0    0    0 -0.00000000000E+00 -0.00000000000E+00 -0.45593999997E+02  0.45594000000E+02  0.51100000000E-03 0.  1.
    9900012    2    1    2    0    0 -0.12425826881E+02  0.10013978082E+02 -0.97978166244E+01  0.72461597748E+02  0.70000035763E+02 0.  0.
         12    1    1    2    0    0  0.12425826881E+02 -0.10013978082E+02  0.97978166244E+01  0.18726402252E+02  0.00000000000E+00 0. -1.
         11    1    3    3    0    0 -0.17921218280E+02  0.30269271363E+02 -0.20804864312E+01  0.35238150881E+02  0.51100000000E-03 0. -1.
        -11    1    3    3    0    0  0.17591744807E+02 -0.84681785593E+01 -0.39829239982E+01  0.19925943322E+02  0.51100000000E-03 0.  1.
        -12    1    3    3    0    0 -0.12096353408E+02 -0.11787114721E+02 -0.37344061950E+01  0.17297503544E+02  0.00000000000E+00 0.  1.
</event>
<event>
 7    1  0.1283194E-013  0.7246155E+02  0.7816164E-02  0.1226708E+00
        -11   -1    0    0    0    0  0.00000000000E+00  0.00000000000E+00  0.45593999997E+02  0.45594000000E+02  0.51100000000E-03 0. -1.
         11   -1    0    0    0    0 -0.00000000000E+00 -0.00000000000E+00 -0.45593999997E+02  0.45594000000E+02  0.51100000000E-03 0.  1.
    9900012    2    1    2    0    0  0.84802845782E+01 -0.12508873837E+02  0.11058604290E+02  0.72461551323E+02  0.69999975286E+02 0.  0.
         12    1    1    2    0    0 -0.84802845782E+01  0.12508873837E+02 -0.11058604290E+02  0.18726448677E+02  0.00000000000E+00 0. -1.
         11    1    3    3    0    0  0.59454623329E+01 -0.16960824788E+02  0.25242184778E+02  0.30986868065E+02  0.51100000000E-03 0. -1.
        -11    1    3    3    0    0  0.95439642745E+01  0.20146647056E+01 -0.25860674913E+02  0.27639114226E+02  0.51100000000E-03 0.  1.
        -12    1    3    3    0    0 -0.70091420291E+01  0.24372862451E+01  0.11677094425E+02  0.13835569032E+02  0.00000000000E+00 0.  1.
</event>
<event>
 7    1  0.1283194E-013  0.7246158E+02  0.7816164E-02  0.1226708E+00
        -11   -1    0    0    0    0  0.00000000000E+00  0.00000000000E+00  0.45593999997E+02  0.45594000000E+02  0.51100000000E-03 0. -1.
         11   -1    0    0    0    0 -0.00000000000E+00 -0.00000000000E+00 -0.45593999997E+02  0.45594000000E+02  0.51100000000E-03 0.  1.
    9900012    2    1    2    0    0  0.50735329425E+01 -0.16818958784E+02 -0.64854235861E+01  0.72461579355E+02  0.70000011803E+02 0.  0.
         12    1    1    2    0    0 -0.50735329425E+01  0.16818958784E+02  0.64854235861E+01  0.18726420645E+02  0.00000000000E+00 0. -1.
         11    1    3    3    0    0  0.29352904715E+02  0.30543293969E+01 -0.46908833785E+01  0.29881872940E+02  0.51100000000E-03 0. -1.
        -11    1    3    3    0    0 -0.22494164650E+02 -0.29900107363E+01 -0.86303587340E+01  0.24277782016E+02  0.51100000000E-03 0.  1.
         12    1    3    3    0    0 -0.17852071232E+01 -0.16883277445E+02  0.68358185264E+01  0.18301924398E+02  0.00000000000E+00 0. -1.
</event>
<event>
 7    1  0.1283194E-013  0.7246156E+02  0.7816164E-02  0.1226708E+00
        -11   -1    0    0    0    0  0.00000000000E+00  0.00000000000E+00  0.45593999997E+02  0.45594000000E+02  0.51100000000E-03 0.  1.
         11   -1    0    0    0    0 -0.00000000000E+00 -0.00000000000E+00 -0.45593999997E+02  0.45594000000E+02  0.51100000000E-03 0. -1.
    9900012    2    1    2    0    0  0.79311544464E+01  0.45070110868E+01  0.16354301365E+02  0.72461560592E+02  0.69999987360E+02 0.  0.
         12    1    1    2    0    0 -0.79311544464E+01 -0.45070110868E+01 -0.16354301365E+02  0.18726439408E+02  0.00000000000E+00 0. -1.
         11    1    3    3    0    0  0.33567444297E+02  0.52813206090E+00  0.12968154413E+01  0.33596636300E+02  0.51100000000E-03 0. -1.
        -11    1    3    3    0    0 -0.10574971601E+02 -0.91354017105E+01  0.12466339897E+02  0.18726858238E+02  0.51100000000E-03 0.  1.
        -12    1    3    3    0    0 -0.15061318250E+02  0.13114280736E+02  0.25911460266E+01  0.20138066054E+02  0.00000000000E+00 0.  1.
</event>
<event>
 8    1  0.1283194E-013  0.7246139E+02  0.7816164E-02  0.1226708E+00
        -11   -1    0    0    0    0  0.00000000000E+00  0.00000000000E+00  0.45593999997E+02  0.45594000000E+02  0.51100000000E-03 0. -1.
         11   -1    0    0    0    0 -0.00000000000E+00 -0.00000000000E+00 -0.45593999997E+02  0.45594000000E+02  0.51100000000E-03 0.  1.
    9900012    2    1    2    0    0 -0.11120609911E+02  0.14806147351E+02 -0.27921220805E+01  0.72461390326E+02  0.69999765558E+02 0.  0.
        -24    2    3    3    0    0 -0.59617476026E+01  0.28068976445E+02 -0.42830759181E+01  0.58152671323E+02  0.50398200063E+02 0.  0.
         12    1    1    2    0    0  0.11120609911E+02 -0.14806147351E+02  0.27921220805E+01  0.18726609674E+02  0.00000000000E+00 0. -1.
         11    1    4    4    0    0 -0.14927153334E+02  0.35675738833E+02 -0.15724166878E+02  0.41747187596E+02  0.51100000000E-03 0. -1.
        -11    1    3    3    0    0 -0.51588623084E+01 -0.13262829094E+02  0.14909538376E+01  0.14308719003E+02  0.51100000000E-03 0.  1.
        -12    1    4    4    0    0  0.89654057312E+01 -0.76067623880E+01  0.11441090960E+02  0.16405483727E+02  0.00000000000E+00 0.  1.
</event>
<event>
 7    1  0.1283194E-013  0.7246153E+02  0.7816164E-02  0.1226708E+00
        -11   -1    0    0    0    0  0.00000000000E+00  0.00000000000E+00  0.45593999997E+02  0.45594000000E+02  0.51100000000E-03 0.  1.
         11   -1    0    0    0    0 -0.00000000000E+00 -0.00000000000E+00 -0.45593999997E+02  0.45594000000E+02  0.51100000000E-03 0. -1.
    9900012    2    1    2    0    0  0.13719936354E+02  0.58585893108E+01  0.11319051166E+02  0.72461530990E+02  0.69999948799E+02 0.  0.
         12    1    1    2    0    0 -0.13719936354E+02 -0.58585893108E+01 -0.11319051166E+02  0.18726469010E+02  0.00000000000E+00 0. -1.
         11    1    3    3    0    0 -0.10467447215E+02  0.12104330820E+01 -0.19310060816E+02  0.21997978280E+02  0.51100000000E-03 0. -1.
        -11    1    3    3    0    0  0.11368987634E+02  0.12180874522E+02  0.31430706556E+02  0.35574104329E+02  0.51100000000E-03 0.  1.
         12    1    3    3    0    0  0.12818395935E+02 -0.75327182930E+01 -0.80159457434E+00  0.14889448381E+02  0.00000000000E+00 0. -1.
</event>
<event>
 7    1  0.1283194E-013  0.7246153E+02  0.7816164E-02  0.1226708E+00
        -11   -1    0    0    0    0  0.00000000000E+00  0.00000000000E+00  0.45593999997E+02  0.45594000000E+02  0.51100000000E-03 0. -1.
         11   -1    0    0    0    0 -0.00000000000E+00 -0.00000000000E+00 -0.45593999997E+02  0.45594000000E+02  0.51100000000E-03 0.  1.
    9900012    2    1    2    0    0 -0.84506191380E+01  0.42645179018E+01 -0.16158014830E+02  0.72461534236E+02  0.69999953027E+02 0.  0.
         12    1    1    2    0    0  0.84506191380E+01 -0.42645179018E+01  0.16158014830E+02  0.18726465764E+02  0.00000000000E+00 0. -1.
         11    1    3    3    0    0  0.60993023082E+01 -0.21782330772E+01 -0.13610513718E+01  0.66180547809E+01  0.51100000000E-03 0. -1.
        -11    1    3    3    0    0 -0.26269406547E+02 -0.12455337974E+02  0.11623865667E+02  0.31310244612E+02  0.51100000000E-03 0.  1.
        -12    1    3    3    0    0  0.11719485101E+02  0.18898088953E+02 -0.26420829125E+02  0.34533234843E+02  0.00000000000E+00 0.  1.
</event>
<event>
 7    1  0.1283194E-013  0.7246159E+02  0.7816164E-02  0.1226708E+00
        -11   -1    0    0    0    0  0.00000000000E+00  0.00000000000E+00  0.45593999997E+02  0.45594000000E+02  0.51100000000E-03 0. -1.
         11   -1    0    0    0    0 -0.00000000000E+00 -0.00000000000E+00 -0.45593999997E+02  0.45594000000E+02  0.51100000000E-03 0.  1.
    9900012    2    1    2    0    0  0.24930312569E+01  0.13413766215E+02 -0.12827077517E+02  0.72461594938E+02  0.70000032103E+02 0.  0.
         12    1    1    2    0    0 -0.24930312569E+01 -0.13413766215E+02  0.12827077517E+02  0.18726405062E+02  0.00000000000E+00 0. -1.
         11    1    3    3    0    0 -0.12771016285E+02 -0.13102641740E+01 -0.25570767782E+02  0.28612581400E+02  0.51100000000E-03 0. -1.
        -11    1    3    3    0    0  0.11740136727E+02  0.19673180108E+02 -0.63814186365E+01  0.23782080018E+02  0.51100000000E-03 0.  1.
         12    1    3    3    0    0  0.35239108143E+01 -0.49491497183E+01  0.19125108902E+02  0.20066933519E+02  0.00000000000E+00 0. -1.
</event>
<event>
 7    1  0.1283194E-013  0.7246154E+02  0.7816164E-02  0.1226708E+00
        -11   -1    0    0    0    0  0.00000000000E+00  0.00000000000E+00  0.45593999997E+02  0.45594000000E+02  0.51100000000E-03 0. -1.
         11   -1    0    0    0    0 -0.00000000000E+00 -0.00000000000E+00 -0.45593999997E+02  0.45594000000E+02  0.51100000000E-03 0.  1.
    9900012    2    1    2    0    0 -0.18570739593E+01 -0.18227524292E+02 -0.38715510291E+01  0.72461540834E+02  0.69999961623E+02 0.  0.
         12    1    1    2    0    0  0.18570739593E+01  0.18227524292E+02  0.38715510291E+01  0.18726459166E+02  0.00000000000E+00 0. -1.
         11    1    3    3    0    0 -0.16116439344E+02 -0.14479270143E+02  0.21556233234E+02  0.30562396380E+02  0.51100000000E-03 0. -1.
        -11    1    3    3    0    0  0.41549891563E+01 -0.13340447254E+02 -0.24159808737E+02  0.27909278499E+02  0.51100000000E-03 0.  1.
        -12    1    3    3    0    0  0.10104376228E+02  0.95921931044E+01 -0.12679755258E+01  0.13989865955E+02  0.00000000000E+00 0.  1.
</event>
<event>
 7    1  0.1283194E-013  0.7246155E+02  0.7816164E-02  0.1226708E+00
        -11   -1    0    0    0    0  0.00000000000E+00  0.00000000000E+00  0.45593999997E+02  0.45594000000E+02  0.51100000000E-03 0. -1.
         11   -1    0    0    0    0 -0.00000000000E+00 -0.00000000000E+00 -0.45593999997E+02  0.45594000000E+02  0.51100000000E-03 0.  1.
    9900012    2    1    2    0    0  0.15857601743E+02 -0.97954533986E+01  0.18070162757E+01  0.72461554845E+02  0.69999979874E+02 0.  0.
         12    1    1    2    0    0 -0.15857601743E+02  0.97954533986E+01 -0.18070162757E+01  0.18726445155E+02  0.00000000000E+00 0. -1.
         11    1    3    3    0    0 -0.44805584157E+00 -0.28436011466E+02  0.13800704573E+02  0.31611183924E+02  0.51100000000E-03 0.  1.
        -11    1    3    3    0    0  0.14616077860E+02 -0.46744589157E+01 -0.73611917665E+01  0.17019619345E+02  0.51100000000E-03 0. -1.
         12    1    3    3    0    0  0.16895797247E+01  0.23315016983E+02 -0.46324965305E+01  0.23830751576E+02  0.00000000000E+00 0. -1.
</event>
<event>
 7    1  0.1283194E-013  0.7246162E+02  0.7816164E-02  0.1226708E+00
        -11   -1    0    0    0    0  0.00000000000E+00  0.00000000000E+00  0.45593999997E+02  0.45594000000E+02  0.51100000000E-03 0. -1.
         11   -1    0    0    0    0 -0.00000000000E+00 -0.00000000000E+00 -0.45593999997E+02  0.45594000000E+02  0.51100000000E-03 0.  1.
    9900012    2    1    2    0    0  0.87938580056E+01  0.11609971239E+02 -0.11770889319E+02  0.72461622717E+02  0.70000068290E+02 0.  0.
         12    1    1    2    0    0 -0.87938580056E+01 -0.11609971239E+02  0.11770889319E+02  0.18726377283E+02  0.00000000000E+00 0. -1.
         11    1    3    3    0    0 -0.74988836573E+01 -0.13670363996E+01  0.97895018763E+01  0.12407110537E+02  0.51100000000E-03 0. -1.
        -11    1    3    3    0    0  0.26928471841E+02  0.21879405148E+02 -0.33368263317E+00  0.34698160033E+02  0.51100000000E-03 0.  1.
        -12    1    3    3    0    0 -0.10635730178E+02 -0.89023975088E+01 -0.21226708562E+02  0.25356352147E+02  0.00000000000E+00 0.  1.
</event>
<event>
 7    1  0.1283194E-013  0.7246168E+02  0.7816164E-02  0.1226708E+00
        -11   -1    0    0    0    0  0.00000000000E+00  0.00000000000E+00  0.45593999997E+02  0.45594000000E+02  0.51100000000E-03 0.  1.
         11   -1    0    0    0    0 -0.00000000000E+00 -0.00000000000E+00 -0.45593999997E+02  0.45594000000E+02  0.51100000000E-03 0. -1.
    9900012    2    1    2    0    0 -0.70012465455E+01 -0.14250718294E+02  0.99284708435E+01  0.72461682733E+02  0.70000146472E+02 0.  0.
         12    1    1    2    0    0  0.70012465455E+01  0.14250718294E+02 -0.99284708435E+01  0.18726317267E+02  0.00000000000E+00 0. -1.
         11    1    3    3    0    0  0.25709699733E+00 -0.10793646202E+02  0.31754602316E+02  0.33539881719E+02  0.51100000000E-03 0. -1.
        -11    1    3    3    0    0 -0.10438015239E+02  0.12205802278E+02 -0.13013123981E+02  0.20670635389E+02  0.51100000000E-03 0.  1.
         12    1    3    3    0    0  0.31796716960E+01 -0.15662874371E+02 -0.88130074912E+01  0.18251165625E+02  0.00000000000E+00 0. -1.
</event>
<event>
 7    1  0.1283194E-013  0.7246155E+02  0.7816164E-02  0.1226708E+00
        -11   -1    0    0    0    0  0.00000000000E+00  0.00000000000E+00  0.45593999997E+02  0.45594000000E+02  0.51100000000E-03 0.  1.
         11   -1    0    0    0    0 -0.00000000000E+00 -0.00000000000E+00 -0.45593999997E+02  0.45594000000E+02  0.51100000000E-03 0. -1.
    9900012    2    1    2    0    0  0.86465244754E+01  0.16182035458E+02 -0.37495906581E+01  0.72461545793E+02  0.69999968082E+02 0.  0.
         12    1    1    2    0    0 -0.86465244754E+01 -0.16182035458E+02  0.37495906581E+01  0.18726454207E+02  0.00000000000E+00 0. -1.
         11    1    3    3    0    0 -0.50072113323E+01  0.48083699354E+01 -0.51473086901E+01  0.86421857058E+01  0.51100000000E-03 0. -1.
        -11    1    3    3    0    0  0.30329789213E+02  0.20780405838E+02 -0.13906799603E+02  0.39308020250E+02  0.51100000000E-03 0.  1.
        -12    1    3    3    0    0 -0.16676053405E+02 -0.94067403151E+01  0.15304517636E+02  0.24511339837E+02  0.00000000000E+00 0.  1.
</event>
<event>
 7    1  0.1283194E-013  0.7246157E+02  0.7816164E-02  0.1226708E+00
        -11   -1    0    0    0    0  0.00000000000E+00  0.00000000000E+00  0.45593999997E+02  0.45594000000E+02  0.51100000000E-03 0.  1.
         11   -1    0    0    0    0 -0.00000000000E+00 -0.00000000000E+00 -0.45593999997E+02  0.45594000000E+02  0.51100000000E-03 0. -1.
    9900012    2    1    2    0    0  0.10867975719E+02 -0.12974220868E+02  0.80147359009E+01  0.72461566946E+02  0.69999995638E+02 0.  0.
         12    1    1    2    0    0 -0.10867975719E+02  0.12974220868E+02 -0.80147359009E+01  0.18726433054E+02  0.00000000000E+00 0. -1.
         11    1    3    3    0    0 -0.16485448395E+02  0.11121817825E+02  0.58763772657E+00  0.19894978233E+02  0.51100000000E-03 0. -1.
        -11    1    3    3    0    0  0.11687066251E+02 -0.19139927647E+02  0.21399279734E+02  0.30997637350E+02  0.51100000000E-03 0.  1.
        -12    1    3    3    0    0  0.15666357863E+02 -0.49561110463E+01 -0.13972181559E+02  0.21568951364E+02  0.00000000000E+00 0.  1.
</event>
<event>
 8    1  0.1283194E-013  0.7246162E+02  0.7816164E-02  0.1226708E+00
        -11   -1    0    0    0    0  0.00000000000E+00  0.00000000000E+00  0.45593999997E+02  0.45594000000E+02  0.51100000000E-03 0.  1.
         11   -1    0    0    0    0 -0.00000000000E+00 -0.00000000000E+00 -0.45593999997E+02  0.45594000000E+02  0.51100000000E-03 0. -1.
    9900012    2    1    2    0    0  0.96770542467E+01 -0.16029799913E+02  0.27837461187E+00  0.72461618701E+02  0.70000063058E+02 0.  0.
         24    2    3    3    0    0  0.11632507822E+02 -0.50505273942E+01  0.90486155011E+01  0.58274111899E+02  0.56153108641E+02 0.  0.
         12    1    1    2    0    0 -0.96770542467E+01  0.16029799913E+02 -0.27837461187E+00  0.18726381299E+02  0.00000000000E+00 0. -1.
         11    1    3    3    0    0 -0.19554535751E+01 -0.10979272519E+02 -0.87702408892E+01  0.14187506801E+02  0.51100000000E-03 0. -1.
        -11    1    4    4    0    0 -0.26655104482E+01  0.10188564242E+01  0.31138942308E+02  0.31269421847E+02  0.51100000000E-03 0.  1.
         12    1    4    4    0    0  0.14298018270E+02 -0.60693838184E+01 -0.22090326807E+02  0.27004690052E+02  0.00000000000E+00 0. -1.
</event>
<event>
 7    1  0.1283194E-013  0.7246154E+02  0.7816164E-02  0.1226708E+00
        -11   -1    0    0    0    0  0.00000000000E+00  0.00000000000E+00  0.45593999997E+02  0.45594000000E+02  0.51100000000E-03 0.  1.
         11   -1    0    0    0    0 -0.00000000000E+00 -0.00000000000E+00 -0.45593999997E+02  0.45594000000E+02  0.51100000000E-03 0. -1.
    9900012    2    1    2    0    0 -0.76028677846E+01 -0.17084282711E+02 -0.10019065932E+01  0.72461544619E+02  0.69999966553E+02 0.  0.
         12    1    1    2    0    0  0.76028677846E+01  0.17084282711E+02  0.10019065932E+01  0.18726455381E+02  0.00000000000E+00 0. -1.
         11    1    3    3    0    0  0.99503908626E+01 -0.10427080431E+02 -0.50039452758E+01  0.15256924763E+02  0.51100000000E-03 0. -1.
        -11    1    3    3    0    0  0.20025398967E+00  0.22284771492E+02  0.63428915931E+01  0.23170744833E+02  0.51100000000E-03 0.  1.
        -12    1    3    3    0    0 -0.17753512637E+02 -0.28941973772E+02 -0.23408529105E+01  0.34033875023E+02  0.00000000000E+00 0.  1.
</event>
<event>
 7    1  0.1283194E-013  0.7246149E+02  0.7816164E-02  0.1226708E+00
        -11   -1    0    0    0    0  0.00000000000E+00  0.00000000000E+00  0.45593999997E+02  0.45594000000E+02  0.51100000000E-03 0.  1.
         11   -1    0    0    0    0 -0.00000000000E+00 -0.00000000000E+00 -0.45593999997E+02  0.45594000000E+02  0.51100000000E-03 0. -1.
    9900012    2    1    2    0    0 -0.96854812492E+01  0.65545337899E+01  0.14625721780E+02  0.72461489439E+02  0.69999894670E+02 0.  0.
         12    1    1    2    0    0  0.96854812492E+01 -0.65545337899E+01 -0.14625721780E+02  0.18726510561E+02  0.00000000000E+00 0. -1.
         11    1    3    3    0    0  0.68674379283E+01  0.10499454844E+02 -0.52707227811E+01  0.13608114293E+02  0.51100000000E-03 0. -1.
        -11    1    3    3    0    0 -0.12246697221E+02 -0.43837167716E+01  0.38039033845E+02  0.40201575363E+02  0.51100000000E-03 0.  1.
        -12    1    3    3    0    0 -0.43062219569E+01  0.43879571772E+00 -0.18142589284E+02  0.18651799783E+02  0.00000000000E+00 0.  1.
</event>
<event>
 7    1  0.1283194E-013  0.7246157E+02  0.7816164E-02  0.1226708E+00
        -11   -1    0    0    0    0  0.00000000000E+00  0.00000000000E+00  0.45593999997E+02  0.45594000000E+02  0.51100000000E-03 0.  1.
         11   -1    0    0    0    0 -0.00000000000E+00 -0.00000000000E+00 -0.45593999997E+02  0.45594000000E+02  0.51100000000E-03 0. -1.
    9900012    2    1    2    0    0  0.17054299681E+02 -0.70843305223E+01 -0.31051792944E+01  0.72461574420E+02  0.70000005375E+02 0.  0.
         12    1    1    2    0    0 -0.17054299681E+02  0.70843305223E+01  0.31051792944E+01  0.18726425580E+02  0.00000000000E+00 0. -1.
         11    1    3    3    0    0  0.25024818605E+02  0.14778268523E+00 -0.90422170296E+01  0.26608740575E+02  0.51100000000E-03 0.  1.
        -11    1    3    3    0    0 -0.78774344379E+01  0.13213953891E+02 -0.11317969192E+02  0.19098664290E+02  0.51100000000E-03 0. -1.
        -12    1    3    3    0    0 -0.93084486044E-01 -0.20446067099E+02  0.17255006927E+02  0.26754169555E+02  0.00000000000E+00 0.  1.
</event>
<event>
 7    1  0.1283194E-013  0.7246158E+02  0.7816164E-02  0.1226708E+00
        -11   -1    0    0    0    0  0.00000000000E+00  0.00000000000E+00  0.45593999997E+02  0.45594000000E+02  0.51100000000E-03 0.  1.
         11   -1    0    0    0    0 -0.00000000000E+00 -0.00000000000E+00 -0.45593999997E+02  0.45594000000E+02  0.51100000000E-03 0. -1.
    9900012    2    1    2    0    0  0.14561977670E+02  0.11436279462E+02 -0.27998353942E+01  0.72461581233E+02  0.70000014250E+02 0.  0.
         12    1    1    2    0    0 -0.14561977670E+02 -0.11436279462E+02  0.27998353942E+01  0.18726418767E+02  0.00000000000E+00 0. -1.
         11    1    3    3    0    0 -0.81937538969E+01 -0.32353797847E+00 -0.31111951334E+01  0.87705082615E+01  0.51100000000E-03 0. -1.
        -11    1    3    3    0    0  0.80312913823E+01  0.23454521649E+02  0.23279127501E+02  0.34007852101E+02  0.51100000000E-03 0.  1.
        -12    1    3    3    0    0  0.14724440185E+02 -0.11694704208E+02 -0.22967767762E+02  0.29683220871E+02  0.00000000000E+00 0.  1.
</event>
<event>
 7    1  0.1283194E-013  0.7246141E+02  0.7816164E-02  0.1226708E+00
        -11   -1    0    0    0    0  0.00000000000E+00  0.00000000000E+00  0.45593999997E+02  0.45594000000E+02  0.51100000000E-03 0. -1.
         11   -1    0    0    0    0 -0.00000000000E+00 -0.00000000000E+00 -0.45593999997E+02  0.45594000000E+02  0.51100000000E-03 0.  1.
    9900012    2    1    2    0    0 -0.14421769322E+02 -0.37307465898E+01 -0.11348102626E+02  0.72461405711E+02  0.69999785599E+02 0.  0.
         12    1    1    2    0    0  0.14421769322E+02  0.37307465898E+01  0.11348102626E+02  0.18726594289E+02  0.00000000000E+00 0. -1.
         11    1    3    3    0    0 -0.10367252008E+02 -0.19990338027E+02  0.35150723649E+01  0.22791429587E+02  0.51100000000E-03 0. -1.
        -11    1    3    3    0    0  0.46786400762E+01  0.51873520572E+01 -0.28924191907E+02  0.29755792244E+02  0.51100000000E-03 0.  1.
        -12    1    3    3    0    0 -0.87331573898E+01  0.11072239380E+02  0.14061016916E+02  0.19914183880E+02  0.00000000000E+00 0.  1.
</event>
<event>
 7    1  0.1283194E-013  0.7246165E+02  0.7816164E-02  0.1226708E+00
        -11   -1    0    0    0    0  0.00000000000E+00  0.00000000000E+00  0.45593999997E+02  0.45594000000E+02  0.51100000000E-03 0.  1.
         11   -1    0    0    0    0 -0.00000000000E+00 -0.00000000000E+00 -0.45593999997E+02  0.45594000000E+02  0.51100000000E-03 0. -1.
    9900012    2    1    2    0    0 -0.77810936707E+01  0.15336707337E+02 -0.74105346964E+01  0.72461653983E+02  0.70000109020E+02 0.  0.
         12    1    1    2    0    0  0.77810936707E+01 -0.15336707337E+02  0.74105346964E+01  0.18726346017E+02  0.00000000000E+00 0. -1.
         11    1    3    3    0    0 -0.77468863341E+01 -0.60974091593E+01 -0.33171305869E+02  0.34605320106E+02  0.51100000000E-03 0. -1.
        -11    1    3    3    0    0 -0.10800492807E+01  0.16119415013E+00  0.12962176006E+02  0.13008093522E+02  0.51100000000E-03 0.  1.
         12    1    3    3    0    0  0.10458419442E+01  0.21272922346E+02  0.12798595166E+02  0.24848240355E+02  0.00000000000E+00 0. -1.
</event>
<event>
 7    1  0.1283194E-013  0.7246153E+02  0.7816164E-02  0.1226708E+00
        -11   -1    0    0    0    0  0.00000000000E+00  0.00000000000E+00  0.45593999997E+02  0.45594000000E+02  0.51100000000E-03 0.  1.
         11   -1    0    0    0    0 -0.00000000000E+00 -0.00000000000E+00 -0.45593999997E+02  0.45594000000E+02  0.51100000000E-03 0. -1.
    9900012    2    1    2    0    0 -0.62611623708E+01 -0.17582198733E+02 -0.15312553582E+01  0.72461531847E+02  0.69999949915E+02 0.  0.
         12    1    1    2    0    0  0.62611623708E+01  0.17582198733E+02  0.15312553582E+01  0.18726468153E+02  0.00000000000E+00 0. -1.
         11    1    3    3    0    0 -0.17825714934E+01  0.71678430735E+01 -0.10590961580E+02  0.12912164919E+02  0.51100000000E-03 0. -1.
        -11    1    3    3    0    0 -0.20447853271E+02 -0.34251026914E+02  0.29944891133E+01  0.40002681327E+02  0.51100000000E-03 0.  1.
        -12    1    3    3    0    0  0.15969262393E+02  0.95009851073E+01  0.60652171085E+01  0.19546685601E+02  0.00000000000E+00 0.  1.
</event>
<event>
 7    1  0.1283194E-013  0.7246151E+02  0.7816164E-02  0.1226708E+00
        -11   -1    0    0    0    0  0.00000000000E+00  0.00000000000E+00  0.45593999997E+02  0.45594000000E+02  0.51100000000E-03 0.  1.
         11   -1    0    0    0    0 -0.00000000000E+00 -0.00000000000E+00 -0.45593999997E+02  0.45594000000E+02  0.51100000000E-03 0. -1.
    9900012    2    1    2    0    0  0.24116518480E+01  0.13211751835E+02  0.13050471180E+02  0.72461514766E+02  0.69999927664E+02 0.  0.
         12    1    1    2    0    0 -0.24116518480E+01 -0.13211751835E+02 -0.13050471180E+02  0.18726485234E+02  0.00000000000E+00 0. -1.
         11    1    3    3    0    0  0.59145608524E+01  0.30350743475E+01 -0.77516995654E+01  0.10211882921E+02  0.51100000000E-03 0. -1.
        -11    1    3    3    0    0 -0.20768960018E+02  0.20572145676E+02  0.28356317607E+02  0.40726448734E+02  0.51100000000E-03 0.  1.
        -12    1    3    3    0    0  0.17266051014E+02 -0.10395468188E+02 -0.75541468617E+01  0.21523183112E+02  0.00000000000E+00 0.  1.
</event>
<event>
 7    1  0.1283194E-013  0.7246162E+02  0.7816164E-02  0.1226708E+00
        -11   -1    0    0    0    0  0.00000000000E+00  0.00000000000E+00  0.45593999997E+02  0.45594000000E+02  0.51100000000E-03 0.  1.
         11   -1    0    0    0    0 -0.00000000000E+00 -0.00000000000E+00 -0.45593999997E+02  0.45594000000E+02  0.51100000000E-03 0. -1.
    9900012    2    1    2    0    0  0.14913722123E+02  0.53672344021E+01  0.99725140225E+01  0.72461618913E+02  0.70000063335E+02 0.  0.
         12    1    1    2    0    0 -0.14913722123E+02 -0.53672344021E+01 -0.99725140225E+01  0.18726381087E+02  0.00000000000E+00 0. -1.
         11    1    3    3    0    0 -0.40849837623E+01 -0.30035029725E+00 -0.15526837233E+02  0.16058019098E+02  0.51100000000E-03 0. -1.
        -11    1    3    3    0    0  0.27254543336E+02 -0.58531679138E+01  0.30550468869E+02  0.41356992824E+02  0.51100000000E-03 0.  1.
        -12    1    3    3    0    0 -0.82558374508E+01  0.11520752613E+02 -0.50511176130E+01  0.15046606991E+02  0.00000000000E+00 0.  1.
</event>
<event>
 7    1  0.1283194E-013  0.7246153E+02  0.7816164E-02  0.1226708E+00
        -11   -1    0    0    0    0  0.00000000000E+00  0.00000000000E+00  0.45593999997E+02  0.45594000000E+02  0.51100000000E-03 0. -1.
         11   -1    0    0    0    0 -0.00000000000E+00 -0.00000000000E+00 -0.45593999997E+02  0.45594000000E+02  0.51100000000E-03 0.  1.
    9900012    2    1    2    0    0 -0.10176701446E+02 -0.62578121972E+01  0.14420652478E+02  0.72461529865E+02  0.69999947334E+02 0.  0.
         12    1    1    2    0    0  0.10176701446E+02  0.62578121972E+01 -0.14420652478E+02  0.18726470135E+02  0.00000000000E+00 0. -1.
         11    1    3    3    0    0  0.23571872074E+02  0.57217609012E+01  0.78868470042E+01  0.25506353264E+02  0.51100000000E-03 0. -1.
        -11    1    3    3    0    0 -0.63404529521E+01 -0.16193752365E+02  0.80919997159E+01  0.19181225689E+02  0.51100000000E-03 0.  1.
         12    1    3    3    0    0 -0.27408120568E+02  0.42141792662E+01 -0.15581942420E+01  0.27773950912E+02  0.00000000000E+00 0. -1.
</event>
<event>
 7    1  0.1283194E-013  0.7246157E+02  0.7816164E-02  0.1226708E+00
        -11   -1    0    0    0    0  0.00000000000E+00  0.00000000000E+00  0.45593999997E+02  0.45594000000E+02  0.51100000000E-03 0.  1.
         11   -1    0    0    0    0 -0.00000000000E+00 -0.00000000000E+00 -0.45593999997E+02  0.45594000000E+02  0.51100000000E-03 0. -1.
    9900012    2    1    2    0    0  0.35731056913E+01  0.18329417347E+02  0.13944204358E+01  0.72461573941E+02  0.70000004751E+02 0.  0.
         12    1    1    2    0    0 -0.35731056913E+01 -0.18329417347E+02 -0.13944204358E+01  0.18726426059E+02  0.00000000000E+00 0. -1.
         11    1    3    3    0    0  0.10652826014E+02 -0.74656120169E+00 -0.14643330777E+02  0.18123663874E+02  0.51100000000E-03 0. -1.
        -11    1    3    3    0    0 -0.22883748898E+02 -0.35479216702E+01  0.16513816314E+01  0.23215959453E+02  0.51100000000E-03 0.  1.
        -12    1    3    3    0    0  0.15804028575E+02  0.22623900219E+02  0.14386369581E+02  0.31121950614E+02  0.00000000000E+00 0.  1.
</event>
<event>
 7    1  0.1283194E-013  0.7246153E+02  0.7816164E-02  0.1226708E+00
        -11   -1    0    0    0    0  0.00000000000E+00  0.00000000000E+00  0.45593999997E+02  0.45594000000E+02  0.51100000000E-03 0. -1.
         11   -1    0    0    0    0 -0.00000000000E+00 -0.00000000000E+00 -0.45593999997E+02  0.45594000000E+02  0.51100000000E-03 0.  1.
    9900012    2    1    2    0    0  0.97458330243E+01  0.74268647601E+01  0.14161259177E+02  0.72461525613E+02  0.69999941794E+02 0.  0.
         12    1    1    2    0    0 -0.97458330243E+01 -0.74268647601E+01 -0.14161259177E+02  0.18726474387E+02  0.00000000000E+00 0. -1.
         11    1    3    3    0    0 -0.53712627149E+01 -0.38822359928E+01  0.20082199072E+02  0.21147504327E+02  0.51100000000E-03 0. -1.
        -11    1    3    3    0    0  0.27496016343E+02  0.58429540330E+01  0.10525627009E+02  0.30015993250E+02  0.51100000000E-03 0.  1.
        -12    1    3    3    0    0 -0.12378920604E+02  0.54661467199E+01 -0.16446566905E+02  0.21298028036E+02  0.00000000000E+00 0.  1.
</event>
<event>
 7    1  0.1283194E-013  0.7246161E+02  0.7816164E-02  0.1226708E+00
        -11   -1    0    0    0    0  0.00000000000E+00  0.00000000000E+00  0.45593999997E+02  0.45594000000E+02  0.51100000000E-03 0. -1.
         11   -1    0    0    0    0 -0.00000000000E+00 -0.00000000000E+00 -0.45593999997E+02  0.45594000000E+02  0.51100000000E-03 0.  1.
    9900012    2    1    2    0    0 -0.11955964481E+02 -0.12324299835E+02 -0.74729073148E+01  0.72461606945E+02  0.70000047745E+02 0.  0.
         12    1    1    2    0    0  0.11955964481E+02  0.12324299835E+02  0.74729073148E+01  0.18726393055E+02  0.00000000000E+00 0. -1.
         11    1    3    3    0    0 -0.18320769214E+02  0.22662743124E+01  0.23507336420E+02  0.29889487277E+02  0.51100000000E-03 0. -1.
        -11    1    3    3    0    0  0.81180678905E+01  0.76556585490E+00 -0.24484684895E+02  0.25806760975E+02  0.51100000000E-03 0.  1.
         12    1    3    3    0    0 -0.17532631578E+01 -0.15356140002E+02 -0.64955588402E+01  0.16765358693E+02  0.00000000000E+00 0. -1.
</event>
<event>
 7    1  0.1283194E-013  0.7246135E+02  0.7816164E-02  0.1226709E+00
        -11   -1    0    0    0    0  0.00000000000E+00  0.00000000000E+00  0.45593999997E+02  0.45594000000E+02  0.51100000000E-03 0. -1.
         11   -1    0    0    0    0 -0.00000000000E+00 -0.00000000000E+00 -0.45593999997E+02  0.45594000000E+02  0.51100000000E-03 0.  1.
    9900012    2    1    2    0    0 -0.16237580099E+02 -0.84128397399E+01 -0.40314490838E+01  0.72461348893E+02  0.69999711583E+02 0.  0.
         12    1    1    2    0    0  0.16237580099E+02  0.84128397399E+01  0.40314490838E+01  0.18726651107E+02  0.00000000000E+00 0. -1.
         11    1    3    3    0    0 -0.24889117173E+02 -0.54894869286E+01  0.19944197894E+02  0.32363152663E+02  0.51100000000E-03 0. -1.
        -11    1    3    3    0    0 -0.43718800734E+01 -0.11441996554E+02 -0.20915406805E+02  0.24238128281E+02  0.51100000000E-03 0.  1.
         12    1    3    3    0    0  0.13023417148E+02  0.85186437423E+01 -0.30602401734E+01  0.15860067948E+02  0.00000000000E+00 0. -1.
</event>
<event>
 7    1  0.1283194E-013  0.7246155E+02  0.7816164E-02  0.1226708E+00
        -11   -1    0    0    0    0  0.00000000000E+00  0.00000000000E+00  0.45593999997E+02  0.45594000000E+02  0.51100000000E-03 0. -1.
         11   -1    0    0    0    0 -0.00000000000E+00 -0.00000000000E+00 -0.45593999997E+02  0.45594000000E+02  0.51100000000E-03 0.  1.
    9900012    2    1    2    0    0  0.10904510198E+02  0.28653493767E+01 -0.14951966656E+02  0.72461551415E+02  0.69999975406E+02 0.  0.
         12    1    1    2    0    0 -0.10904510198E+02 -0.28653493767E+01  0.14951966656E+02  0.18726448585E+02  0.00000000000E+00 0. -1.
         11    1    3    3    0    0  0.14557956867E+02 -0.17794004694E+02  0.17704990557E+02  0.29017708422E+02  0.51100000000E-03 0. -1.
        -11    1    3    3    0    0  0.64376298681E+01  0.75368674448E+01 -0.20926021589E+02  0.23154823018E+02  0.51100000000E-03 0.  1.
         12    1    3    3    0    0 -0.10091076538E+02  0.13122486626E+02 -0.11730935624E+02  0.20289019975E+02  0.00000000000E+00 0. -1.
</event>
<event>
 7    1  0.1283194E-013  0.7246157E+02  0.7816164E-02  0.1226708E+00
        -11   -1    0    0    0    0  0.00000000000E+00  0.00000000000E+00  0.45593999997E+02  0.45594000000E+02  0.51100000000E-03 0.  1.
         11   -1    0    0    0    0 -0.00000000000E+00 -0.00000000000E+00 -0.45593999997E+02  0.45594000000E+02  0.51100000000E-03 0. -1.
    9900012    2    1    2    0    0 -0.24020133533E+00  0.15415240305E+02 -0.10629764316E+02  0.72461568953E+02  0.69999998253E+02 0.  0.
         12    1    1    2    0    0  0.24020133533E+00 -0.15415240305E+02  0.10629764316E+02  0.18726431047E+02  0.00000000000E+00 0. -1.
         11    1    3    3    0    0 -0.10125934601E+02  0.19379741164E+02 -0.10063294546E+02  0.24070289083E+02  0.51100000000E-03 0. -1.
        -11    1    3    3    0    0  0.26715407161E+02  0.41259986344E+01  0.74952578655E+01  0.28052018381E+02  0.51100000000E-03 0.  1.
         12    1    3    3    0    0 -0.16829673895E+02 -0.80904994941E+01 -0.80617276351E+01  0.20339261490E+02  0.00000000000E+00 0. -1.
</event>
<event>
 7    1  0.1283194E-013  0.7246157E+02  0.7816164E-02  0.1226708E+00
        -11   -1    0    0    0    0  0.00000000000E+00  0.00000000000E+00  0.45593999997E+02  0.45594000000E+02  0.51100000000E-03 0. -1.
         11   -1    0    0    0    0 -0.00000000000E+00 -0.00000000000E+00 -0.45593999997E+02  0.45594000000E+02  0.51100000000E-03 0.  1.
    9900012    2    1    2    0    0 -0.12570094263E+02 -0.12474271839E+02 -0.60880609930E+01  0.72461569097E+02  0.69999998441E+02 0.  0.
         12    1    1    2    0    0  0.12570094263E+02  0.12474271839E+02  0.60880609930E+01  0.18726430903E+02  0.00000000000E+00 0. -1.
         11    1    3    3    0    0 -0.38213156302E+01  0.12600924479E+02  0.52621918933E+01  0.14180141560E+02  0.51100000000E-03 0. -1.
        -11    1    3    3    0    0 -0.22144953364E+02 -0.34188909081E+02 -0.57478604167E+01  0.41137797259E+02  0.51100000000E-03 0.  1.
        -12    1    3    3    0    0  0.13396174731E+02  0.91137127636E+01 -0.56023924696E+01  0.17143630279E+02  0.00000000000E+00 0.  1.
</event>
<event>
 7    1  0.1283194E-013  0.7246163E+02  0.7816164E-02  0.1226708E+00
        -11   -1    0    0    0    0  0.00000000000E+00  0.00000000000E+00  0.45593999997E+02  0.45594000000E+02  0.51100000000E-03 0. -1.
         11   -1    0    0    0    0 -0.00000000000E+00 -0.00000000000E+00 -0.45593999997E+02  0.45594000000E+02  0.51100000000E-03 0.  1.
    9900012    2    1    2    0    0 -0.49375383948E+01  0.18046812326E+02  0.78112045192E+00  0.72461631701E+02  0.70000079993E+02 0.  0.
         12    1    1    2    0    0  0.49375383948E+01 -0.18046812326E+02 -0.78112045192E+00  0.18726368299E+02  0.00000000000E+00 0. -1.
         11    1    3    3    0    0 -0.46024414433E+01 -0.14440457363E+02 -0.17411468448E+02  0.23083944851E+02  0.51100000000E-03 0. -1.
        -11    1    3    3    0    0 -0.16171211045E+02  0.18424831674E+02  0.73989056103E+01  0.25607153168E+02  0.51100000000E-03 0.  1.
         12    1    3    3    0    0  0.15836114094E+02  0.14062438015E+02  0.10793683290E+02  0.23770533681E+02  0.00000000000E+00 0. -1.
</event>
<event>
 7    1  0.1283194E-013  0.7246161E+02  0.7816164E-02  0.1226708E+00
        -11   -1    0    0    0    0  0.00000000000E+00  0.00000000000E+00  0.45593999997E+02  0.45594000000E+02  0.51100000000E-03 0. -1.
         11   -1    0    0    0    0 -0.00000000000E+00 -0.00000000000E+00 -0.45593999997E+02  0.45594000000E+02  0.51100000000E-03 0.  1.
    9900012    2    1    2    0    0  0.12319912211E+02  0.12596203879E+02 -0.63429655782E+01  0.72461606824E+02  0.70000047587E+02 0.  0.
         12    1    1    2    0    0 -0.12319912211E+02 -0.12596203879E+02  0.63429655782E+01  0.18726393176E+02  0.00000000000E+00 0. -1.
         11    1    3    3    0    0  0.25840595114E+01  0.93023248377E+01  0.23219560462E+02  0.25146741324E+02  0.51100000000E-03 0. -1.
        -11    1    3    3    0    0 -0.71241634363E+01  0.62892312123E+01 -0.28629450505E+02  0.30165436685E+02  0.51100000000E-03 0.  1.
        -12    1    3    3    0    0  0.16860016136E+02 -0.29953521706E+01 -0.93307553519E+00  0.17149428815E+02  0.00000000000E+00 0.  1.
</event>
<event>
 7    1  0.1283194E-013  0.7246154E+02  0.7816164E-02  0.1226708E+00
        -11   -1    0    0    0    0  0.00000000000E+00  0.00000000000E+00  0.45593999997E+02  0.45594000000E+02  0.51100000000E-03 0.  1.
         11   -1    0    0    0    0 -0.00000000000E+00 -0.00000000000E+00 -0.45593999997E+02  0.45594000000E+02  0.51100000000E-03 0. -1.
    9900012    2    1    2    0    0  0.16944583219E+02 -0.60313239565E+01 -0.52138931062E+01  0.72461536093E+02  0.69999955447E+02 0.  0.
         12    1    1    2    0    0 -0.16944583219E+02  0.60313239565E+01  0.52138931062E+01  0.18726463907E+02  0.00000000000E+00 0. -1.
         11    1    3    3    0    0  0.20845727934E+02 -0.99834898743E+01 -0.18973455037E+02  0.29903284761E+02  0.51100000000E-03 0. -1.
        -11    1    3    3    0    0  0.73553412203E+01  0.18008120230E+02  0.14916837595E+02  0.24513373550E+02  0.51100000000E-03 0.  1.
        -12    1    3    3    0    0 -0.11256485936E+02 -0.14055954312E+02 -0.11572756642E+01  0.18044877783E+02  0.00000000000E+00 0.  1.
</event>
<event>
 7    1  0.1283194E-013  0.7246159E+02  0.7816164E-02  0.1226708E+00
        -11   -1    0    0    0    0  0.00000000000E+00  0.00000000000E+00  0.45593999997E+02  0.45594000000E+02  0.51100000000E-03 0.  1.
         11   -1    0    0    0    0 -0.00000000000E+00 -0.00000000000E+00 -0.45593999997E+02  0.45594000000E+02  0.51100000000E-03 0. -1.
    9900012    2    1    2    0    0  0.44611165209E+00 -0.11779515600E+00  0.18720720367E+02  0.72461594515E+02  0.70000031553E+02 0.  0.
         12    1    1    2    0    0 -0.44611165209E+00  0.11779515600E+00 -0.18720720367E+02  0.18726405485E+02  0.00000000000E+00 0. -1.
         11    1    3    3    0    0 -0.92093379112E+01  0.18832756123E+02  0.28892077277E+01  0.21162044549E+02  0.51100000000E-03 0. -1.
        -11    1    3    3    0    0  0.64325720727E+01 -0.33246656154E+02  0.85031947878E+01  0.34914502012E+02  0.51100000000E-03 0.  1.
        -12    1    3    3    0    0  0.32228774906E+01  0.14296104875E+02  0.73283178516E+01  0.16385047954E+02  0.00000000000E+00 0.  1.
</event>
<event>
 7    1  0.1283194E-013  0.7246147E+02  0.7816164E-02  0.1226708E+00
        -11   -1    0    0    0    0  0.00000000000E+00  0.00000000000E+00  0.45593999997E+02  0.45594000000E+02  0.51100000000E-03 0. -1.
         11   -1    0    0    0    0 -0.00000000000E+00 -0.00000000000E+00 -0.45593999997E+02  0.45594000000E+02  0.51100000000E-03 0.  1.
    9900012    2    1    2    0    0 -0.15989187672E+02 -0.96720664742E+01 -0.12165185933E+01  0.72461470429E+02  0.69999869907E+02 0.  0.
         12    1    1    2    0    0  0.15989187672E+02  0.96720664742E+01  0.12165185933E+01  0.18726529571E+02  0.00000000000E+00 0. -1.
         11    1    3    3    0    0 -0.13870710501E+02 -0.34515064009E+02 -0.15664492598E+01  0.37230901371E+02  0.51100000000E-03 0. -1.
        -11    1    3    3    0    0  0.79226524285E+01  0.14824772137E+02 -0.81647331766E+01  0.18687031828E+02  0.51100000000E-03 0.  1.
        -12    1    3    3    0    0 -0.10041129599E+02  0.10018225398E+02  0.85146638431E+01  0.16543537231E+02  0.00000000000E+00 0.  1.
</event>
<event>
 7    1  0.1283194E-013  0.7246159E+02  0.7816164E-02  0.1226708E+00
        -11   -1    0    0    0    0  0.00000000000E+00  0.00000000000E+00  0.45593999997E+02  0.45594000000E+02  0.51100000000E-03 0.  1.
         11   -1    0    0    0    0 -0.00000000000E+00 -0.00000000000E+00 -0.45593999997E+02  0.45594000000E+02  0.51100000000E-03 0. -1.
    9900012    2    1    2    0    0 -0.38047793412E-01 -0.49967862642E+01  0.18047411516E+02  0.72461591294E+02  0.70000027355E+02 0.  0.
         12    1    1    2    0    0  0.38047793412E-01  0.49967862642E+01 -0.18047411516E+02  0.18726408706E+02  0.00000000000E+00 0. -1.
         11    1    3    3    0    0  0.37289929129E+01  0.57079382624E+01 -0.19073348043E+02  0.20255333944E+02  0.51100000000E-03 0. -1.
        -11    1    3    3    0    0 -0.11859999133E+02 -0.19707443755E+01  0.38393005250E+02  0.40231408939E+02  0.51100000000E-03 0.  1.
        -12    1    3    3    0    0  0.80929584267E+01 -0.87339801512E+01 -0.12722456909E+01  0.11974848411E+02  0.00000000000E+00 0.  1.
</event>
<event>
 7    1  0.1283194E-013  0.7246159E+02  0.7816164E-02  0.1226708E+00
        -11   -1    0    0    0    0  0.00000000000E+00  0.00000000000E+00  0.45593999997E+02  0.45594000000E+02  0.51100000000E-03 0. -1.
         11   -1    0    0    0    0 -0.00000000000E+00 -0.00000000000E+00 -0.45593999997E+02  0.45594000000E+02  0.51100000000E-03 0.  1.
    9900012    2    1    2    0    0  0.39101180766E+01 -0.18252872064E+02 -0.14906724309E+01  0.72461589072E+02  0.70000024461E+02 0.  0.
         12    1    1    2    0    0 -0.39101180766E+01  0.18252872064E+02  0.14906724309E+01  0.18726410928E+02  0.00000000000E+00 0. -1.
         11    1    3    3    0    0  0.11739716959E+02 -0.82564683469E+01  0.85799043405E+01  0.16721392962E+02  0.51100000000E-03 0. -1.
        -11    1    3    3    0    0  0.38975414838E+01  0.16652119269E+02 -0.18731621361E+02  0.25364493782E+02  0.51100000000E-03 0.  1.
        -12    1    3    3    0    0 -0.11727140367E+02 -0.26648522986E+02  0.86610445892E+01  0.30375702327E+02  0.00000000000E+00 0.  1.
</event>
<event>
 7    1  0.1408844E-013  0.7246157E+02  0.7816164E-02  0.1226708E+00
        -11   -1    0    0    0    0  0.00000000000E+00  0.00000000000E+00  0.45593999997E+02  0.45594000000E+02  0.51100000000E-03 0. -1.
         11   -1    0    0    0    0 -0.00000000000E+00 -0.00000000000E+00 -0.45593999997E+02  0.45594000000E+02  0.51100000000E-03 0.  1.
    9900012    2    1    2    0    0  0.94580141127E+01 -0.36543769655E+01 -0.15743914830E+02  0.72461565312E+02  0.69999993509E+02 0.  0.
         12    1    1    2    0    0 -0.94580141127E+01  0.36543769655E+01  0.15743914830E+02  0.18726434688E+02  0.00000000000E+00 0. -1.
         11    1    3    3    0    0 -0.11392682257E+02 -0.90005966584E-01  0.17731908632E+02  0.21076572162E+02  0.51100000000E-03 0. -1.
        -11    1    3    3    0    0  0.24333082622E+02  0.55385442617E+01 -0.11770722048E+02  0.27592105397E+02  0.51100000000E-03 0.  1.
        -12    1    3    3    0    0 -0.34823862524E+01 -0.91029152606E+01 -0.21705101414E+02  0.23792887754E+02  0.00000000000E+00 0.  1.
</event>
<event>
 7    1  0.1283194E-013  0.7246154E+02  0.7816164E-02  0.1226708E+00
        -11   -1    0    0    0    0  0.00000000000E+00  0.00000000000E+00  0.45593999997E+02  0.45594000000E+02  0.51100000000E-03 0.  1.
         11   -1    0    0    0    0 -0.00000000000E+00 -0.00000000000E+00 -0.45593999997E+02  0.45594000000E+02  0.51100000000E-03 0. -1.
    9900012    2    1    2    0    0 -0.34090368401E+01  0.17787294313E+02 -0.47614084411E+01  0.72461537934E+02  0.69999957845E+02 0.  0.
         12    1    1    2    0    0  0.34090368401E+01 -0.17787294313E+02  0.47614084411E+01  0.18726462066E+02  0.00000000000E+00 0. -1.
         11    1    3    3    0    0 -0.42612577678E+01  0.16535477469E+02  0.17608951628E+02  0.24528667118E+02  0.51100000000E-03 0. -1.
        -11    1    3    3    0    0  0.20187496960E+02  0.75488005381E+01 -0.78159355970E+01  0.22926148228E+02  0.51100000000E-03 0.  1.
         12    1    3    3    0    0 -0.19335276032E+02 -0.62969836934E+01 -0.14554424472E+02  0.25006722588E+02  0.00000000000E+00 0. -1.
</event>
<event>
 7    1  0.1283194E-013  0.7246149E+02  0.7816164E-02  0.1226708E+00
        -11   -1    0    0    0    0  0.00000000000E+00  0.00000000000E+00  0.45593999997E+02  0.45594000000E+02  0.51100000000E-03 0. -1.
         11   -1    0    0    0    0 -0.00000000000E+00 -0.00000000000E+00 -0.45593999997E+02  0.45594000000E+02  0.51100000000E-03 0.  1.
    9900012    2    1    2    0    0 -0.25683919252E+01 -0.18514957099E+02 -0.11321557248E+01  0.72461493384E+02  0.69999899810E+02 0.  0.
         12    1    1    2    0    0  0.25683919252E+01  0.18514957099E+02  0.11321557248E+01  0.18726506616E+02  0.00000000000E+00 0. -1.
         11    1    3    3    0    0  0.58892569056E+01  0.12115563879E+01  0.18961115946E+02  0.19891584501E+02  0.51100000000E-03 0. -1.
        -11    1    3    3    0    0 -0.63650037607E+01 -0.33466945811E+02 -0.10379320426E+02  0.35612919392E+02  0.51100000000E-03 0.  1.
        -12    1    3    3    0    0 -0.20926450701E+01  0.13740432325E+02 -0.97139512440E+01  0.16956989492E+02  0.00000000000E+00 0.  1.
</event>
<event>
 7    1  0.1283194E-013  0.7246162E+02  0.7816164E-02  0.1226708E+00
        -11   -1    0    0    0    0  0.00000000000E+00  0.00000000000E+00  0.45593999997E+02  0.45594000000E+02  0.51100000000E-03 0.  1.
         11   -1    0    0    0    0 -0.00000000000E+00 -0.00000000000E+00 -0.45593999997E+02  0.45594000000E+02  0.51100000000E-03 0. -1.
    9900012    2    1    2    0    0  0.18484185237E+02  0.16303551524E+01  0.25207522409E+01  0.72461618778E+02  0.70000063159E+02 0.  0.
         12    1    1    2    0    0 -0.18484185237E+02 -0.16303551524E+01 -0.25207522409E+01  0.18726381222E+02  0.00000000000E+00 0. -1.
         11    1    3    3    0    0 -0.93546990807E+01  0.18027690027E+02  0.13358510191E+02  0.24309623555E+02  0.51100000000E-03 0. -1.
        -11    1    3    3    0    0  0.17091984401E+02 -0.17514238110E+02  0.85782797578E+01  0.25932052584E+02  0.51100000000E-03 0.  1.
        -12    1    3    3    0    0  0.10746899917E+02  0.11169032358E+01 -0.19416037708E+02  0.22219942640E+02  0.00000000000E+00 0.  1.
</event>
<event>
 7    1  0.1283194E-013  0.7246158E+02  0.7816164E-02  0.1226708E+00
        -11   -1    0    0    0    0  0.00000000000E+00  0.00000000000E+00  0.45593999997E+02  0.45594000000E+02  0.51100000000E-03 0. -1.
         11   -1    0    0    0    0 -0.00000000000E+00 -0.00000000000E+00 -0.45593999997E+02  0.45594000000E+02  0.51100000000E-03 0.  1.
    9900012    2    1    2    0    0 -0.15193569760E+02  0.10249829338E+02  0.38438605029E+01  0.72461579438E+02  0.70000011911E+02 0.  0.
         12    1    1    2    0    0  0.15193569760E+02 -0.10249829338E+02 -0.38438605029E+01  0.18726420562E+02  0.00000000000E+00 0. -1.
         11    1    3    3    0    0 -0.91723667357E+01  0.35012809590E+02  0.13163935662E+02  0.38513872167E+02  0.51100000000E-03 0. -1.
        -11    1    3    3    0    0 -0.11355543217E+02 -0.10244663582E+02  0.10435479274E+01  0.15329399408E+02  0.51100000000E-03 0.  1.
         12    1    3    3    0    0  0.53343401928E+01 -0.14518316670E+02 -0.10363623087E+02  0.18618307863E+02  0.00000000000E+00 0. -1.
</event>
<event>
 7    1  0.1283194E-013  0.7246159E+02  0.7816164E-02  0.1226708E+00
        -11   -1    0    0    0    0  0.00000000000E+00  0.00000000000E+00  0.45593999997E+02  0.45594000000E+02  0.51100000000E-03 0.  1.
         11   -1    0    0    0    0 -0.00000000000E+00 -0.00000000000E+00 -0.45593999997E+02  0.45594000000E+02  0.51100000000E-03 0. -1.
    9900012    2    1    2    0    0  0.71649753819E+01  0.38453020508E+01  0.16868763700E+02  0.72461590604E+02  0.70000026457E+02 0.  0.
         12    1    1    2    0    0 -0.71649753819E+01 -0.38453020508E+01 -0.16868763700E+02  0.18726409396E+02  0.00000000000E+00 0. -1.
         11    1    3    3    0    0 -0.18724694671E+02  0.19981229291E+02  0.12505792760E+02  0.30104128742E+02  0.51100000000E-03 0.  1.
        -11    1    3    3    0    0  0.22092319522E+02 -0.18815776351E+02  0.13576621900E+02  0.32037925714E+02  0.51100000000E-03 0. -1.
         12    1    3    3    0    0  0.37973505305E+01  0.26798491105E+01 -0.92136509599E+01  0.10319536148E+02  0.00000000000E+00 0. -1.
</event>
<event>
 7    1  0.1283194E-013  0.7246159E+02  0.7816164E-02  0.1226708E+00
        -11   -1    0    0    0    0  0.00000000000E+00  0.00000000000E+00  0.45593999997E+02  0.45594000000E+02  0.51100000000E-03 0. -1.
         11   -1    0    0    0    0 -0.00000000000E+00 -0.00000000000E+00 -0.45593999997E+02  0.45594000000E+02  0.51100000000E-03 0.  1.
    9900012    2    1    2    0    0 -0.14183369948E+02 -0.11790615521E+02 -0.32391233074E+01  0.72461587710E+02  0.70000022687E+02 0.  0.
         12    1    1    2    0    0  0.14183369948E+02  0.11790615521E+02  0.32391233074E+01  0.18726412290E+02  0.00000000000E+00 0. -1.
         11    1    3    3    0    0 -0.12923466743E+02  0.68125530800E+01 -0.22101229682E+02  0.26493229812E+02  0.51100000000E-03 0. -1.
        -11    1    3    3    0    0 -0.14121038828E+02 -0.22888131279E+02  0.66058705137E+01  0.27693100522E+02  0.51100000000E-03 0.  1.
        -12    1    3    3    0    0  0.12861135624E+02  0.42849626775E+01  0.12256235861E+02  0.18275257376E+02  0.00000000000E+00 0.  1.
</event>
<event>
 7    1  0.1283194E-013  0.7246157E+02  0.7816164E-02  0.1226708E+00
        -11   -1    0    0    0    0  0.00000000000E+00  0.00000000000E+00  0.45593999997E+02  0.45594000000E+02  0.51100000000E-03 0.  1.
         11   -1    0    0    0    0 -0.00000000000E+00 -0.00000000000E+00 -0.45593999997E+02  0.45594000000E+02  0.51100000000E-03 0. -1.
    9900012    2    1    2    0    0 -0.12564886467E+02 -0.11369647238E+02  0.79708186577E+01  0.72461569472E+02  0.69999998929E+02 0.  0.
         12    1    1    2    0    0  0.12564886467E+02  0.11369647238E+02 -0.79708186577E+01  0.18726430528E+02  0.00000000000E+00 0. -1.
         11    1    3    3    0    0 -0.12856023247E+02  0.67615165701E+01 -0.59037992243E+01  0.15679613694E+02  0.51100000000E-03 0. -1.
        -11    1    3    3    0    0 -0.83704815373E+01 -0.34568529782E+02  0.13940734700E+02  0.38201993360E+02  0.51100000000E-03 0.  1.
        -12    1    3    3    0    0  0.86616183169E+01  0.16437365974E+02 -0.66116817876E-01  0.18579962418E+02  0.00000000000E+00 0.  1.
</event>
<event>
 7    1  0.1283194E-013  0.7246161E+02  0.7816164E-02  0.1226708E+00
        -11   -1    0    0    0    0  0.00000000000E+00  0.00000000000E+00  0.45593999997E+02  0.45594000000E+02  0.51100000000E-03 0. -1.
         11   -1    0    0    0    0 -0.00000000000E+00 -0.00000000000E+00 -0.45593999997E+02  0.45594000000E+02  0.51100000000E-03 0.  1.
    9900012    2    1    2    0    0  0.65882766008E+01 -0.17276634738E+02 -0.29648169761E+01  0.72461611236E+02  0.70000053334E+02 0.  0.
         12    1    1    2    0    0 -0.65882766008E+01  0.17276634738E+02  0.29648169761E+01  0.18726388764E+02  0.00000000000E+00 0. -1.
         11    1    3    3    0    0  0.48676508752E+01 -0.21709029627E+01  0.23699410986E+02  0.24291334382E+02  0.51100000000E-03 0. -1.
        -11    1    3    3    0    0 -0.17532415751E+01  0.69632093563E+01 -0.24723882227E+02  0.25745494619E+02  0.51100000000E-03 0.  1.
        -12    1    3    3    0    0  0.34738673007E+01 -0.22068941132E+02 -0.19403457360E+01  0.22424782235E+02  0.00000000000E+00 0.  1.
</event>
<event>
 7    1  0.1283194E-013  0.7246120E+02  0.7816164E-02  0.1226709E+00
        -11   -1    0    0    0    0  0.00000000000E+00  0.00000000000E+00  0.45593999997E+02  0.45594000000E+02  0.51100000000E-03 0. -1.
         11   -1    0    0    0    0 -0.00000000000E+00 -0.00000000000E+00 -0.45593999997E+02  0.45594000000E+02  0.51100000000E-03 0.  1.
    9900012    2    1    2    0    0  0.99721253833E+01  0.11191662566E+02  0.11224821638E+02  0.72461195242E+02  0.69999511423E+02 0.  0.
         12    1    1    2    0    0 -0.99721253833E+01 -0.11191662566E+02 -0.11224821638E+02  0.18726804758E+02  0.00000000000E+00 0. -1.
         11    1    3    3    0    0  0.17031881831E+02 -0.80659721388E+01  0.56405481200E+01  0.19671316392E+02  0.51100000000E-03 0. -1.
        -11    1    3    3    0    0 -0.79824801135E+01  0.14446865584E+02  0.26548445408E+02  0.31261027939E+02  0.51100000000E-03 0.  1.
        -12    1    3    3    0    0  0.92272366558E+00  0.48107691203E+01 -0.20964171890E+02  0.21528850910E+02  0.00000000000E+00 0.  1.
</event>
<event>
 7    1  0.1283194E-013  0.7246094E+02  0.7816164E-02  0.1226710E+00
        -11   -1    0    0    0    0  0.00000000000E+00  0.00000000000E+00  0.45593999997E+02  0.45594000000E+02  0.51100000000E-03 0.  1.
         11   -1    0    0    0    0 -0.00000000000E+00 -0.00000000000E+00 -0.45593999997E+02  0.45594000000E+02  0.51100000000E-03 0. -1.
    9900012    2    1    2    0    0  0.15206412298E+02 -0.85762249808E+01 -0.67761407827E+01  0.72460942201E+02  0.69999181787E+02 0.  0.
         12    1    1    2    0    0 -0.15206412298E+02  0.85762249808E+01  0.67761407827E+01  0.18727057799E+02  0.00000000000E+00 0. -1.
         11    1    3    3    0    0 -0.21800810274E+02  0.64907194821E+01 -0.98898014373E+01  0.24803486463E+02  0.51100000000E-03 0. -1.
        -11    1    3    3    0    0  0.15822164426E+02 -0.18519063789E+02  0.80112716709E+01  0.25641315972E+02  0.51100000000E-03 0.  1.
         12    1    3    3    0    0  0.21185058146E+02  0.34521193258E+01 -0.48976110163E+01  0.22016139765E+02  0.00000000000E+00 0. -1.
</event>
<event>
 7    1  0.1283194E-013  0.7246155E+02  0.7816164E-02  0.1226708E+00
        -11   -1    0    0    0    0  0.00000000000E+00  0.00000000000E+00  0.45593999997E+02  0.45594000000E+02  0.51100000000E-03 0.  1.
         11   -1    0    0    0    0 -0.00000000000E+00 -0.00000000000E+00 -0.45593999997E+02  0.45594000000E+02  0.51100000000E-03 0. -1.
    9900012    2    1    2    0    0  0.44260945627E+01 -0.17213293264E+02  0.58984750661E+01  0.72461553829E+02  0.69999978551E+02 0.  0.
         12    1    1    2    0    0 -0.44260945627E+01  0.17213293264E+02 -0.58984750661E+01  0.18726446171E+02  0.00000000000E+00 0. -1.
         11    1    3    3    0    0 -0.10606263386E+02 -0.18409460443E+02 -0.21827290934E+02  0.30460329719E+02  0.51100000000E-03 0. -1.
        -11    1    3    3    0    0  0.19161426125E+02 -0.33523829711E+01  0.74751143517E+01  0.20839291196E+02  0.51100000000E-03 0.  1.
         12    1    3    3    0    0 -0.41290681762E+01  0.45485501499E+01  0.20250651649E+02  0.21161932914E+02  0.00000000000E+00 0. -1.
</event>
<event>
 7    1  0.1283194E-013  0.7246164E+02  0.7816164E-02  0.1226708E+00
        -11   -1    0    0    0    0  0.00000000000E+00  0.00000000000E+00  0.45593999997E+02  0.45594000000E+02  0.51100000000E-03 0. -1.
         11   -1    0    0    0    0 -0.00000000000E+00 -0.00000000000E+00 -0.45593999997E+02  0.45594000000E+02  0.51100000000E-03 0.  1.
    9900012    2    1    2    0    0  0.12323848928E+01 -0.14834725375E+02  0.11361728677E+02  0.72461635483E+02  0.70000084920E+02 0.  0.
         12    1    1    2    0    0 -0.12323848928E+01  0.14834725375E+02 -0.11361728677E+02  0.18726364517E+02  0.00000000000E+00 0. -1.
         11    1    3    3    0    0 -0.16251407082E+02 -0.37905113661E+01 -0.15000449399E+02  0.22438575958E+02  0.51100000000E-03 0.  1.
        -11    1    3    3    0    0  0.41357083001E+00  0.86706292171E+01  0.21910962955E+02  0.23567799001E+02  0.51100000000E-03 0. -1.
         12    1    3    3    0    0  0.17070221145E+02 -0.19714843226E+02  0.44512151210E+01  0.26455260525E+02  0.00000000000E+00 0. -1.
</event>
<event>
 7    1  0.1283194E-013  0.7246159E+02  0.7816164E-02  0.1226708E+00
        -11   -1    0    0    0    0  0.00000000000E+00  0.00000000000E+00  0.45593999997E+02  0.45594000000E+02  0.51100000000E-03 0.  1.
         11   -1    0    0    0    0 -0.00000000000E+00 -0.00000000000E+00 -0.45593999997E+02  0.45594000000E+02  0.51100000000E-03 0. -1.
    9900012    2    1    2    0    0 -0.38236250890E+01 -0.99803762107E+01  0.15376943673E+02  0.72461590445E+02  0.70000026249E+02 0.  0.
         12    1    1    2    0    0  0.38236250890E+01  0.99803762107E+01 -0.15376943673E+02  0.18726409555E+02  0.00000000000E+00 0. -1.
         11    1    3    3    0    0  0.11292915046E+02 -0.70021240124E+01 -0.11462014430E+02  0.17548146511E+02  0.51100000000E-03 0. -1.
        -11    1    3    3    0    0 -0.13226826132E+02  0.12617449285E+01  0.39369255819E+02  0.41550923381E+02  0.51100000000E-03 0.  1.
        -12    1    3    3    0    0 -0.18897140030E+01 -0.42399971268E+01 -0.12530297717E+02  0.13362520553E+02  0.00000000000E+00 0.  1.
</event>
<event>
 7    1  0.1283194E-013  0.7246159E+02  0.7816164E-02  0.1226708E+00
        -11   -1    0    0    0    0  0.00000000000E+00  0.00000000000E+00  0.45593999997E+02  0.45594000000E+02  0.51100000000E-03 0.  1.
         11   -1    0    0    0    0 -0.00000000000E+00 -0.00000000000E+00 -0.45593999997E+02  0.45594000000E+02  0.51100000000E-03 0. -1.
    9900012    2    1    2    0    0 -0.17606567472E+02  0.29302849394E+01  0.56657460179E+01  0.72461589081E+02  0.70000024473E+02 0.  0.
         12    1    1    2    0    0  0.17606567472E+02 -0.29302849394E+01 -0.56657460179E+01  0.18726410919E+02  0.00000000000E+00 0. -1.
         11    1    3    3    0    0 -0.93553741459E+01  0.34413863920E+02  0.85630710628E+01  0.36676467136E+02  0.51100000000E-03 0.  1.
        -11    1    3    3    0    0 -0.42015450870E+01 -0.26042904678E+02  0.33156536329E+01  0.26587204149E+02  0.51100000000E-03 0. -1.
        -12    1    3    3    0    0 -0.40496482393E+01 -0.54406743021E+01 -0.62129786777E+01  0.91979177955E+01  0.00000000000E+00 0.  1.
</event>
<event>
 7    1  0.1283194E-013  0.7246152E+02  0.7816164E-02  0.1226708E+00
        -11   -1    0    0    0    0  0.00000000000E+00  0.00000000000E+00  0.45593999997E+02  0.45594000000E+02  0.51100000000E-03 0. -1.
         11   -1    0    0    0    0 -0.00000000000E+00 -0.00000000000E+00 -0.45593999997E+02  0.45594000000E+02  0.51100000000E-03 0.  1.
    9900012    2    1    2    0    0  0.12269995269E+02 -0.96559859965E+01  0.10338767648E+02  0.72461522329E+02  0.69999937516E+02 0.  0.
         12    1    1    2    0    0 -0.12269995269E+02  0.96559859965E+01 -0.10338767648E+02  0.18726477671E+02  0.00000000000E+00 0. -1.
         11    1    3    3    0    0 -0.23564298910E+02 -0.98817546657E+01  0.19485421410E+02  0.32134201502E+02  0.51100000000E-03 0. -1.
        -11    1    3    3    0    0  0.87743540760E+01  0.57885837702E+01 -0.69769290931E+01  0.12616438933E+02  0.51100000000E-03 0.  1.
         12    1    3    3    0    0  0.27059940103E+02 -0.55628151010E+01 -0.21697246684E+01  0.27710881894E+02  0.00000000000E+00 0. -1.
</event>
<event>
 7    1  0.1283194E-013  0.7246183E+02  0.7816164E-02  0.1226707E+00
        -11   -1    0    0    0    0  0.00000000000E+00  0.00000000000E+00  0.45593999997E+02  0.45594000000E+02  0.51100000000E-03 0.  1.
         11   -1    0    0    0    0 -0.00000000000E+00 -0.00000000000E+00 -0.45593999997E+02  0.45594000000E+02  0.51100000000E-03 0. -1.
    9900012    2    1    2    0    0 -0.13001357777E+02  0.94971161365E+01  0.95623629087E+01  0.72461833725E+02  0.70000343167E+02 0.  0.
         12    1    1    2    0    0  0.13001357777E+02 -0.94971161365E+01 -0.95623629087E+01  0.18726166275E+02  0.00000000000E+00 0. -1.
         11    1    3    3    0    0  0.11928020259E+02  0.51057819263E+01  0.25858906290E+02  0.28931465762E+02  0.51100000000E-03 0. -1.
        -11    1    3    3    0    0 -0.26716248485E+02 -0.31778212811E+01 -0.16598248684E+01  0.26955732230E+02  0.51100000000E-03 0.  1.
         12    1    3    3    0    0  0.17868704496E+01  0.75691554914E+01 -0.14636718513E+02  0.16574635733E+02  0.00000000000E+00 0. -1.
</event>
<event>
 7    1  0.1283194E-013  0.7246156E+02  0.7816164E-02  0.1226708E+00
        -11   -1    0    0    0    0  0.00000000000E+00  0.00000000000E+00  0.45593999997E+02  0.45594000000E+02  0.51100000000E-03 0. -1.
         11   -1    0    0    0    0 -0.00000000000E+00 -0.00000000000E+00 -0.45593999997E+02  0.45594000000E+02  0.51100000000E-03 0.  1.
    9900012    2    1    2    0    0  0.32874846597E+01  0.12424973006E+02 -0.13619546067E+02  0.72461560278E+02  0.69999986952E+02 0.  0.
         12    1    1    2    0    0 -0.32874846597E+01 -0.12424973006E+02  0.13619546067E+02  0.18726439722E+02  0.00000000000E+00 0. -1.
         11    1    3    3    0    0  0.12009341774E+02  0.17541791695E+02  0.82442469274E+01  0.22801455072E+02  0.51100000000E-03 0. -1.
        -11    1    3    3    0    0  0.46304749650E+01 -0.47358248617E+01 -0.32134668839E+02  0.32810155092E+02  0.51100000000E-03 0.  1.
        -12    1    3    3    0    0 -0.13352332079E+02 -0.38099382735E+00  0.10270875845E+02  0.16849950115E+02  0.00000000000E+00 0.  1.
</event>
<event>
 7    1  0.1283194E-013  0.7246156E+02  0.7816164E-02  0.1226708E+00
        -11   -1    0    0    0    0  0.00000000000E+00  0.00000000000E+00  0.45593999997E+02  0.45594000000E+02  0.51100000000E-03 0.  1.
         11   -1    0    0    0    0 -0.00000000000E+00 -0.00000000000E+00 -0.45593999997E+02  0.45594000000E+02  0.51100000000E-03 0. -1.
    9900012    2    1    2    0    0  0.46139940000E+01  0.70137081400E+01  0.16739129299E+02  0.72461561679E+02  0.69999988777E+02 0.  0.
         12    1    1    2    0    0 -0.46139940000E+01 -0.70137081400E+01 -0.16739129299E+02  0.18726438321E+02  0.00000000000E+00 0. -1.
         11    1    3    3    0    0  0.30367216508E+02  0.52968194210E+01  0.11077301588E+02  0.32755621581E+02  0.51100000000E-03 0. -1.
        -11    1    3    3    0    0 -0.20440851487E+02  0.14661648506E+02  0.53066461015E+01  0.25709003083E+02  0.51100000000E-03 0.  1.
         12    1    3    3    0    0 -0.53123710212E+01 -0.12944759787E+02  0.35518160905E+00  0.13996937015E+02  0.00000000000E+00 0. -1.
</event>
<event>
 7    1  0.1283194E-013  0.7246155E+02  0.7816164E-02  0.1226708E+00
        -11   -1    0    0    0    0  0.00000000000E+00  0.00000000000E+00  0.45593999997E+02  0.45594000000E+02  0.51100000000E-03 0. -1.
         11   -1    0    0    0    0 -0.00000000000E+00 -0.00000000000E+00 -0.45593999997E+02  0.45594000000E+02  0.51100000000E-03 0.  1.
    9900012    2    1    2    0    0 -0.10761255425E+02 -0.36968344012E+01  0.14873082078E+02  0.72461554170E+02  0.69999978995E+02 0.  0.
         12    1    1    2    0    0  0.10761255425E+02  0.36968344012E+01 -0.14873082078E+02  0.18726445830E+02  0.00000000000E+00 0. -1.
         11    1    3    3    0    0 -0.41890260567E+01  0.40098029191E+01  0.23491796949E+02  0.24196920939E+02  0.51100000000E-03 0. -1.
        -11    1    3    3    0    0 -0.23014311860E+02  0.80885491678E+01 -0.71362312990E+01  0.25416706621E+02  0.51100000000E-03 0.  1.
        -12    1    3    3    0    0  0.16442082492E+02 -0.15795186488E+02 -0.14824835722E+01  0.22847926611E+02  0.00000000000E+00 0.  1.
</event>
<event>
 7    1  0.1283194E-013  0.7246156E+02  0.7816164E-02  0.1226708E+00
        -11   -1    0    0    0    0  0.00000000000E+00  0.00000000000E+00  0.45593999997E+02  0.45594000000E+02  0.51100000000E-03 0.  1.
         11   -1    0    0    0    0 -0.00000000000E+00 -0.00000000000E+00 -0.45593999997E+02  0.45594000000E+02  0.51100000000E-03 0. -1.
    9900012    2    1    2    0    0 -0.74138558402E+01 -0.16016730141E+02 -0.62592791748E+01  0.72461562042E+02  0.69999989249E+02 0.  0.
         12    1    1    2    0    0  0.74138558402E+01  0.16016730141E+02  0.62592791748E+01  0.18726437958E+02  0.00000000000E+00 0. -1.
         11    1    3    3    0    0  0.12214029902E+01  0.49328237546E+00 -0.65333994575E+01  0.66648677030E+01  0.51100000000E-03 0. -1.
        -11    1    3    3    0    0 -0.73332608709E+01 -0.40312860269E+02  0.56429387993E+01  0.41361167496E+02  0.51100000000E-03 0.  1.
        -12    1    3    3    0    0 -0.13019979595E+01  0.23802847753E+02 -0.53688185167E+01  0.24435526843E+02  0.00000000000E+00 0.  1.
</event>
<event>
 7    1  0.1283194E-013  0.7246161E+02  0.7816164E-02  0.1226708E+00
        -11   -1    0    0    0    0  0.00000000000E+00  0.00000000000E+00  0.45593999997E+02  0.45594000000E+02  0.51100000000E-03 0.  1.
         11   -1    0    0    0    0 -0.00000000000E+00 -0.00000000000E+00 -0.45593999997E+02  0.45594000000E+02  0.51100000000E-03 0. -1.
    9900012    2    1    2    0    0 -0.14473415602E+02  0.67127624114E+01  0.98049253728E+01  0.72461614872E+02  0.70000058071E+02 0.  0.
         12    1    1    2    0    0  0.14473415602E+02 -0.67127624114E+01 -0.98049253728E+01  0.18726385128E+02  0.00000000000E+00 0. -1.
         11    1    3    3    0    0  0.22333840854E+02  0.63737070578E+01 -0.31814404705E+01  0.23442400745E+02  0.51100000000E-03 0. -1.
        -11    1    3    3    0    0 -0.20500847858E+02 -0.62762472685E+01  0.20703218151E+02  0.29804350098E+02  0.51100000000E-03 0.  1.
         12    1    3    3    0    0 -0.16306408598E+02  0.66153026221E+01 -0.77168523077E+01  0.19214864030E+02  0.00000000000E+00 0. -1.
</event>
<event>
 7    1  0.1283194E-013  0.7246138E+02  0.7816164E-02  0.1226709E+00
        -11   -1    0    0    0    0  0.00000000000E+00  0.00000000000E+00  0.45593999997E+02  0.45594000000E+02  0.51100000000E-03 0.  1.
         11   -1    0    0    0    0 -0.00000000000E+00 -0.00000000000E+00 -0.45593999997E+02  0.45594000000E+02  0.51100000000E-03 0. -1.
    9900012    2    1    2    0    0 -0.10783908442E+02 -0.14119324473E+02  0.59193051646E+01  0.72461383155E+02  0.69999756215E+02 0.  0.
         12    1    1    2    0    0  0.10783908442E+02  0.14119324473E+02 -0.59193051646E+01  0.18726616845E+02  0.00000000000E+00 0. -1.
         11    1    3    3    0    0 -0.10556464517E+02 -0.24104256307E+02 -0.20298122156E+02  0.33233535451E+02  0.51100000000E-03 0. -1.
        -11    1    3    3    0    0  0.24460092822E+01  0.19221626738E+02  0.19557617787E+02  0.27530970009E+02  0.51100000000E-03 0.  1.
        -12    1    3    3    0    0 -0.26734532068E+01 -0.92366949033E+01  0.66598095334E+01  0.11696877695E+02  0.00000000000E+00 0.  1.
</event>
<event>
 7    1  0.1283194E-013  0.7246155E+02  0.7816164E-02  0.1226708E+00
        -11   -1    0    0    0    0  0.00000000000E+00  0.00000000000E+00  0.45593999997E+02  0.45594000000E+02  0.51100000000E-03 0. -1.
         11   -1    0    0    0    0 -0.00000000000E+00 -0.00000000000E+00 -0.45593999997E+02  0.45594000000E+02  0.51100000000E-03 0.  1.
    9900012    2    1    2    0    0  0.13572740870E+01 -0.12844269443E+02 -0.13559593331E+02  0.72461547539E+02  0.69999970356E+02 0.  0.
         12    1    1    2    0    0 -0.13572740870E+01  0.12844269443E+02  0.13559593331E+02  0.18726452461E+02  0.00000000000E+00 0. -1.
         11    1    3    3    0    0  0.16798203071E+01  0.10855239278E+02 -0.76811772293E+01  0.13403674867E+02  0.51100000000E-03 0. -1.
        -11    1    3    3    0    0  0.16536035049E+02 -0.22324143103E+02  0.15487744745E+02  0.31806886958E+02  0.51100000000E-03 0.  1.
        -12    1    3    3    0    0 -0.16858581269E+02 -0.13753656191E+01 -0.21366160847E+02  0.27250985713E+02  0.00000000000E+00 0.  1.
</event>
<event>
 7    1  0.1283194E-013  0.7246173E+02  0.7816164E-02  0.1226708E+00
        -11   -1    0    0    0    0  0.00000000000E+00  0.00000000000E+00  0.45593999997E+02  0.45594000000E+02  0.51100000000E-03 0.  1.
         11   -1    0    0    0    0 -0.00000000000E+00 -0.00000000000E+00 -0.45593999997E+02  0.45594000000E+02  0.51100000000E-03 0. -1.
    9900012    2    1    2    0    0 -0.62132894618E+01 -0.10921267138E+02  0.13885039352E+02  0.72461725420E+02  0.70000202079E+02 0.  0.
         12    1    1    2    0    0  0.62132894618E+01  0.10921267138E+02 -0.13885039352E+02  0.18726274580E+02  0.00000000000E+00 0. -1.
         11    1    3    3    0    0 -0.28195083458E+02 -0.21322259675E+02  0.25015625809E+02  0.43305692741E+02  0.51100000000E-03 0. -1.
        -11    1    3    3    0    0  0.51702667436E+01  0.67011171805E+01  0.33973167133E+00  0.84706580345E+01  0.51100000000E-03 0.  1.
         12    1    3    3    0    0  0.16811527253E+02  0.36998753559E+01 -0.11470318128E+02  0.20685374644E+02  0.00000000000E+00 0. -1.
</event>
<event>
 7    1  0.1283194E-013  0.7246162E+02  0.7816164E-02  0.1226708E+00
        -11   -1    0    0    0    0  0.00000000000E+00  0.00000000000E+00  0.45593999997E+02  0.45594000000E+02  0.51100000000E-03 0. -1.
         11   -1    0    0    0    0 -0.00000000000E+00 -0.00000000000E+00 -0.45593999997E+02  0.45594000000E+02  0.51100000000E-03 0.  1.
    9900012    2    1    2    0    0 -0.69418973956E+01  0.12170306142E+02 -0.12424613285E+02  0.72461620042E+02  0.70000064805E+02 0.  0.
         12    1    1    2    0    0  0.69418973956E+01 -0.12170306142E+02  0.12424613285E+02  0.18726379958E+02  0.00000000000E+00 0. -1.
         11    1    3    3    0    0  0.13665265588E+02  0.31232032086E+02 -0.56219737325E+01  0.34551206935E+02  0.51100000000E-03 0. -1.
        -11    1    3    3    0    0 -0.27338793409E+01 -0.29079671447E+01 -0.12527624354E+02  0.13148069872E+02  0.51100000000E-03 0.  1.
         12    1    3    3    0    0 -0.17873283642E+02 -0.16153758799E+02  0.57249848008E+01  0.24762343234E+02  0.00000000000E+00 0. -1.
</event>
<event>
 7    1  0.1283194E-013  0.7246158E+02  0.7816164E-02  0.1226708E+00
        -11   -1    0    0    0    0  0.00000000000E+00  0.00000000000E+00  0.45593999997E+02  0.45594000000E+02  0.51100000000E-03 0.  1.
         11   -1    0    0    0    0 -0.00000000000E+00 -0.00000000000E+00 -0.45593999997E+02  0.45594000000E+02  0.51100000000E-03 0. -1.
    9900012    2    1    2    0    0 -0.13869598357E+02 -0.47212318034E+01  0.11662883456E+02  0.72461584464E+02  0.70000018458E+02 0.  0.
         12    1    1    2    0    0  0.13869598357E+02  0.47212318034E+01 -0.11662883456E+02  0.18726415536E+02  0.00000000000E+00 0. -1.
         11    1    3    3    0    0  0.59420569609E+01 -0.24182781323E+02 -0.13202002979E+02  0.28185241464E+02  0.51100000000E-03 0.  1.
        -11    1    3    3    0    0 -0.21985907343E+02  0.17421100553E+02  0.11059684672E+02  0.30152802382E+02  0.51100000000E-03 0. -1.
         12    1    3    3    0    0  0.21742520247E+01  0.20404489663E+01  0.13805201764E+02  0.14123540618E+02  0.00000000000E+00 0. -1.
</event>
<event>
 7    1  0.1283194E-013  0.7246159E+02  0.7816164E-02  0.1226708E+00
        -11   -1    0    0    0    0  0.00000000000E+00  0.00000000000E+00  0.45593999997E+02  0.45594000000E+02  0.51100000000E-03 0.  1.
         11   -1    0    0    0    0 -0.00000000000E+00 -0.00000000000E+00 -0.45593999997E+02  0.45594000000E+02  0.51100000000E-03 0. -1.
    9900012    2    1    2    0    0  0.18023130417E+01  0.12544290666E+02  0.13786618698E+02  0.72461590420E+02  0.70000026218E+02 0.  0.
         12    1    1    2    0    0 -0.18023130417E+01 -0.12544290666E+02 -0.13786618698E+02  0.18726409580E+02  0.00000000000E+00 0. -1.
         11    1    3    3    0    0 -0.89412242269E+01  0.49573209710E+01 -0.10826268414E+02  0.14890554386E+02  0.51100000000E-03 0. -1.
        -11    1    3    3    0    0  0.11307506850E+02  0.26155075745E+02  0.26482173186E+02  0.38900555206E+02  0.51100000000E-03 0.  1.
        -12    1    3    3    0    0 -0.56396958146E+00 -0.18568106050E+02 -0.18692860745E+01  0.18670480829E+02  0.00000000000E+00 0.  1.
</event>
<event>
 7    1  0.1283194E-013  0.7246164E+02  0.7816164E-02  0.1226708E+00
        -11   -1    0    0    0    0  0.00000000000E+00  0.00000000000E+00  0.45593999997E+02  0.45594000000E+02  0.51100000000E-03 0.  1.
         11   -1    0    0    0    0 -0.00000000000E+00 -0.00000000000E+00 -0.45593999997E+02  0.45594000000E+02  0.51100000000E-03 0. -1.
    9900012    2    1    2    0    0 -0.17602174295E+02  0.12237160317E+01 -0.62723737952E+01  0.72461636395E+02  0.70000086108E+02 0.  0.
         12    1    1    2    0    0  0.17602174295E+02 -0.12237160317E+01  0.62723737952E+01  0.18726363605E+02  0.00000000000E+00 0. -1.
         11    1    3    3    0    0  0.84386742109E+01 -0.17511613536E+02  0.20760040694E+02  0.28440237709E+02  0.51100000000E-03 0.  1.
        -11    1    3    3    0    0 -0.19627465361E+02  0.61553604957E+01 -0.17219323769E+02  0.26825938392E+02  0.51100000000E-03 0. -1.
        -12    1    3    3    0    0 -0.64133831449E+01  0.12579969072E+02 -0.98130907207E+01  0.17195460294E+02  0.00000000000E+00 0.  1.
</event>
<event>
 7    1  0.1283194E-013  0.7246152E+02  0.7816164E-02  0.1226708E+00
        -11   -1    0    0    0    0  0.00000000000E+00  0.00000000000E+00  0.45593999997E+02  0.45594000000E+02  0.51100000000E-03 0.  1.
         11   -1    0    0    0    0 -0.00000000000E+00 -0.00000000000E+00 -0.45593999997E+02  0.45594000000E+02  0.51100000000E-03 0. -1.
    9900012    2    1    2    0    0 -0.93453757329E+01  0.11504226068E+01  0.16187082881E+02  0.72461516829E+02  0.69999930351E+02 0.  0.
         12    1    1    2    0    0  0.93453757329E+01 -0.11504226068E+01 -0.16187082881E+02  0.18726483171E+02  0.00000000000E+00 0. -1.
         11    1    3    3    0    0 -0.26649352744E+02 -0.11503454289E+02  0.11700439575E+02  0.31295650636E+02  0.51100000000E-03 0. -1.
        -11    1    3    3    0    0 -0.17502197215E+01  0.15162903101E+02 -0.89702386304E+01  0.17704295549E+02  0.51100000000E-03 0.  1.
         12    1    3    3    0    0  0.19054196732E+02 -0.25090262056E+01  0.13456881937E+02  0.23461570644E+02  0.00000000000E+00 0. -1.
</event>
<event>
 7    1  0.1283194E-013  0.7246193E+02  0.7816164E-02  0.1226707E+00
        -11   -1    0    0    0    0  0.00000000000E+00  0.00000000000E+00  0.45593999997E+02  0.45594000000E+02  0.51100000000E-03 0. -1.
         11   -1    0    0    0    0 -0.00000000000E+00 -0.00000000000E+00 -0.45593999997E+02  0.45594000000E+02  0.51100000000E-03 0.  1.
    9900012    2    1    2    0    0 -0.12527238197E+02 -0.17180824192E+01 -0.13812395045E+02  0.72461928310E+02  0.70000466380E+02 0.  0.
         12    1    1    2    0    0  0.12527238197E+02  0.17180824192E+01  0.13812395045E+02  0.18726071690E+02  0.00000000000E+00 0. -1.
         11    1    3    3    0    0 -0.13282112320E+02  0.28978517179E+02  0.97773174670E+01  0.33343138765E+02  0.51100000000E-03 0. -1.
        -11    1    3    3    0    0  0.25436169278E+01 -0.77111943340E+01 -0.53893597472E+01  0.97456505108E+01  0.51100000000E-03 0.  1.
         12    1    3    3    0    0 -0.17887428047E+01 -0.22985405264E+02 -0.18200352765E+02  0.29373139035E+02  0.00000000000E+00 0. -1.
</event>
<event>
 7    1  0.1283194E-013  0.7246175E+02  0.7816164E-02  0.1226708E+00
        -11   -1    0    0    0    0  0.00000000000E+00  0.00000000000E+00  0.45593999997E+02  0.45594000000E+02  0.51100000000E-03 0.  1.
         11   -1    0    0    0    0 -0.00000000000E+00 -0.00000000000E+00 -0.45593999997E+02  0.45594000000E+02  0.51100000000E-03 0. -1.
    9900012    2    1    2    0    0 -0.11186713246E+01  0.15394045392E+02  0.10603984720E+02  0.72461747011E+02  0.70000230206E+02 0.  0.
         12    1    1    2    0    0  0.11186713246E+01 -0.15394045392E+02 -0.10603984720E+02  0.18726252989E+02  0.00000000000E+00 0. -1.
         11    1    3    3    0    0  0.59446496691E+01 -0.19602758450E+01 -0.21036444591E+02  0.21947973536E+02  0.51100000000E-03 0. -1.
        -11    1    3    3    0    0  0.12424241829E+02  0.13248245196E+02  0.21565926155E+02  0.28195158396E+02  0.51100000000E-03 0.  1.
         12    1    3    3    0    0 -0.19487562822E+02  0.41060760405E+01  0.10074503155E+02  0.22318615079E+02  0.00000000000E+00 0. -1.
</event>
<event>
 7    1  0.1283194E-013  0.7246158E+02  0.7816164E-02  0.1226708E+00
        -11   -1    0    0    0    0  0.00000000000E+00  0.00000000000E+00  0.45593999997E+02  0.45594000000E+02  0.51100000000E-03 0.  1.
         11   -1    0    0    0    0 -0.00000000000E+00 -0.00000000000E+00 -0.45593999997E+02  0.45594000000E+02  0.51100000000E-03 0. -1.
    9900012    2    1    2    0    0  0.20540530362E+01  0.15260981313E+02 -0.10656545047E+02  0.72461584517E+02  0.70000018528E+02 0.  0.
         12    1    1    2    0    0 -0.20540530362E+01 -0.15260981313E+02  0.10656545047E+02  0.18726415483E+02  0.00000000000E+00 0. -1.
         11    1    3    3    0    0  0.28890577408E+00  0.62947990495E+01 -0.29135901660E+02  0.29809540879E+02  0.51100000000E-03 0. -1.
        -11    1    3    3    0    0 -0.14906513712E+02 -0.90691604636E+00  0.17839987696E+02  0.23265678779E+02  0.51100000000E-03 0.  1.
        -12    1    3    3    0    0  0.16671660974E+02  0.98730983094E+01  0.63936891664E+00  0.19386364860E+02  0.00000000000E+00 0.  1.
</event>
<event>
 7    1  0.1283194E-013  0.7246158E+02  0.7816164E-02  0.1226708E+00
        -11   -1    0    0    0    0  0.00000000000E+00  0.00000000000E+00  0.45593999997E+02  0.45594000000E+02  0.51100000000E-03 0.  1.
         11   -1    0    0    0    0 -0.00000000000E+00 -0.00000000000E+00 -0.45593999997E+02  0.45594000000E+02  0.51100000000E-03 0. -1.
    9900012    2    1    2    0    0 -0.91121741086E+01 -0.12342357813E+02  0.10738407941E+02  0.72461576997E+02  0.70000008731E+02 0.  0.
         12    1    1    2    0    0  0.91121741086E+01  0.12342357813E+02 -0.10738407941E+02  0.18726423003E+02  0.00000000000E+00 0. -1.
         11    1    3    3    0    0  0.15651528586E+01 -0.27457763378E+02 -0.11133996493E+02  0.29670597422E+02  0.51100000000E-03 0. -1.
        -11    1    3    3    0    0 -0.20737240446E+02  0.15113804453E+02  0.10827288825E+02  0.27851219182E+02  0.51100000000E-03 0.  1.
         12    1    3    3    0    0  0.10059913479E+02  0.16011118586E-02  0.11045115610E+02  0.14939760393E+02  0.00000000000E+00 0. -1.
</event>
<event>
 7    1  0.1283194E-013  0.7246156E+02  0.7816164E-02  0.1226708E+00
        -11   -1    0    0    0    0  0.00000000000E+00  0.00000000000E+00  0.45593999997E+02  0.45594000000E+02  0.51100000000E-03 0. -1.
         11   -1    0    0    0    0 -0.00000000000E+00 -0.00000000000E+00 -0.45593999997E+02  0.45594000000E+02  0.51100000000E-03 0.  1.
    9900012    2    1    2    0    0 -0.39968925719E+01 -0.58616513653E+01 -0.17330473332E+02  0.72461563796E+02  0.69999991535E+02 0.  0.
         12    1    1    2    0    0  0.39968925719E+01  0.58616513653E+01  0.17330473332E+02  0.18726436204E+02  0.00000000000E+00 0. -1.
         11    1    3    3    0    0 -0.29529323075E+01 -0.24047638281E+02  0.38204717893E+01  0.24527631786E+02  0.51100000000E-03 0. -1.
        -11    1    3    3    0    0 -0.18154304401E+02  0.94612344394E+01 -0.20113972031E+02  0.28699574849E+02  0.51100000000E-03 0.  1.
         12    1    3    3    0    0  0.17110344136E+02  0.87247524760E+01 -0.10369730911E+01  0.19234357162E+02  0.00000000000E+00 0. -1.
</event>
<event>
 7    1  0.1283194E-013  0.7246157E+02  0.7816164E-02  0.1226708E+00
        -11   -1    0    0    0    0  0.00000000000E+00  0.00000000000E+00  0.45593999997E+02  0.45594000000E+02  0.51100000000E-03 0.  1.
         11   -1    0    0    0    0 -0.00000000000E+00 -0.00000000000E+00 -0.45593999997E+02  0.45594000000E+02  0.51100000000E-03 0. -1.
    9900012    2    1    2    0    0  0.16150218472E+02  0.96295480006E+00  0.94298605345E+01  0.72461571928E+02  0.70000002128E+02 0.  0.
         12    1    1    2    0    0 -0.16150218472E+02 -0.96295480006E+00 -0.94298605345E+01  0.18726428072E+02  0.00000000000E+00 0. -1.
         11    1    3    3    0    0  0.19000972289E+02 -0.36793199319E+01  0.10118620695E+00  0.19354187712E+02  0.51100000000E-03 0. -1.
        -11    1    3    3    0    0 -0.14883625814E+02  0.89539125151E+01  0.26509690347E+02  0.31693194053E+02  0.51100000000E-03 0.  1.
        -12    1    3    3    0    0  0.12032871996E+02 -0.43116377831E+01 -0.17181016020E+02  0.21414190163E+02  0.00000000000E+00 0.  1.
</event>
<event>
 7    1  0.1283194E-013  0.7246159E+02  0.7816164E-02  0.1226708E+00
        -11   -1    0    0    0    0  0.00000000000E+00  0.00000000000E+00  0.45593999997E+02  0.45594000000E+02  0.51100000000E-03 0.  1.
         11   -1    0    0    0    0 -0.00000000000E+00 -0.00000000000E+00 -0.45593999997E+02  0.45594000000E+02  0.51100000000E-03 0. -1.
    9900012    2    1    2    0    0 -0.55368336962E+01  0.12445805098E+02  0.12850054487E+02  0.72461588378E+02  0.70000023557E+02 0.  0.
         12    1    1    2    0    0  0.55368336962E+01 -0.12445805098E+02 -0.12850054487E+02  0.18726411622E+02  0.00000000000E+00 0. -1.
         11    1    3    3    0    0 -0.17929892694E+02 -0.15609225525E+02 -0.10224877025E+02  0.25878119792E+02  0.51100000000E-03 0. -1.
        -11    1    3    3    0    0  0.14189579967E+01  0.13273725325E+02 -0.39160653097E+01  0.13911893961E+02  0.51100000000E-03 0.  1.
         12    1    3    3    0    0  0.10974101001E+02  0.14781305298E+02  0.26990996822E+02  0.32671574626E+02  0.00000000000E+00 0. -1.
</event>
<event>
 7    1  0.1283194E-013  0.7246153E+02  0.7816164E-02  0.1226708E+00
        -11   -1    0    0    0    0  0.00000000000E+00  0.00000000000E+00  0.45593999997E+02  0.45594000000E+02  0.51100000000E-03 0.  1.
         11   -1    0    0    0    0 -0.00000000000E+00 -0.00000000000E+00 -0.45593999997E+02  0.45594000000E+02  0.51100000000E-03 0. -1.
    9900012    2    1    2    0    0 -0.10771954760E+02 -0.83221993319E+01  0.12860277608E+02  0.72461528062E+02  0.69999944985E+02 0.  0.
         12    1    1    2    0    0  0.10771954760E+02  0.83221993319E+01 -0.12860277608E+02  0.18726471938E+02  0.00000000000E+00 0. -1.
         11    1    3    3    0    0  0.18920426167E+02  0.91869428181E+01 -0.80065192419E+01  0.22505261503E+02  0.51100000000E-03 0. -1.
        -11    1    3    3    0    0 -0.20431176450E+02 -0.13674203999E+02 -0.23214119923E+01  0.24694245889E+02  0.51100000000E-03 0.  1.
         12    1    3    3    0    0 -0.92612044778E+01 -0.38349381509E+01  0.23188208843E+02  0.25262020670E+02  0.00000000000E+00 0. -1.
</event>
<event>
 7    1  0.1283194E-013  0.7246160E+02  0.7816164E-02  0.1226708E+00
        -11   -1    0    0    0    0  0.00000000000E+00  0.00000000000E+00  0.45593999997E+02  0.45594000000E+02  0.51100000000E-03 0.  1.
         11   -1    0    0    0    0 -0.00000000000E+00 -0.00000000000E+00 -0.45593999997E+02  0.45594000000E+02  0.51100000000E-03 0. -1.
    9900012    2    1    2    0    0  0.15261578084E+02 -0.80381417600E+00 -0.10822019424E+02  0.72461601861E+02  0.70000041122E+02 0.  0.
         12    1    1    2    0    0 -0.15261578084E+02  0.80381417600E+00  0.10822019424E+02  0.18726398139E+02  0.00000000000E+00 0. -1.
         11    1    3    3    0    0 -0.13601120504E+02 -0.24696532765E+02 -0.13109033875E+02  0.31092699770E+02  0.51100000000E-03 0. -1.
        -11    1    3    3    0    0  0.15393629969E+02  0.22619442376E+02  0.42814362376E+01  0.27693568090E+02  0.51100000000E-03 0.  1.
        -12    1    3    3    0    0  0.13469068619E+02  0.12732762125E+01 -0.19944217870E+01  0.13675334001E+02  0.00000000000E+00 0.  1.
</event>
<event>
 7    1  0.1283194E-013  0.7246160E+02  0.7816164E-02  0.1226708E+00
        -11   -1    0    0    0    0  0.00000000000E+00  0.00000000000E+00  0.45593999997E+02  0.45594000000E+02  0.51100000000E-03 0. -1.
         11   -1    0    0    0    0 -0.00000000000E+00 -0.00000000000E+00 -0.45593999997E+02  0.45594000000E+02  0.51100000000E-03 0.  1.
    9900012    2    1    2    0    0 -0.73875471833E+01 -0.17186714245E+02  0.84786350385E+00  0.72461604927E+02  0.70000045115E+02 0.  0.
         12    1    1    2    0    0  0.73875471833E+01  0.17186714245E+02 -0.84786350385E+00  0.18726395073E+02  0.00000000000E+00 0. -1.
         11    1    3    3    0    0  0.24710541078E+02 -0.15104218713E+02 -0.18606434382E+02  0.34423068776E+02  0.51100000000E-03 0. -1.
        -11    1    3    3    0    0 -0.18145402905E+02 -0.28503335167E+01  0.82875450638E+01  0.20151016133E+02  0.51100000000E-03 0.  1.
         12    1    3    3    0    0 -0.13952685356E+02  0.76783798432E+00  0.11166752822E+02  0.17887520018E+02  0.00000000000E+00 0. -1.
</event>
<event>
 7    1  0.1283194E-013  0.7246159E+02  0.7816164E-02  0.1226708E+00
        -11   -1    0    0    0    0  0.00000000000E+00  0.00000000000E+00  0.45593999997E+02  0.45594000000E+02  0.51100000000E-03 0.  1.
         11   -1    0    0    0    0 -0.00000000000E+00 -0.00000000000E+00 -0.45593999997E+02  0.45594000000E+02  0.51100000000E-03 0. -1.
    9900012    2    1    2    0    0  0.89839667460E+01  0.16154453825E+02 -0.30000776535E+01  0.72461588096E+02  0.70000023190E+02 0.  0.
         12    1    1    2    0    0 -0.89839667460E+01 -0.16154453825E+02  0.30000776535E+01  0.18726411904E+02  0.00000000000E+00 0. -1.
         11    1    3    3    0    0  0.39927808875E+01 -0.26041305671E+02  0.50529963385E+01  0.26825821004E+02  0.51100000000E-03 0.  1.
        -11    1    3    3    0    0  0.98086090777E+00  0.35509196312E+02 -0.16746693941E+01  0.35562193812E+02  0.51100000000E-03 0. -1.
         12    1    3    3    0    0  0.40103249506E+01  0.66865631836E+01 -0.63784045979E+01  0.10073573280E+02  0.00000000000E+00 0. -1.
</event>
<event>
 7    1  0.1283194E-013  0.7246160E+02  0.7816164E-02  0.1226708E+00
        -11   -1    0    0    0    0  0.00000000000E+00  0.00000000000E+00  0.45593999997E+02  0.45594000000E+02  0.51100000000E-03 0.  1.
         11   -1    0    0    0    0 -0.00000000000E+00 -0.00000000000E+00 -0.45593999997E+02  0.45594000000E+02  0.51100000000E-03 0. -1.
    9900012    2    1    2    0    0  0.85885615499E-01  0.17635005527E+02 -0.62989829075E+01  0.72461602002E+02  0.70000041306E+02 0.  0.
         12    1    1    2    0    0 -0.85885615499E-01 -0.17635005527E+02  0.62989829075E+01  0.18726397998E+02  0.00000000000E+00 0. -1.
         11    1    3    3    0    0 -0.33242203774E+00  0.52377881455E+01 -0.78931582415E+01  0.94787592202E+01  0.51100000000E-03 0. -1.
        -11    1    3    3    0    0 -0.20444880707E+02 -0.93550204168E+01  0.17877950044E+02  0.28725087505E+02  0.51100000000E-03 0.  1.
        -12    1    3    3    0    0  0.20863188361E+02  0.21752237799E+02 -0.16283774710E+02  0.34257755277E+02  0.00000000000E+00 0.  1.
</event>
<event>
 7    1  0.1283194E-013  0.7246161E+02  0.7816164E-02  0.1226708E+00
        -11   -1    0    0    0    0  0.00000000000E+00  0.00000000000E+00  0.45593999997E+02  0.45594000000E+02  0.51100000000E-03 0. -1.
         11   -1    0    0    0    0 -0.00000000000E+00 -0.00000000000E+00 -0.45593999997E+02  0.45594000000E+02  0.51100000000E-03 0.  1.
    9900012    2    1    2    0    0 -0.89364636624E+01  0.13029913544E+02 -0.10051793182E+02  0.72461612843E+02  0.70000055428E+02 0.  0.
         12    1    1    2    0    0  0.89364636624E+01 -0.13029913544E+02  0.10051793182E+02  0.18726387157E+02  0.00000000000E+00 0. -1.
         11    1    3    3    0    0 -0.26429452645E+02  0.33478590523E+01  0.10370560821E+02  0.28587981029E+02  0.51100000000E-03 0. -1.
        -11    1    3    3    0    0  0.56529740067E+01  0.21335788597E+02 -0.97621557653E+01  0.24134449975E+02  0.51100000000E-03 0.  1.
         12    1    3    3    0    0  0.11840014975E+02 -0.11653734105E+02 -0.10660198238E+02  0.19739181839E+02  0.00000000000E+00 0. -1.
</event>
<event>
 7    1  0.1283194E-013  0.7246165E+02  0.7816164E-02  0.1226708E+00
        -11   -1    0    0    0    0  0.00000000000E+00  0.00000000000E+00  0.45593999997E+02  0.45594000000E+02  0.51100000000E-03 0.  1.
         11   -1    0    0    0    0 -0.00000000000E+00 -0.00000000000E+00 -0.45593999997E+02  0.45594000000E+02  0.51100000000E-03 0. -1.
    9900012    2    1    2    0    0 -0.13243335605E+02 -0.10435444943E+02  0.81481070763E+01  0.72461652304E+02  0.70000106833E+02 0.  0.
         12    1    1    2    0    0  0.13243335605E+02  0.10435444943E+02 -0.81481070763E+01  0.18726347696E+02  0.00000000000E+00 0. -1.
         11    1    3    3    0    0  0.11593622865E+02  0.16845076772E+02 -0.11678140116E+02  0.23548835627E+02  0.51100000000E-03 0.  1.
        -11    1    3    3    0    0 -0.22148619075E+02 -0.32050401519E+02  0.19102029663E+02  0.43389827171E+02  0.51100000000E-03 0. -1.
         12    1    3    3    0    0 -0.26883393953E+01  0.47698798043E+01  0.72421752981E+00  0.55229895059E+01  0.00000000000E+00 0. -1.
</event>
<event>
 7    1  0.1283194E-013  0.7246158E+02  0.7816164E-02  0.1226708E+00
        -11   -1    0    0    0    0  0.00000000000E+00  0.00000000000E+00  0.45593999997E+02  0.45594000000E+02  0.51100000000E-03 0.  1.
         11   -1    0    0    0    0 -0.00000000000E+00 -0.00000000000E+00 -0.45593999997E+02  0.45594000000E+02  0.51100000000E-03 0. -1.
    9900012    2    1    2    0    0 -0.11130323332E+02 -0.25215903979E+00  0.15057596382E+02  0.72461577746E+02  0.70000009707E+02 0.  0.
         12    1    1    2    0    0  0.11130323332E+02  0.25215903979E+00 -0.15057596382E+02  0.18726422254E+02  0.00000000000E+00 0. -1.
         11    1    3    3    0    0 -0.26357610818E+02 -0.12552290897E+02 -0.29006370014E+01  0.29337643908E+02  0.51100000000E-03 0. -1.
        -11    1    3    3    0    0  0.23578012360E+02  0.75093403350E+01  0.21584754818E+02  0.32836176695E+02  0.51100000000E-03 0.  1.
        -12    1    3    3    0    0 -0.83507248736E+01  0.47907915221E+01 -0.36265214347E+01  0.10287757143E+02  0.00000000000E+00 0.  1.
</event>
<event>
 7    1  0.1283194E-013  0.7246156E+02  0.7816164E-02  0.1226708E+00
        -11   -1    0    0    0    0  0.00000000000E+00  0.00000000000E+00  0.45593999997E+02  0.45594000000E+02  0.51100000000E-03 0. -1.
         11   -1    0    0    0    0 -0.00000000000E+00 -0.00000000000E+00 -0.45593999997E+02  0.45594000000E+02  0.51100000000E-03 0.  1.
    9900012    2    1    2    0    0 -0.13445353009E+02 -0.12938042422E+02 -0.15839850892E+01  0.72461562324E+02  0.69999989618E+02 0.  0.
         12    1    1    2    0    0  0.13445353009E+02  0.12938042422E+02  0.15839850892E+01  0.18726437676E+02  0.00000000000E+00 0. -1.
         11    1    3    3    0    0 -0.21115927917E+02 -0.29445401667E+02 -0.77271849752E+01  0.37048933575E+02  0.51100000000E-03 0.  1.
        -11    1    3    3    0    0  0.81124018376E+01  0.14421510159E+02  0.17367313116E+02  0.23987800732E+02  0.51100000000E-03 0. -1.
         12    1    3    3    0    0 -0.44182692965E+00  0.20858490864E+01 -0.11224113230E+02  0.11424828018E+02  0.00000000000E+00 0. -1.
</event>
<event>
 7    1  0.1283194E-013  0.7246176E+02  0.7816164E-02  0.1226708E+00
        -11   -1    0    0    0    0  0.00000000000E+00  0.00000000000E+00  0.45593999997E+02  0.45594000000E+02  0.51100000000E-03 0.  1.
         11   -1    0    0    0    0 -0.00000000000E+00 -0.00000000000E+00 -0.45593999997E+02  0.45594000000E+02  0.51100000000E-03 0. -1.
    9900012    2    1    2    0    0 -0.52565463607E+01 -0.62529103169E+01  0.16850574571E+02  0.72461760910E+02  0.70000248312E+02 0.  0.
         12    1    1    2    0    0  0.52565463607E+01  0.62529103169E+01 -0.16850574571E+02  0.18726239090E+02  0.00000000000E+00 0. -1.
         11    1    3    3    0    0  0.74290728254E+01  0.19984930201E+02  0.12356189322E+02  0.24642726574E+02  0.51100000000E-03 0. -1.
        -11    1    3    3    0    0 -0.20853565150E+02 -0.84021955117E+01  0.13509996913E+02  0.26229526983E+02  0.51100000000E-03 0.  1.
         12    1    3    3    0    0  0.81679459641E+01 -0.17835645006E+02 -0.90156116644E+01  0.21589507353E+02  0.00000000000E+00 0. -1.
</event>
<event>
 7    1  0.1283194E-013  0.7246153E+02  0.7816164E-02  0.1226708E+00
        -11   -1    0    0    0    0  0.00000000000E+00  0.00000000000E+00  0.45593999997E+02  0.45594000000E+02  0.51100000000E-03 0. -1.
         11   -1    0    0    0    0 -0.00000000000E+00 -0.00000000000E+00 -0.45593999997E+02  0.45594000000E+02  0.51100000000E-03 0.  1.
    9900012    2    1    2    0    0  0.15631609222E+02 -0.99396974200E+01  0.27451816094E+01  0.72461526393E+02  0.69999942811E+02 0.  0.
         12    1    1    2    0    0 -0.15631609222E+02  0.99396974200E+01 -0.27451816094E+01  0.18726473607E+02  0.00000000000E+00 0. -1.
         11    1    3    3    0    0  0.32167478275E+01  0.17508472135E+02  0.64115824185E+01  0.18920952736E+02  0.51100000000E-03 0. -1.
        -11    1    3    3    0    0  0.55019671440E+01 -0.38800167224E+02  0.16560446141E+01  0.39223297963E+02  0.51100000000E-03 0.  1.
         12    1    3    3    0    0  0.69128942508E+01  0.11351997669E+02 -0.53224454232E+01  0.14317275694E+02  0.00000000000E+00 0. -1.
</event>
<event>
 7    1  0.1283194E-013  0.7246157E+02  0.7816164E-02  0.1226708E+00
        -11   -1    0    0    0    0  0.00000000000E+00  0.00000000000E+00  0.45593999997E+02  0.45594000000E+02  0.51100000000E-03 0. -1.
         11   -1    0    0    0    0 -0.00000000000E+00 -0.00000000000E+00 -0.45593999997E+02  0.45594000000E+02  0.51100000000E-03 0.  1.
    9900012    2    1    2    0    0 -0.19099802481E+01 -0.22370394237E+00 -0.18627432981E+02  0.72461566077E+02  0.69999994507E+02 0.  0.
         12    1    1    2    0    0  0.19099802481E+01  0.22370394237E+00  0.18627432981E+02  0.18726433923E+02  0.00000000000E+00 0. -1.
         11    1    3    3    0    0  0.28101938623E+02  0.55697425460E+01 -0.35341425523E+01  0.28865743542E+02  0.51100000000E-03 0. -1.
        -11    1    3    3    0    0 -0.11548179111E+02  0.10781200270E+02 -0.84197645672E+01  0.17902155056E+02  0.51100000000E-03 0.  1.
         12    1    3    3    0    0 -0.18463739760E+02 -0.16574646758E+02 -0.66735258614E+01  0.25693667479E+02  0.00000000000E+00 0. -1.
</event>
<event>
 7    1  0.1283194E-013  0.7246167E+02  0.7816164E-02  0.1226708E+00
        -11   -1    0    0    0    0  0.00000000000E+00  0.00000000000E+00  0.45593999997E+02  0.45594000000E+02  0.51100000000E-03 0.  1.
         11   -1    0    0    0    0 -0.00000000000E+00 -0.00000000000E+00 -0.45593999997E+02  0.45594000000E+02  0.51100000000E-03 0. -1.
    9900012    2    1    2    0    0  0.12848533693E+00  0.18144613756E+02  0.46294662528E+01  0.72461668949E+02  0.70000128516E+02 0.  0.
         12    1    1    2    0    0 -0.12848533693E+00 -0.18144613756E+02 -0.46294662528E+01  0.18726331051E+02  0.00000000000E+00 0. -1.
         11    1    3    3    0    0  0.20894512027E+02  0.58012761765E+01 -0.13983404010E+02  0.25802539140E+02  0.51100000000E-03 0. -1.
        -11    1    3    3    0    0 -0.30830160413E+02  0.82546185116E+01  0.14248176918E+02  0.34952082393E+02  0.51100000000E-03 0.  1.
         12    1    3    3    0    0  0.10064133722E+02  0.40887190684E+01  0.43646933447E+01  0.11707047416E+02  0.00000000000E+00 0. -1.
</event>
<event>
 7    1  0.1283194E-013  0.7246162E+02  0.7816164E-02  0.1226708E+00
        -11   -1    0    0    0    0  0.00000000000E+00  0.00000000000E+00  0.45593999997E+02  0.45594000000E+02  0.51100000000E-03 0.  1.
         11   -1    0    0    0    0 -0.00000000000E+00 -0.00000000000E+00 -0.45593999997E+02  0.45594000000E+02  0.51100000000E-03 0. -1.
    9900012    2    1    2    0    0  0.55579583751E+01 -0.14909256163E+02  0.98742336603E+01  0.72461619917E+02  0.70000064642E+02 0.  0.
         12    1    1    2    0    0 -0.55579583751E+01  0.14909256163E+02 -0.98742336603E+01  0.18726380083E+02  0.00000000000E+00 0. -1.
         11    1    3    3    0    0  0.35094695192E+01  0.22549825514E+02  0.24637746726E+01  0.22953892762E+02  0.51100000000E-03 0. -1.
        -11    1    3    3    0    0  0.11373208414E+02 -0.31607986110E+02 -0.37876582334E+01  0.33804748346E+02  0.51100000000E-03 0.  1.
         12    1    3    3    0    0 -0.93247195583E+01 -0.58510955677E+01  0.11198117221E+02  0.15702978809E+02  0.00000000000E+00 0. -1.
</event>
<event>
 7    1  0.1283194E-013  0.7246112E+02  0.7816164E-02  0.1226709E+00
        -11   -1    0    0    0    0  0.00000000000E+00  0.00000000000E+00  0.45593999997E+02  0.45594000000E+02  0.51100000000E-03 0.  1.
         11   -1    0    0    0    0 -0.00000000000E+00 -0.00000000000E+00 -0.45593999997E+02  0.45594000000E+02  0.51100000000E-03 0. -1.
    9900012    2    1    2    0    0 -0.15214236986E+02 -0.10825830786E+02 -0.14228022614E+01  0.72461121308E+02  0.69999415110E+02 0.  0.
         12    1    1    2    0    0  0.15214236986E+02  0.10825830786E+02  0.14228022614E+01  0.18726878692E+02  0.00000000000E+00 0. -1.
         11    1    3    3    0    0  0.19139334929E+02 -0.27399698738E+01 -0.39581721589E+01  0.19735468161E+02  0.51100000000E-03 0. -1.
        -11    1    3    3    0    0 -0.28997248921E+02  0.12346860401E+02  0.71981123800E+00  0.31524649645E+02  0.51100000000E-03 0.  1.
         12    1    3    3    0    0 -0.53563229938E+01 -0.20432721313E+02  0.18155586595E+01  0.21201003503E+02  0.00000000000E+00 0. -1.
</event>
<event>
 7    1  0.1283194E-013  0.7246158E+02  0.7816164E-02  0.1226708E+00
        -11   -1    0    0    0    0  0.00000000000E+00  0.00000000000E+00  0.45593999997E+02  0.45594000000E+02  0.51100000000E-03 0. -1.
         11   -1    0    0    0    0 -0.00000000000E+00 -0.00000000000E+00 -0.45593999997E+02  0.45594000000E+02  0.51100000000E-03 0.  1.
    9900012    2    1    2    0    0 -0.10032885609E+02 -0.10806557357E+02 -0.11542889522E+02  0.72461580853E+02  0.70000013754E+02 0.  0.
         12    1    1    2    0    0  0.10032885609E+02  0.10806557357E+02  0.11542889522E+02  0.18726419147E+02  0.00000000000E+00 0. -1.
         11    1    3    3    0    0  0.40880088730E+01 -0.14702513940E+02  0.58680265454E+01  0.16349601478E+02  0.51100000000E-03 0. -1.
        -11    1    3    3    0    0 -0.32838587820E+02  0.29302528043E+01 -0.43213472086E+01  0.33251064245E+02  0.51100000000E-03 0.  1.
        -12    1    3    3    0    0  0.18717693337E+02  0.96570377776E+00 -0.13089568858E+02  0.22860915129E+02  0.00000000000E+00 0.  1.
</event>
<event>
 7    1  0.1283194E-013  0.7246160E+02  0.7816164E-02  0.1226708E+00
        -11   -1    0    0    0    0  0.00000000000E+00  0.00000000000E+00  0.45593999997E+02  0.45594000000E+02  0.51100000000E-03 0.  1.
         11   -1    0    0    0    0 -0.00000000000E+00 -0.00000000000E+00 -0.45593999997E+02  0.45594000000E+02  0.51100000000E-03 0. -1.
    9900012    2    1    2    0    0  0.16877170789E+02 -0.35196762298E+01  0.73110185273E+01  0.72461601347E+02  0.70000040452E+02 0.  0.
         12    1    1    2    0    0 -0.16877170789E+02  0.35196762298E+01 -0.73110185273E+01  0.18726398653E+02  0.00000000000E+00 0. -1.
         11    1    3    3    0    0  0.19631369734E+02 -0.12752678462E+02 -0.67896800195E+01  0.24374602368E+02  0.51100000000E-03 0. -1.
        -11    1    3    3    0    0  0.99766426885E+01  0.20285990223E+02  0.20041731606E+02  0.30211352249E+02  0.51100000000E-03 0.  1.
        -12    1    3    3    0    0 -0.12730841633E+02 -0.11052987991E+02 -0.59410330592E+01  0.17875646730E+02  0.00000000000E+00 0.  1.
</event>
<event>
 7    1  0.1283194E-013  0.7246150E+02  0.7816164E-02  0.1226708E+00
        -11   -1    0    0    0    0  0.00000000000E+00  0.00000000000E+00  0.45593999997E+02  0.45594000000E+02  0.51100000000E-03 0. -1.
         11   -1    0    0    0    0 -0.00000000000E+00 -0.00000000000E+00 -0.45593999997E+02  0.45594000000E+02  0.51100000000E-03 0.  1.
    9900012    2    1    2    0    0 -0.34506299290E+01 -0.68582927836E+01 -0.17080357714E+02  0.72461504160E+02  0.69999913848E+02 0.  0.
         12    1    1    2    0    0  0.34506299290E+01  0.68582927836E+01  0.17080357714E+02  0.18726495840E+02  0.00000000000E+00 0. -1.
         11    1    3    3    0    0 -0.13367247659E+02  0.30639263569E+01  0.82158709432E+01  0.15986603464E+02  0.51100000000E-03 0. -1.
        -11    1    3    3    0    0  0.23202526188E+02 -0.16897617766E+02 -0.29225157030E+02  0.40963355715E+02  0.51100000000E-03 0.  1.
        -12    1    3    3    0    0 -0.13285908458E+02  0.69753986254E+01  0.39289283734E+01  0.15511544981E+02  0.00000000000E+00 0.  1.
</event>
<event>
 7    1  0.1283194E-013  0.7246145E+02  0.7816164E-02  0.1226708E+00
        -11   -1    0    0    0    0  0.00000000000E+00  0.00000000000E+00  0.45593999997E+02  0.45594000000E+02  0.51100000000E-03 0. -1.
         11   -1    0    0    0    0 -0.00000000000E+00 -0.00000000000E+00 -0.45593999997E+02  0.45594000000E+02  0.51100000000E-03 0.  1.
    9900012    2    1    2    0    0 -0.16508279960E+02  0.65906687620E+01  0.58926481594E+01  0.72461454021E+02  0.69999848533E+02 0.  0.
         12    1    1    2    0    0  0.16508279960E+02 -0.65906687620E+01 -0.58926481594E+01  0.18726545979E+02  0.00000000000E+00 0. -1.
         11    1    3    3    0    0 -0.14968472507E+02  0.10262116075E+02  0.96952055852E+01  0.20575791774E+02  0.51100000000E-03 0. -1.
        -11    1    3    3    0    0  0.28411580152E+00 -0.25153973156E+02 -0.13151642058E+02  0.28386066589E+02  0.51100000000E-03 0.  1.
        -12    1    3    3    0    0 -0.18239232544E+01  0.21482525843E+02  0.93490846325E+01  0.23499595658E+02  0.00000000000E+00 0.  1.
</event>
<event>
 7    1  0.1283194E-013  0.7246178E+02  0.7816164E-02  0.1226707E+00
        -11   -1    0    0    0    0  0.00000000000E+00  0.00000000000E+00  0.45593999997E+02  0.45594000000E+02  0.51100000000E-03 0.  1.
         11   -1    0    0    0    0 -0.00000000000E+00 -0.00000000000E+00 -0.45593999997E+02  0.45594000000E+02  0.51100000000E-03 0. -1.
    9900012    2    1    2    0    0  0.99320129541E+01 -0.60766680416E+01  0.14666303827E+02  0.72461781916E+02  0.70000275676E+02 0.  0.
         12    1    1    2    0    0 -0.99320129541E+01  0.60766680416E+01 -0.14666303827E+02  0.18726218084E+02  0.00000000000E+00 0. -1.
         11    1    3    3    0    0  0.10156230216E+02  0.17923869655E+02  0.29512120884E+02  0.35991379453E+02  0.51100000000E-03 0. -1.
        -11    1    3    3    0    0 -0.68358164012E+00 -0.28291595672E+02 -0.10081080853E+02  0.30041801893E+02  0.51100000000E-03 0.  1.
         12    1    3    3    0    0  0.45936437861E+00  0.42910579759E+01 -0.47647362050E+01  0.64286005700E+01  0.00000000000E+00 0. -1.
</event>
<event>
 7    1  0.1283194E-013  0.7246150E+02  0.7816164E-02  0.1226708E+00
        -11   -1    0    0    0    0  0.00000000000E+00  0.00000000000E+00  0.45593999997E+02  0.45594000000E+02  0.51100000000E-03 0.  1.
         11   -1    0    0    0    0 -0.00000000000E+00 -0.00000000000E+00 -0.45593999997E+02  0.45594000000E+02  0.51100000000E-03 0. -1.
    9900012    2    1    2    0    0 -0.51165712043E+00 -0.60908933698E+01  0.17700880435E+02  0.72461496236E+02  0.69999903525E+02 0.  0.
         12    1    1    2    0    0  0.51165712043E+00  0.60908933698E+01 -0.17700880435E+02  0.18726503764E+02  0.00000000000E+00 0. -1.
         11    1    3    3    0    0  0.13701395552E+02 -0.30114703604E+01 -0.24104671785E+02  0.27889646751E+02  0.51100000000E-03 0. -1.
        -11    1    3    3    0    0  0.24207451539E-01 -0.10029460260E+01  0.39164770671E+01  0.40429295826E+01  0.51100000000E-03 0.  1.
         12    1    3    3    0    0 -0.14237260123E+02 -0.20764769834E+01  0.37889075153E+02  0.40528919902E+02  0.00000000000E+00 0. -1.
</event>
<event>
 7    1  0.1283194E-013  0.7246155E+02  0.7816164E-02  0.1226708E+00
        -11   -1    0    0    0    0  0.00000000000E+00  0.00000000000E+00  0.45593999997E+02  0.45594000000E+02  0.51100000000E-03 0. -1.
         11   -1    0    0    0    0 -0.00000000000E+00 -0.00000000000E+00 -0.45593999997E+02  0.45594000000E+02  0.51100000000E-03 0.  1.
    9900012    2    1    2    0    0 -0.27127283063E+01 -0.36241206398E+01 -0.18171037635E+02  0.72461554688E+02  0.69999979670E+02 0.  0.
         12    1    1    2    0    0  0.27127283063E+01  0.36241206398E+01  0.18171037635E+02  0.18726445312E+02  0.00000000000E+00 0. -1.
         11    1    3    3    0    0 -0.62571302229E+01 -0.17449223657E+02 -0.16689349496E+02  0.24943164830E+02  0.51100000000E-03 0. -1.
        -11    1    3    3    0    0 -0.93924840518E+00  0.28771296516E+02 -0.90499262821E+01  0.30175666633E+02  0.51100000000E-03 0.  1.
         12    1    3    3    0    0  0.44836503218E+01 -0.14946193498E+02  0.75682381423E+01  0.17342723225E+02  0.00000000000E+00 0. -1.
</event>
<event>
 7    1  0.1283194E-013  0.7246161E+02  0.7816164E-02  0.1226708E+00
        -11   -1    0    0    0    0  0.00000000000E+00  0.00000000000E+00  0.45593999997E+02  0.45594000000E+02  0.51100000000E-03 0. -1.
         11   -1    0    0    0    0 -0.00000000000E+00 -0.00000000000E+00 -0.45593999997E+02  0.45594000000E+02  0.51100000000E-03 0.  1.
    9900012    2    1    2    0    0 -0.47356515432E+01 -0.12933085469E+01 -0.18071487254E+02  0.72461609689E+02  0.70000051318E+02 0.  0.
         12    1    1    2    0    0  0.47356515432E+01  0.12933085469E+01  0.18071487254E+02  0.18726390311E+02  0.00000000000E+00 0. -1.
         11    1    3    3    0    0  0.34972444370E+01  0.79144952183E+00  0.11024881679E+01  0.37513452812E+01  0.51100000000E-03 0. -1.
        -11    1    3    3    0    0 -0.46057322492E+01  0.10674963985E+02 -0.41303967738E+02  0.42909036074E+02  0.51100000000E-03 0.  1.
        -12    1    3    3    0    0 -0.36271637309E+01 -0.12759722053E+02  0.22129992316E+02  0.25801228334E+02  0.00000000000E+00 0.  1.
</event>
<event>
 7    1  0.1283194E-013  0.7246155E+02  0.7816164E-02  0.1226708E+00
        -11   -1    0    0    0    0  0.00000000000E+00  0.00000000000E+00  0.45593999997E+02  0.45594000000E+02  0.51100000000E-03 0.  1.
         11   -1    0    0    0    0 -0.00000000000E+00 -0.00000000000E+00 -0.45593999997E+02  0.45594000000E+02  0.51100000000E-03 0. -1.
    9900012    2    1    2    0    0 -0.15285047715E+02 -0.49633041209E+01 -0.96131643501E+01  0.72461548113E+02  0.69999971105E+02 0.  0.
         12    1    1    2    0    0  0.15285047715E+02  0.49633041209E+01  0.96131643501E+01  0.18726451887E+02  0.00000000000E+00 0. -1.
         11    1    3    3    0    0 -0.50764443059E+01  0.71833450071E+01 -0.20622851975E+02  0.22420364764E+02  0.51100000000E-03 0. -1.
        -11    1    3    3    0    0 -0.24224208748E+02 -0.90502181008E+01  0.20358250529E+02  0.32911656021E+02  0.51100000000E-03 0.  1.
         12    1    3    3    0    0  0.14015605339E+02 -0.30964310271E+01 -0.93485629044E+01  0.17129527329E+02  0.00000000000E+00 0. -1.
</event>
<event>
 7    1  0.1283194E-013  0.7246156E+02  0.7816164E-02  0.1226708E+00
        -11   -1    0    0    0    0  0.00000000000E+00  0.00000000000E+00  0.45593999997E+02  0.45594000000E+02  0.51100000000E-03 0.  1.
         11   -1    0    0    0    0 -0.00000000000E+00 -0.00000000000E+00 -0.45593999997E+02  0.45594000000E+02  0.51100000000E-03 0. -1.
    9900012    2    1    2    0    0  0.10367721214E+02  0.10931256041E+02 -0.11121935695E+02  0.72461562661E+02  0.69999990056E+02 0.  0.
         12    1    1    2    0    0 -0.10367721214E+02 -0.10931256041E+02  0.11121935695E+02  0.18726437339E+02  0.00000000000E+00 0. -1.
         11    1    3    3    0    0  0.18963028742E+02  0.15673147709E+02 -0.22639065913E+02  0.33433087262E+02  0.51100000000E-03 0. -1.
        -11    1    3    3    0    0 -0.14141023326E+02  0.10213639563E+02  0.14642219621E+02  0.22774581654E+02  0.51100000000E-03 0.  1.
         12    1    3    3    0    0  0.55457157978E+01 -0.14955531231E+02 -0.31250894031E+01  0.16253893746E+02  0.00000000000E+00 0. -1.
</event>
<event>
 7    1  0.1283194E-013  0.7246158E+02  0.7816164E-02  0.1226708E+00
        -11   -1    0    0    0    0  0.00000000000E+00  0.00000000000E+00  0.45593999997E+02  0.45594000000E+02  0.51100000000E-03 0.  1.
         11   -1    0    0    0    0 -0.00000000000E+00 -0.00000000000E+00 -0.45593999997E+02  0.45594000000E+02  0.51100000000E-03 0. -1.
    9900012    2    1    2    0    0  0.18704343383E+02  0.44947021599E+00 -0.79023226858E+00  0.72461576105E+02  0.70000007569E+02 0.  0.
         12    1    1    2    0    0 -0.18704343383E+02 -0.44947021599E+00  0.79023226858E+00  0.18726423895E+02  0.00000000000E+00 0. -1.
         11    1    3    3    0    0  0.21586353832E+01 -0.47422022190E+01 -0.17435685557E+02  0.18197563565E+02  0.51100000000E-03 0. -1.
        -11    1    3    3    0    0 -0.30292653782E+01  0.23696176515E+02  0.12652517425E+02  0.27032784311E+02  0.51100000000E-03 0.  1.
        -12    1    3    3    0    0  0.19574973378E+02 -0.18504504080E+02  0.39929358634E+01  0.27231228228E+02  0.00000000000E+00 0.  1.
</event>
<event>
 7    1  0.1283194E-013  0.7246163E+02  0.7816164E-02  0.1226708E+00
        -11   -1    0    0    0    0  0.00000000000E+00  0.00000000000E+00  0.45593999997E+02  0.45594000000E+02  0.51100000000E-03 0.  1.
         11   -1    0    0    0    0 -0.00000000000E+00 -0.00000000000E+00 -0.45593999997E+02  0.45594000000E+02  0.51100000000E-03 0. -1.
    9900012    2    1    2    0    0  0.60909665267E+01 -0.89754625702E+01  0.15264937247E+02  0.72461625265E+02  0.70000071609E+02 0.  0.
         12    1    1    2    0    0 -0.60909665267E+01  0.89754625702E+01 -0.15264937247E+02  0.18726374735E+02  0.00000000000E+00 0. -1.
         11    1    3    3    0    0  0.94833840497E+01  0.41242368943E+01 -0.21375418775E+02  0.23745577084E+02  0.51100000000E-03 0. -1.
        -11    1    3    3    0    0 -0.10649029386E+02  0.43410563112E+01  0.21972157666E+02  0.24799643334E+02  0.51100000000E-03 0.  1.
        -12    1    3    3    0    0  0.72566118630E+01 -0.17440755776E+02  0.14668198356E+02  0.23916404846E+02  0.00000000000E+00 0.  1.
</event>
<event>
 7    1  0.1283194E-013  0.7246163E+02  0.7816164E-02  0.1226708E+00
        -11   -1    0    0    0    0  0.00000000000E+00  0.00000000000E+00  0.45593999997E+02  0.45594000000E+02  0.51100000000E-03 0. -1.
         11   -1    0    0    0    0 -0.00000000000E+00 -0.00000000000E+00 -0.45593999997E+02  0.45594000000E+02  0.51100000000E-03 0.  1.
    9900012    2    1    2    0    0  0.63995331288E+01  0.10744684703E+02 -0.13938242021E+02  0.72461631845E+02  0.70000080181E+02 0.  0.
         12    1    1    2    0    0 -0.63995331288E+01 -0.10744684703E+02  0.13938242021E+02  0.18726368155E+02  0.00000000000E+00 0. -1.
         11    1    3    3    0    0 -0.17788897621E+02 -0.50179616255E+01  0.95054543185E+01  0.20784091982E+02  0.51100000000E-03 0. -1.
        -11    1    3    3    0    0  0.99023656672E+01  0.15134380461E+02 -0.30708026427E+02  0.35638310917E+02  0.51100000000E-03 0.  1.
        -12    1    3    3    0    0  0.14286065083E+02  0.62826586799E+00  0.72643300876E+01  0.16039228946E+02  0.00000000000E+00 0.  1.
</event>
<event>
 7    1  0.1283194E-013  0.7246160E+02  0.7816164E-02  0.1226708E+00
        -11   -1    0    0    0    0  0.00000000000E+00  0.00000000000E+00  0.45593999997E+02  0.45594000000E+02  0.51100000000E-03 0. -1.
         11   -1    0    0    0    0 -0.00000000000E+00 -0.00000000000E+00 -0.45593999997E+02  0.45594000000E+02  0.51100000000E-03 0.  1.
    9900012    2    1    2    0    0  0.13077814256E+02 -0.13046054924E+02 -0.30739451604E+01  0.72461603827E+02  0.70000043683E+02 0.  0.
         12    1    1    2    0    0 -0.13077814256E+02  0.13046054924E+02  0.30739451604E+01  0.18726396173E+02  0.00000000000E+00 0. -1.
         11    1    3    3    0    0  0.25448484265E+02  0.24808947640E+01  0.10044968880E+02  0.27471468659E+02  0.51100000000E-03 0. -1.
        -11    1    3    3    0    0 -0.47180681542E+01 -0.75280826171E+01 -0.26309989402E+02  0.27769546946E+02  0.51100000000E-03 0.  1.
        -12    1    3    3    0    0 -0.76526018547E+01 -0.79988670705E+01  0.13191075361E+02  0.17220588223E+02  0.00000000000E+00 0.  1.
</event>
<event>
 7    1  0.1283194E-013  0.7246161E+02  0.7816164E-02  0.1226708E+00
        -11   -1    0    0    0    0  0.00000000000E+00  0.00000000000E+00  0.45593999997E+02  0.45594000000E+02  0.51100000000E-03 0. -1.
         11   -1    0    0    0    0 -0.00000000000E+00 -0.00000000000E+00 -0.45593999997E+02  0.45594000000E+02  0.51100000000E-03 0.  1.
    9900012    2    1    2    0    0 -0.11779871605E+02 -0.11994796202E+02 -0.82484614789E+01  0.72461611461E+02  0.70000053627E+02 0.  0.
         12    1    1    2    0    0  0.11779871605E+02  0.11994796202E+02  0.82484614789E+01  0.18726388539E+02  0.00000000000E+00 0. -1.
         11    1    3    3    0    0 -0.65684184067E+01 -0.39297376958E+02 -0.57100246305E+01  0.40249625311E+02  0.51100000000E-03 0. -1.
        -11    1    3    3    0    0 -0.63647075829E+00  0.25280555880E+01 -0.62263563373E+01  0.67500869315E+01  0.51100000000E-03 0.  1.
         12    1    3    3    0    0 -0.45749824395E+01  0.24774525168E+02  0.36879194889E+01  0.25461899218E+02  0.00000000000E+00 0. -1.
</event>
<event>
 7    1  0.1283194E-013  0.7246157E+02  0.7816164E-02  0.1226708E+00
        -11   -1    0    0    0    0  0.00000000000E+00  0.00000000000E+00  0.45593999997E+02  0.45594000000E+02  0.51100000000E-03 0.  1.
         11   -1    0    0    0    0 -0.00000000000E+00 -0.00000000000E+00 -0.45593999997E+02  0.45594000000E+02  0.51100000000E-03 0. -1.
    9900012    2    1    2    0    0 -0.32189753518E+01 -0.11242598420E+02  0.14626047446E+02  0.72461572539E+02  0.70000002924E+02 0.  0.
         12    1    1    2    0    0  0.32189753518E+01  0.11242598420E+02 -0.14626047446E+02  0.18726427461E+02  0.00000000000E+00 0. -1.
         11    1    3    3    0    0 -0.17197749039E+02 -0.57555881854E+01 -0.62579903804E+01  0.19184676469E+02  0.51100000000E-03 0. -1.
        -11    1    3    3    0    0  0.25890815474E+02 -0.17522968837E+02  0.18072703073E+02  0.36111097455E+02  0.51100000000E-03 0.  1.
         12    1    3    3    0    0 -0.11912041787E+02  0.12035958602E+02  0.28113347540E+01  0.17165798615E+02  0.00000000000E+00 0. -1.
</event>
<event>
 7    1  0.1283194E-013  0.7246141E+02  0.7816164E-02  0.1226708E+00
        -11   -1    0    0    0    0  0.00000000000E+00  0.00000000000E+00  0.45593999997E+02  0.45594000000E+02  0.51100000000E-03 0.  1.
         11   -1    0    0    0    0 -0.00000000000E+00 -0.00000000000E+00 -0.45593999997E+02  0.45594000000E+02  0.51100000000E-03 0. -1.
    9900012    2    1    2    0    0 -0.76981393324E+01  0.33653165479E+01  0.16736138010E+02  0.72461414082E+02  0.69999796505E+02 0.  0.
         12    1    1    2    0    0  0.76981393324E+01 -0.33653165479E+01 -0.16736138010E+02  0.18726585918E+02  0.00000000000E+00 0. -1.
         11    1    3    3    0    0  0.12955457779E+02 -0.75688888784E+01  0.76551725798E+00  0.15023913673E+02  0.51100000000E-03 0. -1.
        -11    1    3    3    0    0 -0.25491046019E+02 -0.10206425205E+02 -0.42509670882E+01  0.27785522563E+02  0.51100000000E-03 0.  1.
        -12    1    3    3    0    0  0.48374489076E+01  0.21140630632E+02  0.20221587840E+02  0.29651977846E+02  0.00000000000E+00 0.  1.
</event>
<event>
 7    1  0.1283194E-013  0.7246161E+02  0.7816164E-02  0.1226708E+00
        -11   -1    0    0    0    0  0.00000000000E+00  0.00000000000E+00  0.45593999997E+02  0.45594000000E+02  0.51100000000E-03 0.  1.
         11   -1    0    0    0    0 -0.00000000000E+00 -0.00000000000E+00 -0.45593999997E+02  0.45594000000E+02  0.51100000000E-03 0. -1.
    9900012    2    1    2    0    0  0.73138255064E+01  0.17238542758E+02 -0.13521632688E+00  0.72461609974E+02  0.70000051690E+02 0.  0.
         12    1    1    2    0    0 -0.73138255064E+01 -0.17238542758E+02  0.13521632688E+00  0.18726390026E+02  0.00000000000E+00 0. -1.
         11    1    3    3    0    0 -0.20394232724E+02  0.19308923514E+02 -0.11115287716E+02  0.30204451277E+02  0.51100000000E-03 0. -1.
        -11    1    3    3    0    0 -0.40529643433E+00 -0.10884762666E+02  0.58074741321E+01  0.12343787083E+02  0.51100000000E-03 0.  1.
         12    1    3    3    0    0  0.28113354664E+02  0.88143819099E+01  0.51725972570E+01  0.29913371614E+02  0.00000000000E+00 0. -1.
</event>
<event>
 7    1  0.1283194E-013  0.7246158E+02  0.7816164E-02  0.1226708E+00
        -11   -1    0    0    0    0  0.00000000000E+00  0.00000000000E+00  0.45593999997E+02  0.45594000000E+02  0.51100000000E-03 0. -1.
         11   -1    0    0    0    0 -0.00000000000E+00 -0.00000000000E+00 -0.45593999997E+02  0.45594000000E+02  0.51100000000E-03 0.  1.
    9900012    2    1    2    0    0  0.12733741355E+02 -0.35856774399E+01 -0.13254196168E+02  0.72461575684E+02  0.70000007021E+02 0.  0.
         12    1    1    2    0    0 -0.12733741355E+02  0.35856774399E+01  0.13254196168E+02  0.18726424316E+02  0.00000000000E+00 0. -1.
         11    1    3    3    0    0 -0.11052773140E+02 -0.52231833896E+01  0.16387145029E+02  0.20444656057E+02  0.51100000000E-03 0. -1.
        -11    1    3    3    0    0  0.22381324841E+02 -0.12438080644E+02 -0.27728632934E+02  0.37742636850E+02  0.51100000000E-03 0.  1.
         12    1    3    3    0    0  0.14051896545E+01  0.14075586594E+02 -0.19127082625E+01  0.14274282778E+02  0.00000000000E+00 0. -1.
</event>
<event>
 7    1  0.1283194E-013  0.7246159E+02  0.7816164E-02  0.1226708E+00
        -11   -1    0    0    0    0  0.00000000000E+00  0.00000000000E+00  0.45593999997E+02  0.45594000000E+02  0.51100000000E-03 0. -1.
         11   -1    0    0    0    0 -0.00000000000E+00 -0.00000000000E+00 -0.45593999997E+02  0.45594000000E+02  0.51100000000E-03 0.  1.
    9900012    2    1    2    0    0  0.23710900028E+01 -0.16527548065E+02 -0.84791808618E+01  0.72461590282E+02  0.70000026037E+02 0.  0.
         12    1    1    2    0    0 -0.23710900028E+01  0.16527548065E+02  0.84791808618E+01  0.18726409718E+02  0.00000000000E+00 0. -1.
         11    1    3    3    0    0  0.11759608206E+02 -0.10681858302E+02  0.22122641412E+01  0.16040093355E+02  0.51100000000E-03 0. -1.
        -11    1    3    3    0    0 -0.24460303431E+02 -0.10165906155E+02 -0.24084608199E+02  0.35801123506E+02  0.51100000000E-03 0.  1.
        -12    1    3    3    0    0  0.15071785228E+02  0.43202163918E+01  0.13393163196E+02  0.20620373421E+02  0.00000000000E+00 0.  1.
</event>
<event>
 7    1  0.1283194E-013  0.7246155E+02  0.7816164E-02  0.1226708E+00
        -11   -1    0    0    0    0  0.00000000000E+00  0.00000000000E+00  0.45593999997E+02  0.45594000000E+02  0.51100000000E-03 0. -1.
         11   -1    0    0    0    0 -0.00000000000E+00 -0.00000000000E+00 -0.45593999997E+02  0.45594000000E+02  0.51100000000E-03 0.  1.
    9900012    2    1    2    0    0  0.13006046428E+02  0.70742171063E+01 -0.11466397186E+02  0.72461546631E+02  0.69999969174E+02 0.  0.
         12    1    1    2    0    0 -0.13006046428E+02 -0.70742171063E+01  0.11466397186E+02  0.18726453369E+02  0.00000000000E+00 0. -1.
         11    1    3    3    0    0 -0.12965986268E+02  0.64437301019E+01 -0.60693279767E+01  0.15699528651E+02  0.51100000000E-03 0. -1.
        -11    1    3    3    0    0  0.40012395497E+02  0.76980978442E+01 -0.48476259985E+01  0.41033547030E+02  0.51100000000E-03 0.  1.
        -12    1    3    3    0    0 -0.14040362801E+02 -0.70676108398E+01 -0.54944321064E+00  0.15728470949E+02  0.00000000000E+00 0.  1.
</event>
<event>
 7    1  0.1283194E-013  0.7246157E+02  0.7816164E-02  0.1226708E+00
        -11   -1    0    0    0    0  0.00000000000E+00  0.00000000000E+00  0.45593999997E+02  0.45594000000E+02  0.51100000000E-03 0.  1.
         11   -1    0    0    0    0 -0.00000000000E+00 -0.00000000000E+00 -0.45593999997E+02  0.45594000000E+02  0.51100000000E-03 0. -1.
    9900012    2    1    2    0    0  0.45500684442E+01  0.16183077327E+02  0.82513172490E+01  0.72461565450E+02  0.69999993689E+02 0.  0.
         12    1    1    2    0    0 -0.45500684442E+01 -0.16183077327E+02 -0.82513172490E+01  0.18726434550E+02  0.00000000000E+00 0. -1.
         11    1    3    3    0    0 -0.34510488578E+01  0.36126518378E+02  0.67028703451E+00  0.36297167291E+02  0.51100000000E-03 0.  1.
        -11    1    3    3    0    0  0.36062449139E+01 -0.14503818687E+02  0.18137448584E+02  0.23501761642E+02  0.51100000000E-03 0. -1.
         12    1    3    3    0    0  0.43948723881E+01 -0.54396223643E+01 -0.10556418370E+02  0.12662636517E+02  0.00000000000E+00 0. -1.
</event>
<event>
 7    1  0.1283194E-013  0.7246157E+02  0.7816164E-02  0.1226708E+00
        -11   -1    0    0    0    0  0.00000000000E+00  0.00000000000E+00  0.45593999997E+02  0.45594000000E+02  0.51100000000E-03 0.  1.
         11   -1    0    0    0    0 -0.00000000000E+00 -0.00000000000E+00 -0.45593999997E+02  0.45594000000E+02  0.51100000000E-03 0. -1.
    9900012    2    1    2    0    0  0.17226388323E+02 -0.65671600363E+01 -0.32868191009E+01  0.72461568802E+02  0.69999998056E+02 0.  0.
         12    1    1    2    0    0 -0.17226388323E+02  0.65671600363E+01  0.32868191009E+01  0.18726431198E+02  0.00000000000E+00 0. -1.
         11    1    3    3    0    0  0.14835639865E+02 -0.17503091760E+02  0.15648243906E+02  0.27772683863E+02  0.51100000000E-03 0. -1.
        -11    1    3    3    0    0  0.91457527377E+01  0.20150666382E+02  0.51074839417E+00  0.22134927444E+02  0.51100000000E-03 0.  1.
         12    1    3    3    0    0 -0.67550042799E+01 -0.92147346583E+01 -0.19445811401E+02  0.22553957495E+02  0.00000000000E+00 0. -1.
</event>
<event>
 7    1  0.1283194E-013  0.7246156E+02  0.7816164E-02  0.1226708E+00
        -11   -1    0    0    0    0  0.00000000000E+00  0.00000000000E+00  0.45593999997E+02  0.45594000000E+02  0.51100000000E-03 0.  1.
         11   -1    0    0    0    0 -0.00000000000E+00 -0.00000000000E+00 -0.45593999997E+02  0.45594000000E+02  0.51100000000E-03 0. -1.
    9900012    2    1    2    0    0  0.11253325870E+02 -0.76249914564E+01 -0.12880285822E+02  0.72461558782E+02  0.69999985003E+02 0.  0.
         12    1    1    2    0    0 -0.11253325870E+02  0.76249914564E+01  0.12880285822E+02  0.18726441218E+02  0.00000000000E+00 0. -1.
         11    1    3    3    0    0  0.24057712551E+02 -0.26630694285E+02  0.91990998975E+01  0.37048493229E+02  0.51100000000E-03 0. -1.
        -11    1    3    3    0    0 -0.13518156130E+02  0.20206219911E+02 -0.15832769323E+02  0.29012212135E+02  0.51100000000E-03 0.  1.
        -12    1    3    3    0    0  0.71376944925E+00 -0.12005170816E+01 -0.62466163960E+01  0.64008534187E+01  0.00000000000E+00 0.  1.
</event>
<event>
 7    1  0.1283194E-013  0.7246161E+02  0.7816164E-02  0.1226708E+00
        -11   -1    0    0    0    0  0.00000000000E+00  0.00000000000E+00  0.45593999997E+02  0.45594000000E+02  0.51100000000E-03 0.  1.
         11   -1    0    0    0    0 -0.00000000000E+00 -0.00000000000E+00 -0.45593999997E+02  0.45594000000E+02  0.51100000000E-03 0. -1.
    9900012    2    1    2    0    0  0.84570760628E+01  0.15945206330E+02  0.49906033499E+01  0.72461605200E+02  0.70000045471E+02 0.  0.
         12    1    1    2    0    0 -0.84570760628E+01 -0.15945206330E+02 -0.49906033499E+01  0.18726394800E+02  0.00000000000E+00 0. -1.
         11    1    3    3    0    0  0.92996790709E-01 -0.14052301928E+02  0.33164263246E+01  0.14438646810E+02  0.51100000000E-03 0.  1.
        -11    1    3    3    0    0 -0.79882000906E+01  0.38665555423E+02  0.66132231425E+00  0.39487641919E+02  0.51100000000E-03 0. -1.
        -12    1    3    3    0    0  0.16352279363E+02 -0.86680471647E+01  0.10128547111E+01  0.18535316471E+02  0.00000000000E+00 0.  1.
</event>
<event>
 7    1  0.1283194E-013  0.7246154E+02  0.7816164E-02  0.1226708E+00
        -11   -1    0    0    0    0  0.00000000000E+00  0.00000000000E+00  0.45593999997E+02  0.45594000000E+02  0.51100000000E-03 0.  1.
         11   -1    0    0    0    0 -0.00000000000E+00 -0.00000000000E+00 -0.45593999997E+02  0.45594000000E+02  0.51100000000E-03 0. -1.
    9900012    2    1    2    0    0  0.17459265666E+02  0.19979584166E+01  0.64701246348E+01  0.72461539890E+02  0.69999960393E+02 0.  0.
         12    1    1    2    0    0 -0.17459265666E+02 -0.19979584166E+01 -0.64701246348E+01  0.18726460110E+02  0.00000000000E+00 0. -1.
         11    1    3    3    0    0  0.21483416554E+01  0.19872960362E+01  0.26799540438E+02  0.26958859126E+02  0.51100000000E-03 0. -1.
        -11    1    3    3    0    0  0.18142567100E+02  0.15208750541E+02 -0.59977331732E+01  0.24421949911E+02  0.51100000000E-03 0.  1.
         12    1    3    3    0    0 -0.28316430893E+01 -0.15198088160E+02 -0.14331682630E+02  0.21080730854E+02  0.00000000000E+00 0. -1.
</event>
<event>
 7    1  0.1283194E-013  0.7246157E+02  0.7816164E-02  0.1226708E+00
        -11   -1    0    0    0    0  0.00000000000E+00  0.00000000000E+00  0.45593999997E+02  0.45594000000E+02  0.51100000000E-03 0. -1.
         11   -1    0    0    0    0 -0.00000000000E+00 -0.00000000000E+00 -0.45593999997E+02  0.45594000000E+02  0.51100000000E-03 0.  1.
    9900012    2    1    2    0    0  0.11012819515E+02  0.14515136235E+02 -0.43252507849E+01  0.72461570337E+02  0.70000000055E+02 0.  0.
         12    1    1    2    0    0 -0.11012819515E+02 -0.14515136235E+02  0.43252507849E+01  0.18726429663E+02  0.00000000000E+00 0. -1.
         11    1    3    3    0    0  0.27612735593E+02  0.75961862509E+01  0.70912544337E+01  0.29503408315E+02  0.51100000000E-03 0. -1.
        -11    1    3    3    0    0 -0.32616916231E+01  0.19627101801E+02 -0.14037344950E+02  0.24349718907E+02  0.51100000000E-03 0.  1.
         12    1    3    3    0    0 -0.13338224456E+02 -0.12708151817E+02  0.26208397313E+01  0.18608443114E+02  0.00000000000E+00 0. -1.
</event>
<event>
 7    1  0.1283194E-013  0.7246158E+02  0.7816164E-02  0.1226708E+00
        -11   -1    0    0    0    0  0.00000000000E+00  0.00000000000E+00  0.45593999997E+02  0.45594000000E+02  0.51100000000E-03 0.  1.
         11   -1    0    0    0    0 -0.00000000000E+00 -0.00000000000E+00 -0.45593999997E+02  0.45594000000E+02  0.51100000000E-03 0. -1.
    9900012    2    1    2    0    0 -0.17370806499E+02  0.43032576701E+01 -0.55150716523E+01  0.72461575879E+02  0.70000007276E+02 0.  0.
         12    1    1    2    0    0  0.17370806499E+02 -0.43032576701E+01  0.55150716523E+01  0.18726424121E+02  0.00000000000E+00 0. -1.
         11    1    3    3    0    0 -0.24043195649E+02  0.27566580945E+02 -0.15525615428E+01  0.36611502149E+02  0.51100000000E-03 0.  1.
        -11    1    3    3    0    0  0.12759562652E+02 -0.15065028954E+02  0.69266746103E+01  0.20922245527E+02  0.51100000000E-03 0. -1.
         12    1    3    3    0    0 -0.60871735030E+01 -0.81982943205E+01 -0.10889184720E+02  0.14927828204E+02  0.00000000000E+00 0. -1.
</event>
<event>
 7    1  0.1283194E-013  0.7246157E+02  0.7816164E-02  0.1226708E+00
        -11   -1    0    0    0    0  0.00000000000E+00  0.00000000000E+00  0.45593999997E+02  0.45594000000E+02  0.51100000000E-03 0. -1.
         11   -1    0    0    0    0 -0.00000000000E+00 -0.00000000000E+00 -0.45593999997E+02  0.45594000000E+02  0.51100000000E-03 0.  1.
    9900012    2    1    2    0    0 -0.13820567060E+02  0.58944335602E+00 -0.12622347391E+02  0.72461570255E+02  0.69999999949E+02 0.  0.
         12    1    1    2    0    0  0.13820567060E+02 -0.58944335602E+00  0.12622347391E+02  0.18726429745E+02  0.00000000000E+00 0. -1.
         11    1    3    3    0    0 -0.32705083928E+02 -0.20256175716E+01  0.97351579574E+01  0.34183313794E+02  0.51100000000E-03 0. -1.
        -11    1    3    3    0    0  0.13655130870E+02 -0.92160783775E+01 -0.18517487227E+02  0.24784996131E+02  0.51100000000E-03 0.  1.
        -12    1    3    3    0    0  0.52293859968E+01  0.11831139305E+02 -0.38400181215E+01  0.13493260330E+02  0.00000000000E+00 0.  1.
</event>
<event>
 7    1  0.1283194E-013  0.7246155E+02  0.7816164E-02  0.1226708E+00
        -11   -1    0    0    0    0  0.00000000000E+00  0.00000000000E+00  0.45593999997E+02  0.45594000000E+02  0.51100000000E-03 0. -1.
         11   -1    0    0    0    0 -0.00000000000E+00 -0.00000000000E+00 -0.45593999997E+02  0.45594000000E+02  0.51100000000E-03 0.  1.
    9900012    2    1    2    0    0  0.78216267357E+01 -0.15490477582E+02  0.70389778591E+01  0.72461549461E+02  0.69999972860E+02 0.  0.
         12    1    1    2    0    0 -0.78216267357E+01  0.15490477582E+02 -0.70389778591E+01  0.18726450539E+02  0.00000000000E+00 0. -1.
         11    1    3    3    0    0 -0.14407662537E+02 -0.10634407886E+02 -0.10543145507E+02  0.20780502600E+02  0.51100000000E-03 0. -1.
        -11    1    3    3    0    0  0.25246107519E+02 -0.12969678131E+02 -0.37784768459E+01  0.28633116897E+02  0.51100000000E-03 0.  1.
         12    1    3    3    0    0 -0.30168182466E+01  0.81136084351E+01  0.21360600212E+02  0.23047929964E+02  0.00000000000E+00 0. -1.
</event>
<event>
 7    1  0.1283194E-013  0.7246152E+02  0.7816164E-02  0.1226708E+00
        -11   -1    0    0    0    0  0.00000000000E+00  0.00000000000E+00  0.45593999997E+02  0.45594000000E+02  0.51100000000E-03 0. -1.
         11   -1    0    0    0    0 -0.00000000000E+00 -0.00000000000E+00 -0.45593999997E+02  0.45594000000E+02  0.51100000000E-03 0.  1.
    9900012    2    1    2    0    0 -0.79516627334E+01  0.10673235982E+02 -0.13173240644E+02  0.72461516731E+02  0.69999930224E+02 0.  0.
         12    1    1    2    0    0  0.79516627334E+01 -0.10673235982E+02  0.13173240644E+02  0.18726483269E+02  0.00000000000E+00 0. -1.
         11    1    3    3    0    0 -0.11716300616E+02  0.50968550467E+01  0.20371334978E+02  0.24046640525E+02  0.51100000000E-03 0. -1.
        -11    1    3    3    0    0 -0.12867660724E+01  0.44800289973E+01 -0.39929079192E+02  0.40200221294E+02  0.51100000000E-03 0.  1.
         12    1    3    3    0    0  0.50514039552E+01  0.10963519377E+01  0.63845035698E+01  0.82146549120E+01  0.00000000000E+00 0. -1.
</event>
<event>
 7    1  0.1283194E-013  0.7246157E+02  0.7816164E-02  0.1226708E+00
        -11   -1    0    0    0    0  0.00000000000E+00  0.00000000000E+00  0.45593999997E+02  0.45594000000E+02  0.51100000000E-03 0. -1.
         11   -1    0    0    0    0 -0.00000000000E+00 -0.00000000000E+00 -0.45593999997E+02  0.45594000000E+02  0.51100000000E-03 0.  1.
    9900012    2    1    2    0    0  0.14484547733E+02 -0.10512784215E+02  0.55098423126E+01  0.72461571689E+02  0.70000001816E+02 0.  0.
         12    1    1    2    0    0 -0.14484547733E+02  0.10512784215E+02 -0.55098423126E+01  0.18726428311E+02  0.00000000000E+00 0. -1.
         11    1    3    3    0    0  0.30547402032E+02 -0.29095081191E+02 -0.58197990704E+01  0.42585649953E+02  0.51100000000E-03 0. -1.
        -11    1    3    3    0    0 -0.94706798984E+01  0.57166940854E+01  0.10723982766E+02  0.15407081996E+02  0.51100000000E-03 0.  1.
         12    1    3    3    0    0 -0.65921744001E+01  0.12865602890E+02  0.60565861706E+00  0.14468839740E+02  0.00000000000E+00 0. -1.
</event>
<event>
 7    1  0.1283194E-013  0.7246158E+02  0.7816164E-02  0.1226708E+00
        -11   -1    0    0    0    0  0.00000000000E+00  0.00000000000E+00  0.45593999997E+02  0.45594000000E+02  0.51100000000E-03 0. -1.
         11   -1    0    0    0    0 -0.00000000000E+00 -0.00000000000E+00 -0.45593999997E+02  0.45594000000E+02  0.51100000000E-03 0.  1.
    9900012    2    1    2    0    0 -0.52443592702E+01  0.20377636727E+01 -0.17861213098E+02  0.72461582342E+02  0.70000015695E+02 0.  0.
         12    1    1    2    0    0  0.52443592702E+01 -0.20377636727E+01  0.17861213098E+02  0.18726417658E+02  0.00000000000E+00 0. -1.
         11    1    3    3    0    0 -0.19926452457E+01  0.33371856758E+01  0.56562289401E+01  0.68629708869E+01  0.51100000000E-03 0. -1.
        -11    1    3    3    0    0 -0.84658917532E+01 -0.18693001055E+02 -0.37454978265E+02  0.42708020426E+02  0.51100000000E-03 0.  1.
        -12    1    3    3    0    0  0.52141777288E+01  0.17393579051E+02  0.13937536227E+02  0.22890591029E+02  0.00000000000E+00 0.  1.
</event>
<event>
 7    1  0.1283194E-013  0.7246155E+02  0.7816164E-02  0.1226708E+00
        -11   -1    0    0    0    0  0.00000000000E+00  0.00000000000E+00  0.45593999997E+02  0.45594000000E+02  0.51100000000E-03 0. -1.
         11   -1    0    0    0    0 -0.00000000000E+00 -0.00000000000E+00 -0.45593999997E+02  0.45594000000E+02  0.51100000000E-03 0.  1.
    9900012    2    1    2    0    0  0.21508942378E+01 -0.16488159639E+02 -0.86136046957E+01  0.72461549718E+02  0.69999973196E+02 0.  0.
         12    1    1    2    0    0 -0.21508942378E+01  0.16488159639E+02  0.86136046957E+01  0.18726450282E+02  0.00000000000E+00 0. -1.
         11    1    3    3    0    0  0.33816393723E+02 -0.15120527021E+02 -0.98951498967E+01  0.38341789389E+02  0.51100000000E-03 0. -1.
        -11    1    3    3    0    0 -0.22345679176E+02  0.24662393324E+01 -0.38536193172E+01  0.22809254622E+02  0.51100000000E-03 0.  1.
         12    1    3    3    0    0 -0.93198203092E+01 -0.38338719501E+01  0.51351645182E+01  0.11310505707E+02  0.00000000000E+00 0. -1.
</event>
<event>
 7    1  0.1283194E-013  0.7246155E+02  0.7816164E-02  0.1226708E+00
        -11   -1    0    0    0    0  0.00000000000E+00  0.00000000000E+00  0.45593999997E+02  0.45594000000E+02  0.51100000000E-03 0. -1.
         11   -1    0    0    0    0 -0.00000000000E+00 -0.00000000000E+00 -0.45593999997E+02  0.45594000000E+02  0.51100000000E-03 0.  1.
    9900012    2    1    2    0    0  0.90435208383E+01  0.15378142009E+02 -0.56927398818E+01  0.72461553242E+02  0.69999977786E+02 0.  0.
         12    1    1    2    0    0 -0.90435208383E+01 -0.15378142009E+02  0.56927398818E+01  0.18726446758E+02  0.00000000000E+00 0. -1.
         11    1    3    3    0    0  0.23971420265E+02  0.28678588610E+02  0.44641398561E+01  0.37643312541E+02  0.51100000000E-03 0. -1.
        -11    1    3    3    0    0 -0.76063150476E+01  0.78411207613E+01 -0.36474615724E+01  0.11517082077E+02  0.51100000000E-03 0.  1.
         12    1    3    3    0    0 -0.73215843793E+01 -0.21141567362E+02 -0.65094181655E+01  0.23301158623E+02  0.00000000000E+00 0. -1.
</event>
<event>
 7    1  0.1283194E-013  0.7246172E+02  0.7816164E-02  0.1226708E+00
        -11   -1    0    0    0    0  0.00000000000E+00  0.00000000000E+00  0.45593999997E+02  0.45594000000E+02  0.51100000000E-03 0.  1.
         11   -1    0    0    0    0 -0.00000000000E+00 -0.00000000000E+00 -0.45593999997E+02  0.45594000000E+02  0.51100000000E-03 0. -1.
    9900012    2    1    2    0    0  0.14313347803E+02  0.12069545683E+02  0.35741012178E+00  0.72461718994E+02  0.70000193709E+02 0.  0.
         12    1    1    2    0    0 -0.14313347803E+02 -0.12069545683E+02 -0.35741012178E+00  0.18726281006E+02  0.00000000000E+00 0. -1.
         11    1    3    3    0    0  0.96588332268E+01 -0.91438652714E+01 -0.97411623225E+01  0.16486163139E+02  0.51100000000E-03 0. -1.
        -11    1    3    3    0    0  0.16935923245E+02  0.13501545830E+02  0.26406108337E+02  0.34152595710E+02  0.51100000000E-03 0.  1.
        -12    1    3    3    0    0 -0.12281408670E+02  0.77118651238E+01 -0.16307535892E+02  0.21822960145E+02  0.00000000000E+00 0.  1.
</event>
<event>
 7    1  0.1283194E-013  0.7246151E+02  0.7816164E-02  0.1226708E+00
        -11   -1    0    0    0    0  0.00000000000E+00  0.00000000000E+00  0.45593999997E+02  0.45594000000E+02  0.51100000000E-03 0.  1.
         11   -1    0    0    0    0 -0.00000000000E+00 -0.00000000000E+00 -0.45593999997E+02  0.45594000000E+02  0.51100000000E-03 0. -1.
    9900012    2    1    2    0    0  0.40169586745E+01  0.18104431352E+02  0.26029050341E+01  0.72461507905E+02  0.69999918726E+02 0.  0.
         12    1    1    2    0    0 -0.40169586745E+01 -0.18104431352E+02 -0.26029050341E+01  0.18726492095E+02  0.00000000000E+00 0. -1.
         11    1    3    3    0    0 -0.12440128991E+02  0.36241919494E+02  0.26876221809E+01  0.38411675975E+02  0.51100000000E-03 0. -1.
        -11    1    3    3    0    0  0.29678696884E+01 -0.17615503352E+02  0.65263504992E+01  0.19018608255E+02  0.51100000000E-03 0.  1.
        -12    1    3    3    0    0  0.13489217977E+02 -0.52198478978E+00 -0.66110676460E+01  0.15031223675E+02  0.00000000000E+00 0.  1.
</event>
<event>
 7    1  0.1283194E-013  0.7246148E+02  0.7816164E-02  0.1226708E+00
        -11   -1    0    0    0    0  0.00000000000E+00  0.00000000000E+00  0.45593999997E+02  0.45594000000E+02  0.51100000000E-03 0. -1.
         11   -1    0    0    0    0 -0.00000000000E+00 -0.00000000000E+00 -0.45593999997E+02  0.45594000000E+02  0.51100000000E-03 0.  1.
    9900012    2    1    2    0    0  0.96836978114E+01 -0.35510112439E+01 -0.15630057096E+02  0.72461484868E+02  0.69999888717E+02 0.  0.
         12    1    1    2    0    0 -0.96836978114E+01  0.35510112439E+01  0.15630057096E+02  0.18726515132E+02  0.00000000000E+00 0. -1.
         11    1    3    3    0    0 -0.17064318073E+02 -0.78261071221E+01  0.62194152751E+01  0.19776754805E+02  0.51100000000E-03 0. -1.
        -11    1    3    3    0    0  0.27688215937E+02 -0.10103687052E+02 -0.24135288890E+02  0.38095064823E+02  0.51100000000E-03 0.  1.
        -12    1    3    3    0    0 -0.94020005198E+00  0.14378782930E+02  0.22858165190E+01  0.14589665241E+02  0.00000000000E+00 0.  1.
</event>
<event>
 7    1  0.1283194E-013  0.7246158E+02  0.7816164E-02  0.1226708E+00
        -11   -1    0    0    0    0  0.00000000000E+00  0.00000000000E+00  0.45593999997E+02  0.45594000000E+02  0.51100000000E-03 0.  1.
         11   -1    0    0    0    0 -0.00000000000E+00 -0.00000000000E+00 -0.45593999997E+02  0.45594000000E+02  0.51100000000E-03 0. -1.
    9900012    2    1    2    0    0 -0.14767925854E+02 -0.20639616050E+01  0.11328155269E+02  0.72461583542E+02  0.70000017258E+02 0.  0.
         12    1    1    2    0    0  0.14767925854E+02  0.20639616050E+01 -0.11328155269E+02  0.18726416458E+02  0.00000000000E+00 0. -1.
         11    1    3    3    0    0  0.18209282737E+02  0.18381679652E+02  0.11025104169E+01  0.25897483547E+02  0.51100000000E-03 0. -1.
        -11    1    3    3    0    0 -0.12704440413E+02 -0.16077862674E+02  0.14862711622E+02  0.25314040993E+02  0.51100000000E-03 0.  1.
         12    1    3    3    0    0 -0.20272768178E+02 -0.43677785824E+01 -0.46370667693E+01  0.21250059001E+02  0.00000000000E+00 0. -1.
</event>
<event>
 7    1  0.1283194E-013  0.7246163E+02  0.7816164E-02  0.1226708E+00
        -11   -1    0    0    0    0  0.00000000000E+00  0.00000000000E+00  0.45593999997E+02  0.45594000000E+02  0.51100000000E-03 0.  1.
         11   -1    0    0    0    0 -0.00000000000E+00 -0.00000000000E+00 -0.45593999997E+02  0.45594000000E+02  0.51100000000E-03 0. -1.
    9900012    2    1    2    0    0  0.14855777090E+02 -0.11384628086E+02 -0.61083471924E+00  0.72461628524E+02  0.70000075855E+02 0.  0.
         12    1    1    2    0    0 -0.14855777090E+02  0.11384628086E+02  0.61083471924E+00  0.18726371476E+02  0.00000000000E+00 0. -1.
         11    1    3    3    0    0  0.29211959572E+02 -0.11919492081E+02 -0.95188718022E+01  0.32954844775E+02  0.51100000000E-03 0. -1.
        -11    1    3    3    0    0 -0.15940593149E+01  0.15451628380E+02  0.12006172876E+02  0.19632677659E+02  0.51100000000E-03 0.  1.
        -12    1    3    3    0    0 -0.12762123167E+02 -0.14916764385E+02 -0.30981357929E+01  0.19874106090E+02  0.00000000000E+00 0.  1.
</event>
<event>
 7    1  0.1283194E-013  0.7246160E+02  0.7816164E-02  0.1226708E+00
        -11   -1    0    0    0    0  0.00000000000E+00  0.00000000000E+00  0.45593999997E+02  0.45594000000E+02  0.51100000000E-03 0. -1.
         11   -1    0    0    0    0 -0.00000000000E+00 -0.00000000000E+00 -0.45593999997E+02  0.45594000000E+02  0.51100000000E-03 0.  1.
    9900012    2    1    2    0    0  0.30317839179E+01  0.13253083673E+02  0.12877965963E+02  0.72461602911E+02  0.70000042490E+02 0.  0.
         12    1    1    2    0    0 -0.30317839179E+01 -0.13253083673E+02 -0.12877965963E+02  0.18726397089E+02  0.00000000000E+00 0. -1.
         11    1    3    3    0    0 -0.26135537458E+02 -0.23230848755E+01 -0.44292749813E+01  0.26609801177E+02  0.51100000000E-03 0. -1.
        -11    1    3    3    0    0  0.80137135718E+01  0.11717150036E+02 -0.48259158364E+01  0.14993354331E+02  0.51100000000E-03 0.  1.
         12    1    3    3    0    0  0.21153607804E+02  0.38590185120E+01  0.22133156781E+02  0.30858447403E+02  0.00000000000E+00 0. -1.
</event>
<event>
 7    1  0.1283194E-013  0.7246166E+02  0.7816164E-02  0.1226708E+00
        -11   -1    0    0    0    0  0.00000000000E+00  0.00000000000E+00  0.45593999997E+02  0.45594000000E+02  0.51100000000E-03 0.  1.
         11   -1    0    0    0    0 -0.00000000000E+00 -0.00000000000E+00 -0.45593999997E+02  0.45594000000E+02  0.51100000000E-03 0. -1.
    9900012    2    1    2    0    0 -0.87450980111E+01  0.63518573796E+01  0.15292249178E+02  0.72461662496E+02  0.70000120110E+02 0.  0.
         12    1    1    2    0    0  0.87450980111E+01 -0.63518573796E+01 -0.15292249178E+02  0.18726337504E+02  0.00000000000E+00 0. -1.
         11    1    3    3    0    0  0.76473167172E+01  0.27157155802E+02 -0.96681952554E+01  0.29823926032E+02  0.51100000000E-03 0. -1.
        -11    1    3    3    0    0 -0.37812616479E+01 -0.21392467335E+02  0.13432060759E+02  0.25541257895E+02  0.51100000000E-03 0.  1.
        -12    1    3    3    0    0 -0.12611153080E+02  0.58716891311E+00  0.11528383674E+02  0.17096478569E+02  0.00000000000E+00 0.  1.
</event>
<event>
 7    1  0.1283194E-013  0.7246158E+02  0.7816164E-02  0.1226708E+00
        -11   -1    0    0    0    0  0.00000000000E+00  0.00000000000E+00  0.45593999997E+02  0.45594000000E+02  0.51100000000E-03 0. -1.
         11   -1    0    0    0    0 -0.00000000000E+00 -0.00000000000E+00 -0.45593999997E+02  0.45594000000E+02  0.51100000000E-03 0.  1.
    9900012    2    1    2    0    0  0.12849698251E+02  0.60488844247E+00 -0.13608754735E+02  0.72461579077E+02  0.70000011441E+02 0.  0.
         12    1    1    2    0    0 -0.12849698251E+02 -0.60488844247E+00  0.13608754735E+02  0.18726420923E+02  0.00000000000E+00 0. -1.
         11    1    3    3    0    0 -0.21262131831E+02 -0.33761534056E+00 -0.16093194192E+02  0.26668017056E+02  0.51100000000E-03 0. -1.
        -11    1    3    3    0    0  0.25236409890E+02  0.12314293630E+02 -0.64682284154E+01  0.28815901701E+02  0.51100000000E-03 0.  1.
        -12    1    3    3    0    0  0.88754201919E+01 -0.11371789847E+02  0.89526678730E+01  0.16977660320E+02  0.00000000000E+00 0.  1.
</event>
<event>
 7    1  0.1283194E-013  0.7246150E+02  0.7816164E-02  0.1226708E+00
        -11   -1    0    0    0    0  0.00000000000E+00  0.00000000000E+00  0.45593999997E+02  0.45594000000E+02  0.51100000000E-03 0. -1.
         11   -1    0    0    0    0 -0.00000000000E+00 -0.00000000000E+00 -0.45593999997E+02  0.45594000000E+02  0.51100000000E-03 0.  1.
    9900012    2    1    2    0    0  0.18595800221E+02 -0.10208358420E+01 -0.19585027759E+01  0.72461504738E+02  0.69999914600E+02 0.  0.
         12    1    1    2    0    0 -0.18595800221E+02  0.10208358420E+01  0.19585027759E+01  0.18726495262E+02  0.00000000000E+00 0. -1.
         11    1    3    3    0    0 -0.94388467992E+00  0.11743244609E+02  0.38787686148E+01  0.12403207588E+02  0.51100000000E-03 0. -1.
        -11    1    3    3    0    0  0.38522131490E+02 -0.49761760996E+01 -0.71647941837E+01  0.39497483706E+02  0.51100000000E-03 0.  1.
        -12    1    3    3    0    0 -0.18982446589E+02 -0.77879043518E+01  0.13275227930E+01  0.20560813444E+02  0.00000000000E+00 0.  1.
</event>
<event>
 7    1  0.1283194E-013  0.7246183E+02  0.7816164E-02  0.1226707E+00
        -11   -1    0    0    0    0  0.00000000000E+00  0.00000000000E+00  0.45593999997E+02  0.45594000000E+02  0.51100000000E-03 0.  1.
         11   -1    0    0    0    0 -0.00000000000E+00 -0.00000000000E+00 -0.45593999997E+02  0.45594000000E+02  0.51100000000E-03 0. -1.
    9900012    2    1    2    0    0  0.15678785198E+02 -0.10234887286E+02  0.30385907298E+00  0.72461827050E+02  0.70000334470E+02 0.  0.
         12    1    1    2    0    0 -0.15678785198E+02  0.10234887286E+02 -0.30385907298E+00  0.18726172950E+02  0.00000000000E+00 0. -1.
         11    1    3    3    0    0  0.96162269587E+01 -0.10476651302E+02 -0.26871583671E+02  0.30402533655E+02  0.51100000000E-03 0. -1.
        -11    1    3    3    0    0  0.17350468400E+02  0.72589842737E+01  0.15688925902E+02  0.24492325382E+02  0.51100000000E-03 0.  1.
         12    1    3    3    0    0 -0.11287910162E+02 -0.70172202585E+01  0.11486516842E+02  0.17566968012E+02  0.00000000000E+00 0. -1.
</event>
<event>
 7    1  0.1283194E-013  0.7246158E+02  0.7816164E-02  0.1226708E+00
        -11   -1    0    0    0    0  0.00000000000E+00  0.00000000000E+00  0.45593999997E+02  0.45594000000E+02  0.51100000000E-03 0. -1.
         11   -1    0    0    0    0 -0.00000000000E+00 -0.00000000000E+00 -0.45593999997E+02  0.45594000000E+02  0.51100000000E-03 0.  1.
    9900012    2    1    2    0    0  0.13065008706E+01 -0.18672102519E+02 -0.56973759594E+00  0.72461575944E+02  0.70000007360E+02 0.  0.
         12    1    1    2    0    0 -0.13065008706E+01  0.18672102519E+02  0.56973759594E+00  0.18726424056E+02  0.00000000000E+00 0. -1.
         11    1    3    3    0    0 -0.14344878412E+02 -0.12414037380E+02  0.19442038803E+02  0.27163886574E+02  0.51100000000E-03 0. -1.
        -11    1    3    3    0    0  0.15982457581E+02 -0.20571746430E+02 -0.15368379731E+02  0.30246037713E+02  0.51100000000E-03 0.  1.
        -12    1    3    3    0    0 -0.33107829861E+00  0.14313681292E+02 -0.46433966683E+01  0.15051651656E+02  0.00000000000E+00 0.  1.
</event>
<event>
 7    1  0.1283194E-013  0.7246156E+02  0.7816164E-02  0.1226708E+00
        -11   -1    0    0    0    0  0.00000000000E+00  0.00000000000E+00  0.45593999997E+02  0.45594000000E+02  0.51100000000E-03 0.  1.
         11   -1    0    0    0    0 -0.00000000000E+00 -0.00000000000E+00 -0.45593999997E+02  0.45594000000E+02  0.51100000000E-03 0. -1.
    9900012    2    1    2    0    0 -0.54481392314E+01 -0.45005752491E+01  0.17341921371E+02  0.72461557852E+02  0.69999983792E+02 0.  0.
         12    1    1    2    0    0  0.54481392314E+01  0.45005752491E+01 -0.17341921371E+02  0.18726442148E+02  0.00000000000E+00 0. -1.
         11    1    3    3    0    0 -0.20551994808E+02  0.20270462488E+02 -0.24663515687E+00  0.28867576435E+02  0.51100000000E-03 0. -1.
        -11    1    3    3    0    0  0.19383039258E+02 -0.22714100152E+02  0.22018411377E+02  0.37100444693E+02  0.51100000000E-03 0.  1.
        -12    1    3    3    0    0 -0.42791836816E+01 -0.20569375845E+01 -0.44298548485E+01  0.64935367240E+01  0.00000000000E+00 0.  1.
</event>
<event>
 7    1  0.1283194E-013  0.7246157E+02  0.7816164E-02  0.1226708E+00
        -11   -1    0    0    0    0  0.00000000000E+00  0.00000000000E+00  0.45593999997E+02  0.45594000000E+02  0.51100000000E-03 0. -1.
         11   -1    0    0    0    0 -0.00000000000E+00 -0.00000000000E+00 -0.45593999997E+02  0.45594000000E+02  0.51100000000E-03 0.  1.
    9900012    2    1    2    0    0  0.11290852019E+02  0.14504756655E+02 -0.35788316718E+01  0.72461565714E+02  0.69999994033E+02 0.  0.
         12    1    1    2    0    0 -0.11290852019E+02 -0.14504756655E+02  0.35788316718E+01  0.18726434286E+02  0.00000000000E+00 0. -1.
         11    1    3    3    0    0 -0.68738713818E+00  0.17623139226E+02 -0.24875306680E+02  0.30493088068E+02  0.51100000000E-03 0.  1.
        -11    1    3    3    0    0  0.19354116398E+01 -0.18020193729E+02  0.11996843392E+02  0.21734706161E+02  0.51100000000E-03 0. -1.
        -12    1    3    3    0    0  0.10042827518E+02  0.14901811158E+02  0.92996316159E+01  0.20233771485E+02  0.00000000000E+00 0.  1.
</event>
<event>
 7    1  0.1283194E-013  0.7246157E+02  0.7816164E-02  0.1226708E+00
        -11   -1    0    0    0    0  0.00000000000E+00  0.00000000000E+00  0.45593999997E+02  0.45594000000E+02  0.51100000000E-03 0. -1.
         11   -1    0    0    0    0 -0.00000000000E+00 -0.00000000000E+00 -0.45593999997E+02  0.45594000000E+02  0.51100000000E-03 0.  1.
    9900012    2    1    2    0    0  0.17271986027E+02  0.13343387144E+01 -0.71117781640E+01  0.72461565481E+02  0.69999993730E+02 0.  0.
         12    1    1    2    0    0 -0.17271986027E+02 -0.13343387144E+01  0.71117781640E+01  0.18726434519E+02  0.00000000000E+00 0. -1.
         11    1    3    3    0    0  0.37704303123E+02  0.72928223951E+01  0.12883498880E+02  0.40506595465E+02  0.51100000000E-03 0. -1.
        -11    1    3    3    0    0 -0.16170312147E+02 -0.43081644907E+01 -0.21406892416E+02  0.27171571897E+02  0.51100000000E-03 0.  1.
         12    1    3    3    0    0 -0.42620049487E+01 -0.16503191900E+01  0.14116153718E+01  0.47833981195E+01  0.00000000000E+00 0. -1.
</event>
<event>
 7    1  0.1283194E-013  0.7246160E+02  0.7816164E-02  0.1226708E+00
        -11   -1    0    0    0    0  0.00000000000E+00  0.00000000000E+00  0.45593999997E+02  0.45594000000E+02  0.51100000000E-03 0.  1.
         11   -1    0    0    0    0 -0.00000000000E+00 -0.00000000000E+00 -0.45593999997E+02  0.45594000000E+02  0.51100000000E-03 0. -1.
    9900012    2    1    2    0    0  0.51051461000E+01  0.12293684799E+02  0.13171210928E+02  0.72461601522E+02  0.70000040680E+02 0.  0.
         12    1    1    2    0    0 -0.51051461000E+01 -0.12293684799E+02 -0.13171210928E+02  0.18726398478E+02  0.00000000000E+00 0. -1.
         11    1    3    3    0    0 -0.79276966149E+01  0.32644571273E+02 -0.43462458730E+00  0.33596209697E+02  0.51100000000E-03 0. -1.
        -11    1    3    3    0    0  0.50898151826E+01 -0.64205598286E+01  0.19991224013E+02  0.21605065260E+02  0.51100000000E-03 0.  1.
         12    1    3    3    0    0  0.79430275323E+01 -0.13930326646E+02 -0.63853884973E+01  0.17260326564E+02  0.00000000000E+00 0. -1.
</event>
<event>
 7    1  0.1283194E-013  0.7246215E+02  0.7816164E-02  0.1226706E+00
        -11   -1    0    0    0    0  0.00000000000E+00  0.00000000000E+00  0.45593999997E+02  0.45594000000E+02  0.51100000000E-03 0. -1.
         11   -1    0    0    0    0 -0.00000000000E+00 -0.00000000000E+00 -0.45593999997E+02  0.45594000000E+02  0.51100000000E-03 0.  1.
    9900012    2    1    2    0    0  0.12339547951E+02  0.85995436422E+01 -0.11155300792E+02  0.72462153417E+02  0.70000759621E+02 0.  0.
         12    1    1    2    0    0 -0.12339547951E+02 -0.85995436422E+01  0.11155300792E+02  0.18725846583E+02  0.00000000000E+00 0. -1.
         11    1    3    3    0    0 -0.16087336183E+02 -0.17921174812E+02 -0.13322698268E+02  0.27522085340E+02  0.51100000000E-03 0. -1.
        -11    1    3    3    0    0  0.16619750026E+02  0.23269861494E+02 -0.72395476527E+01  0.29497687966E+02  0.51100000000E-03 0.  1.
         12    1    3    3    0    0  0.11807134108E+02  0.32508569598E+01  0.94069451287E+01  0.15442380110E+02  0.00000000000E+00 0. -1.
</event>
<event>
 7    1  0.1283194E-013  0.7246148E+02  0.7816164E-02  0.1226708E+00
        -11   -1    0    0    0    0  0.00000000000E+00  0.00000000000E+00  0.45593999997E+02  0.45594000000E+02  0.51100000000E-03 0. -1.
         11   -1    0    0    0    0 -0.00000000000E+00 -0.00000000000E+00 -0.45593999997E+02  0.45594000000E+02  0.51100000000E-03 0.  1.
    9900012    2    1    2    0    0 -0.10565593491E+02 -0.19794468661E+01 -0.15334032006E+02  0.72461481016E+02  0.69999883698E+02 0.  0.
         12    1    1    2    0    0  0.10565593491E+02  0.19794468661E+01  0.15334032006E+02  0.18726518984E+02  0.00000000000E+00 0. -1.
         11    1    3    3    0    0 -0.34974452368E+02  0.66929469624E+01 -0.70121108083E+01  0.36292940853E+02  0.51100000000E-03 0. -1.
        -11    1    3    3    0    0  0.29601496596E+01  0.63060437328E+00 -0.12111627235E+02  0.12484056328E+02  0.51100000000E-03 0.  1.
         12    1    3    3    0    0  0.21448709218E+02 -0.93029982017E+01  0.37897060371E+01  0.23684483835E+02  0.00000000000E+00 0. -1.
</event>
<event>
 7    1  0.1283194E-013  0.7246149E+02  0.7816164E-02  0.1226708E+00
        -11   -1    0    0    0    0  0.00000000000E+00  0.00000000000E+00  0.45593999997E+02  0.45594000000E+02  0.51100000000E-03 0.  1.
         11   -1    0    0    0    0 -0.00000000000E+00 -0.00000000000E+00 -0.45593999997E+02  0.45594000000E+02  0.51100000000E-03 0. -1.
    9900012    2    1    2    0    0 -0.57353954690E+01 -0.12765392029E+02  0.12443157062E+02  0.72461490648E+02  0.69999896246E+02 0.  0.
         12    1    1    2    0    0  0.57353954690E+01  0.12765392029E+02 -0.12443157062E+02  0.18726509352E+02  0.00000000000E+00 0. -1.
         11    1    3    3    0    0  0.27742624609E+02 -0.17526216856E+02  0.51815184364E+01  0.33221523611E+02  0.51100000000E-03 0. -1.
        -11    1    3    3    0    0 -0.20164235208E+02  0.21727837551E+00 -0.47779249364E+01  0.20723710053E+02  0.51100000000E-03 0.  1.
        -12    1    3    3    0    0 -0.13313784870E+02  0.45435464511E+01  0.12039563562E+02  0.18516256984E+02  0.00000000000E+00 0.  1.
</event>
<event>
 7    1  0.1283194E-013  0.7246153E+02  0.7816164E-02  0.1226708E+00
        -11   -1    0    0    0    0  0.00000000000E+00  0.00000000000E+00  0.45593999997E+02  0.45594000000E+02  0.51100000000E-03 0. -1.
         11   -1    0    0    0    0 -0.00000000000E+00 -0.00000000000E+00 -0.45593999997E+02  0.45594000000E+02  0.51100000000E-03 0.  1.
    9900012    2    1    2    0    0 -0.13933439907E+02 -0.11670055851E+02  0.45110759277E+01  0.72461527902E+02  0.69999944776E+02 0.  0.
         12    1    1    2    0    0  0.13933439907E+02  0.11670055851E+02 -0.45110759277E+01  0.18726472098E+02  0.00000000000E+00 0. -1.
         11    1    3    3    0    0 -0.84067570660E+01  0.31066033726E+01  0.20316205074E+02  0.22205241222E+02  0.51100000000E-03 0. -1.
        -11    1    3    3    0    0  0.77183189593E+01 -0.26963124862E+02 -0.30817986865E+01  0.28214890276E+02  0.51100000000E-03 0.  1.
        -12    1    3    3    0    0 -0.13245001801E+02  0.12186465639E+02 -0.12723330459E+02  0.22041396404E+02  0.00000000000E+00 0.  1.
</event>
<event>
 7    1  0.1283194E-013  0.7246167E+02  0.7816164E-02  0.1226708E+00
        -11   -1    0    0    0    0  0.00000000000E+00  0.00000000000E+00  0.45593999997E+02  0.45594000000E+02  0.51100000000E-03 0. -1.
         11   -1    0    0    0    0 -0.00000000000E+00 -0.00000000000E+00 -0.45593999997E+02  0.45594000000E+02  0.51100000000E-03 0.  1.
    9900012    2    1    2    0    0 -0.81553033357E+01 -0.85407984989E+01 -0.14533451969E+02  0.72461669937E+02  0.70000129803E+02 0.  0.
         12    1    1    2    0    0  0.81553033357E+01  0.85407984989E+01  0.14533451969E+02  0.18726330063E+02  0.00000000000E+00 0. -1.
         11    1    3    3    0    0  0.41717765471E+01 -0.23649970283E+02  0.62894268708E+01  0.24825021744E+02  0.51100000000E-03 0. -1.
        -11    1    3    3    0    0 -0.40002066787E+01  0.73692994736E+01 -0.31161639212E+02  0.32270047828E+02  0.51100000000E-03 0.  1.
         12    1    3    3    0    0 -0.83268732041E+01  0.77398723108E+01  0.10338760372E+02  0.15366600365E+02  0.00000000000E+00 0. -1.
</event>
<event>
 7    1  0.1283194E-013  0.7246163E+02  0.7816164E-02  0.1226708E+00
        -11   -1    0    0    0    0  0.00000000000E+00  0.00000000000E+00  0.45593999997E+02  0.45594000000E+02  0.51100000000E-03 0. -1.
         11   -1    0    0    0    0 -0.00000000000E+00 -0.00000000000E+00 -0.45593999997E+02  0.45594000000E+02  0.51100000000E-03 0.  1.
    9900012    2    1    2    0    0  0.13851883899E+02  0.21251731830E+01  0.12421190777E+02  0.72461627449E+02  0.70000074455E+02 0.  0.
         12    1    1    2    0    0 -0.13851883899E+02 -0.21251731830E+01 -0.12421190777E+02  0.18726372551E+02  0.00000000000E+00 0. -1.
         11    1    3    3    0    0  0.16488775847E+02 -0.55885810872E+00  0.38257369639E+02  0.41663153785E+02  0.51100000000E-03 0. -1.
        -11    1    3    3    0    0 -0.71369361739E+01 -0.43334820989E+01 -0.14413980157E+02  0.16657663380E+02  0.51100000000E-03 0.  1.
         12    1    3    3    0    0  0.45000442258E+01  0.70175133906E+01 -0.11422198706E+02  0.14140810284E+02  0.00000000000E+00 0. -1.
</event>
<event>
 7    1  0.1283194E-013  0.7246147E+02  0.7816164E-02  0.1226708E+00
        -11   -1    0    0    0    0  0.00000000000E+00  0.00000000000E+00  0.45593999997E+02  0.45594000000E+02  0.51100000000E-03 0.  1.
         11   -1    0    0    0    0 -0.00000000000E+00 -0.00000000000E+00 -0.45593999997E+02  0.45594000000E+02  0.51100000000E-03 0. -1.
    9900012    2    1    2    0    0 -0.15293769206E+02 -0.90504638549E+01  0.59053003603E+01  0.72461472162E+02  0.69999872165E+02 0.  0.
         12    1    1    2    0    0  0.15293769206E+02  0.90504638549E+01 -0.59053003603E+01  0.18726527838E+02  0.00000000000E+00 0. -1.
         11    1    3    3    0    0  0.13404918958E+02  0.12438982656E+02 -0.16320946372E+02  0.24511087951E+02  0.51100000000E-03 0. -1.
        -11    1    3    3    0    0 -0.18232771605E+02 -0.11076513725E+02  0.25066706267E+02  0.32915997328E+02  0.51100000000E-03 0.  1.
         12    1    3    3    0    0 -0.10465916559E+02 -0.10412932785E+02 -0.28404595352E+01  0.15034386884E+02  0.00000000000E+00 0. -1.
</event>
<event>
 7    1  0.1283194E-013  0.7246157E+02  0.7816164E-02  0.1226708E+00
        -11   -1    0    0    0    0  0.00000000000E+00  0.00000000000E+00  0.45593999997E+02  0.45594000000E+02  0.51100000000E-03 0.  1.
         11   -1    0    0    0    0 -0.00000000000E+00 -0.00000000000E+00 -0.45593999997E+02  0.45594000000E+02  0.51100000000E-03 0. -1.
    9900012    2    1    2    0    0  0.14377864884E+02 -0.47035825146E+01  0.11037779857E+02  0.72461567578E+02  0.69999996461E+02 0.  0.
         12    1    1    2    0    0 -0.14377864884E+02  0.47035825146E+01 -0.11037779857E+02  0.18726432422E+02  0.00000000000E+00 0. -1.
         11    1    3    3    0    0  0.12968471810E+02 -0.45674092423E+01 -0.28940761498E+02  0.32040757866E+02  0.51100000000E-03 0. -1.
        -11    1    3    3    0    0  0.27760381475E+01 -0.21562751915E+01  0.24683094308E+02  0.24932128978E+02  0.51100000000E-03 0.  1.
         12    1    3    3    0    0 -0.13666450734E+01  0.20201019192E+01  0.15295447047E+02  0.15488680734E+02  0.00000000000E+00 0. -1.
</event>
<event>
 7    1  0.1283194E-013  0.7246160E+02  0.7816164E-02  0.1226708E+00
        -11   -1    0    0    0    0  0.00000000000E+00  0.00000000000E+00  0.45593999997E+02  0.45594000000E+02  0.51100000000E-03 0. -1.
         11   -1    0    0    0    0 -0.00000000000E+00 -0.00000000000E+00 -0.45593999997E+02  0.45594000000E+02  0.51100000000E-03 0.  1.
    9900012    2    1    2    0    0  0.13911608382E+02  0.10975745706E+02  0.60562602934E+01  0.72461598041E+02  0.70000036146E+02 0.  0.
         12    1    1    2    0    0 -0.13911608382E+02 -0.10975745706E+02 -0.60562602934E+01  0.18726401959E+02  0.00000000000E+00 0. -1.
         11    1    3    3    0    0  0.57724819623E+01 -0.31091241288E+01  0.12917980464E+02  0.14486629021E+02  0.51100000000E-03 0. -1.
        -11    1    3    3    0    0 -0.49540707859E+01  0.32566973128E+02  0.33849475676E+01  0.33115078535E+02  0.51100000000E-03 0.  1.
        -12    1    3    3    0    0  0.13093197205E+02 -0.18482103293E+02 -0.10246667739E+02  0.24859890485E+02  0.00000000000E+00 0.  1.
</event>
<event>
 7    1  0.1283194E-013  0.7246156E+02  0.7816164E-02  0.1226708E+00
        -11   -1    0    0    0    0  0.00000000000E+00  0.00000000000E+00  0.45593999997E+02  0.45594000000E+02  0.51100000000E-03 0.  1.
         11   -1    0    0    0    0 -0.00000000000E+00 -0.00000000000E+00 -0.45593999997E+02  0.45594000000E+02  0.51100000000E-03 0. -1.
    9900012    2    1    2    0    0 -0.48196486168E+01 -0.11635804766E+02  0.13858517080E+02  0.72461562511E+02  0.69999989861E+02 0.  0.
         12    1    1    2    0    0  0.48196486168E+01  0.11635804766E+02 -0.13858517080E+02  0.18726437489E+02  0.00000000000E+00 0. -1.
         11    1    3    3    0    0 -0.11213963657E+02  0.25330321680E+00 -0.27451490266E+01  0.11547856375E+02  0.51100000000E-03 0. -1.
        -11    1    3    3    0    0  0.28105722241E+02  0.77370619906E+01  0.10727398255E+02  0.31062369912E+02  0.51100000000E-03 0.  1.
        -12    1    3    3    0    0 -0.21711407201E+02 -0.19626169974E+02  0.58762678522E+01  0.29851336224E+02  0.00000000000E+00 0.  1.
</event>
<event>
 7    1  0.1283194E-013  0.7246163E+02  0.7816164E-02  0.1226708E+00
        -11   -1    0    0    0    0  0.00000000000E+00  0.00000000000E+00  0.45593999997E+02  0.45594000000E+02  0.51100000000E-03 0.  1.
         11   -1    0    0    0    0 -0.00000000000E+00 -0.00000000000E+00 -0.45593999997E+02  0.45594000000E+02  0.51100000000E-03 0. -1.
    9900012    2    1    2    0    0 -0.10495236411E+02  0.59677456260E+01  0.14314786678E+02  0.72461625743E+02  0.70000072232E+02 0.  0.
         12    1    1    2    0    0  0.10495236411E+02 -0.59677456260E+01 -0.14314786678E+02  0.18726374257E+02  0.00000000000E+00 0. -1.
         11    1    3    3    0    0 -0.16303606949E+00  0.22855155838E+02  0.12657663496E+02  0.26126637261E+02  0.51100000000E-03 0. -1.
        -11    1    3    3    0    0 -0.13308300686E+01 -0.24586716566E+02  0.14731328197E+02  0.28693026520E+02  0.51100000000E-03 0.  1.
         12    1    3    3    0    0 -0.90013702725E+01  0.76993063544E+01 -0.13074205015E+02  0.17641961962E+02  0.00000000000E+00 0. -1.
</event>
<event>
 7    1  0.1283194E-013  0.7246202E+02  0.7816164E-02  0.1226707E+00
        -11   -1    0    0    0    0  0.00000000000E+00  0.00000000000E+00  0.45593999997E+02  0.45594000000E+02  0.51100000000E-03 0. -1.
         11   -1    0    0    0    0 -0.00000000000E+00 -0.00000000000E+00 -0.45593999997E+02  0.45594000000E+02  0.51100000000E-03 0.  1.
    9900012    2    1    2    0    0 -0.17705066579E+02 -0.50525171694E+01 -0.34153822456E+01  0.72462024774E+02  0.70000592041E+02 0.  0.
         12    1    1    2    0    0  0.17705066579E+02  0.50525171694E+01  0.34153822456E+01  0.18725975226E+02  0.00000000000E+00 0. -1.
         11    1    3    3    0    0 -0.22641701965E+02  0.20983668626E+02  0.45396495782E+01  0.31202074217E+02  0.51100000000E-03 0. -1.
        -11    1    3    3    0    0  0.52281714948E+01 -0.13548554413E+02 -0.19457597396E+02  0.24279522247E+02  0.51100000000E-03 0.  1.
         12    1    3    3    0    0 -0.29153610859E+00 -0.12487631382E+02  0.11502565572E+02  0.16980428310E+02  0.00000000000E+00 0. -1.
</event>
<event>
 7    1  0.1283194E-013  0.7246158E+02  0.7816164E-02  0.1226708E+00
        -11   -1    0    0    0    0  0.00000000000E+00  0.00000000000E+00  0.45593999997E+02  0.45594000000E+02  0.51100000000E-03 0. -1.
         11   -1    0    0    0    0 -0.00000000000E+00 -0.00000000000E+00 -0.45593999997E+02  0.45594000000E+02  0.51100000000E-03 0.  1.
    9900012    2    1    2    0    0  0.41533715884E+01  0.31836698348E+00 -0.18257243129E+02  0.72461580701E+02  0.70000013556E+02 0.  0.
         12    1    1    2    0    0 -0.41533715884E+01 -0.31836698348E+00  0.18257243129E+02  0.18726419299E+02  0.00000000000E+00 0. -1.
         11    1    3    3    0    0  0.44499393227E+01 -0.31826449856E+01  0.47444485424E+01  0.72416145515E+01  0.51100000000E-03 0. -1.
        -11    1    3    3    0    0 -0.22846394129E+02  0.19728655169E+02 -0.22122235857E+02  0.37424201782E+02  0.51100000000E-03 0.  1.
        -12    1    3    3    0    0  0.22549826394E+02 -0.16227643200E+02 -0.87945581492E+00  0.27795764367E+02  0.00000000000E+00 0.  1.
</event>
<event>
 7    1  0.1283194E-013  0.7246157E+02  0.7816164E-02  0.1226708E+00
        -11   -1    0    0    0    0  0.00000000000E+00  0.00000000000E+00  0.45593999997E+02  0.45594000000E+02  0.51100000000E-03 0. -1.
         11   -1    0    0    0    0 -0.00000000000E+00 -0.00000000000E+00 -0.45593999997E+02  0.45594000000E+02  0.51100000000E-03 0.  1.
    9900012    2    1    2    0    0  0.14212403721E+01  0.88507482036E+01 -0.16441520301E+02  0.72461567938E+02  0.69999996931E+02 0.  0.
         12    1    1    2    0    0 -0.14212403721E+01 -0.88507482036E+01  0.16441520301E+02  0.18726432062E+02  0.00000000000E+00 0. -1.
         11    1    3    3    0    0 -0.26005466928E+02 -0.40211198164E+01 -0.15927209378E+02  0.30759221602E+02  0.51100000000E-03 0.  1.
        -11    1    3    3    0    0  0.16672776623E+02 -0.36217277161E+01  0.95891804069E+01  0.19571682940E+02  0.51100000000E-03 0. -1.
        -12    1    3    3    0    0  0.10753930677E+02  0.16493595736E+02 -0.10103491329E+02  0.22130663396E+02  0.00000000000E+00 0.  1.
</event>
<event>
 7    1  0.1283194E-013  0.7246156E+02  0.7816164E-02  0.1226708E+00
        -11   -1    0    0    0    0  0.00000000000E+00  0.00000000000E+00  0.45593999997E+02  0.45594000000E+02  0.51100000000E-03 0. -1.
         11   -1    0    0    0    0 -0.00000000000E+00 -0.00000000000E+00 -0.45593999997E+02  0.45594000000E+02  0.51100000000E-03 0.  1.
    9900012    2    1    2    0    0  0.37025640782E-01 -0.13001288676E+02 -0.13477562955E+02  0.72461559298E+02  0.69999985676E+02 0.  0.
         12    1    1    2    0    0 -0.37025640782E-01  0.13001288676E+02  0.13477562955E+02  0.18726440702E+02  0.00000000000E+00 0. -1.
         11    1    3    3    0    0  0.18908205079E+02  0.61535841025E+01 -0.15785255508E+02  0.25388208057E+02  0.51100000000E-03 0. -1.
        -11    1    3    3    0    0 -0.30544079786E+02 -0.10581364296E+02 -0.45922015336E+00  0.32328268802E+02  0.51100000000E-03 0.  1.
         12    1    3    3    0    0  0.11672900347E+02 -0.85735084826E+01  0.27669127070E+01  0.14745082439E+02  0.00000000000E+00 0. -1.
</event>
<event>
 7    1  0.1283194E-013  0.7246157E+02  0.7816164E-02  0.1226708E+00
        -11   -1    0    0    0    0  0.00000000000E+00  0.00000000000E+00  0.45593999997E+02  0.45594000000E+02  0.51100000000E-03 0. -1.
         11   -1    0    0    0    0 -0.00000000000E+00 -0.00000000000E+00 -0.45593999997E+02  0.45594000000E+02  0.51100000000E-03 0.  1.
    9900012    2    1    2    0    0  0.38049688676E+01 -0.12113503543E+02 -0.13764606126E+02  0.72461571136E+02  0.70000001097E+02 0.  0.
         12    1    1    2    0    0 -0.38049688676E+01  0.12113503543E+02  0.13764606126E+02  0.18726428864E+02  0.00000000000E+00 0. -1.
         11    1    3    3    0    0  0.67695473063E+01 -0.38013638426E+00  0.69841964699E+01  0.97339752925E+01  0.51100000000E-03 0. -1.
        -11    1    3    3    0    0 -0.92699860160E+01 -0.25683830992E+02 -0.33205565508E+02  0.42990712906E+02  0.51100000000E-03 0.  1.
        -12    1    3    3    0    0  0.63054075773E+01  0.13950463833E+02  0.12456762912E+02  0.19736882938E+02  0.00000000000E+00 0.  1.
</event>
<event>
 7    1  0.1283194E-013  0.7246159E+02  0.7816164E-02  0.1226708E+00
        -11   -1    0    0    0    0  0.00000000000E+00  0.00000000000E+00  0.45593999997E+02  0.45594000000E+02  0.51100000000E-03 0.  1.
         11   -1    0    0    0    0 -0.00000000000E+00 -0.00000000000E+00 -0.45593999997E+02  0.45594000000E+02  0.51100000000E-03 0. -1.
    9900012    2    1    2    0    0  0.20585409204E+01  0.11926159947E+02  0.14290118832E+02  0.72461591427E+02  0.70000027530E+02 0.  0.
         12    1    1    2    0    0 -0.20585409204E+01 -0.11926159947E+02 -0.14290118832E+02  0.18726408573E+02  0.00000000000E+00 0. -1.
         11    1    3    3    0    0 -0.14241434376E+02  0.22547119602E+02  0.23275369978E+02  0.35396806400E+02  0.51100000000E-03 0. -1.
        -11    1    3    3    0    0  0.75138754251E+01 -0.50185669287E+01 -0.19972943248E+02  0.21921742635E+02  0.51100000000E-03 0.  1.
        -12    1    3    3    0    0  0.87860998710E+01 -0.56023927257E+01  0.10987692101E+02  0.15143042393E+02  0.00000000000E+00 0.  1.
</event>
<event>
 7    1  0.1283194E-013  0.7246157E+02  0.7816164E-02  0.1226708E+00
        -11   -1    0    0    0    0  0.00000000000E+00  0.00000000000E+00  0.45593999997E+02  0.45594000000E+02  0.51100000000E-03 0.  1.
         11   -1    0    0    0    0 -0.00000000000E+00 -0.00000000000E+00 -0.45593999997E+02  0.45594000000E+02  0.51100000000E-03 0. -1.
    9900012    2    1    2    0    0 -0.14265804483E+02 -0.10396524153E+02  0.62512491806E+01  0.72461574598E+02  0.70000005606E+02 0.  0.
         12    1    1    2    0    0  0.14265804483E+02  0.10396524153E+02 -0.62512491806E+01  0.18726425402E+02  0.00000000000E+00 0. -1.
         11    1    3    3    0    0  0.15723530088E+02  0.84473758821E+01  0.88113164026E+00  0.17870756866E+02  0.51100000000E-03 0. -1.
        -11    1    3    3    0    0 -0.38520806751E+02 -0.16439445758E+02 -0.35290109049E+01  0.42030487123E+02  0.51100000000E-03 0.  1.
        -12    1    3    3    0    0  0.85314721794E+01 -0.24044542777E+01  0.88991284451E+01  0.12560330609E+02  0.00000000000E+00 0.  1.
</event>
<event>
 7    1  0.1283194E-013  0.7246153E+02  0.7816164E-02  0.1226708E+00
        -11   -1    0    0    0    0  0.00000000000E+00  0.00000000000E+00  0.45593999997E+02  0.45594000000E+02  0.51100000000E-03 0. -1.
         11   -1    0    0    0    0 -0.00000000000E+00 -0.00000000000E+00 -0.45593999997E+02  0.45594000000E+02  0.51100000000E-03 0.  1.
    9900012    2    1    2    0    0 -0.11528567440E+02 -0.60125640402E+01 -0.13476715114E+02  0.72461530930E+02  0.69999948721E+02 0.  0.
         12    1    1    2    0    0  0.11528567440E+02  0.60125640402E+01  0.13476715114E+02  0.18726469070E+02  0.00000000000E+00 0. -1.
         11    1    3    3    0    0 -0.12447087586E+02 -0.21802173825E+02  0.64949815473E+01  0.25931632391E+02  0.51100000000E-03 0. -1.
        -11    1    3    3    0    0  0.10527479755E+01  0.23211959364E+02  0.20157250934E+01  0.23323089069E+02  0.51100000000E-03 0.  1.
        -12    1    3    3    0    0 -0.13422782881E+00 -0.74223495788E+01 -0.21987421755E+02  0.23206809471E+02  0.00000000000E+00 0.  1.
</event>
<event>
 7    1  0.1283194E-013  0.7246159E+02  0.7816164E-02  0.1226708E+00
        -11   -1    0    0    0    0  0.00000000000E+00  0.00000000000E+00  0.45593999997E+02  0.45594000000E+02  0.51100000000E-03 0. -1.
         11   -1    0    0    0    0 -0.00000000000E+00 -0.00000000000E+00 -0.45593999997E+02  0.45594000000E+02  0.51100000000E-03 0.  1.
    9900012    2    1    2    0    0  0.92919802314E+01  0.34071267783E+01 -0.15897452901E+02  0.72461590353E+02  0.70000026130E+02 0.  0.
         12    1    1    2    0    0 -0.92919802314E+01 -0.34071267783E+01  0.15897452901E+02  0.18726409647E+02  0.00000000000E+00 0. -1.
         11    1    3    3    0    0 -0.11683927883E+02  0.31005784093E+01  0.14530368245E+02  0.18901305744E+02  0.51100000000E-03 0. -1.
        -11    1    3    3    0    0  0.13059828601E+02 -0.52418517399E+01 -0.38484162109E+02  0.40976418417E+02  0.51100000000E-03 0.  1.
        -12    1    3    3    0    0  0.79160795136E+01  0.55484001089E+01  0.80563409630E+01  0.12583866192E+02  0.00000000000E+00 0.  1.
</event>
<event>
 7    1  0.1283194E-013  0.7246155E+02  0.7816164E-02  0.1226708E+00
        -11   -1    0    0    0    0  0.00000000000E+00  0.00000000000E+00  0.45593999997E+02  0.45594000000E+02  0.51100000000E-03 0. -1.
         11   -1    0    0    0    0 -0.00000000000E+00 -0.00000000000E+00 -0.45593999997E+02  0.45594000000E+02  0.51100000000E-03 0.  1.
    9900012    2    1    2    0    0 -0.14030656691E+02 -0.11708242753E+01 -0.12347061312E+02  0.72461545992E+02  0.69999968342E+02 0.  0.
         12    1    1    2    0    0  0.14030656691E+02  0.11708242753E+01  0.12347061312E+02  0.18726454008E+02  0.00000000000E+00 0. -1.
         11    1    3    3    0    0  0.16752556627E+02  0.10315081604E+02  0.29707901231E+01  0.19896599113E+02  0.51100000000E-03 0. -1.
        -11    1    3    3    0    0 -0.31329328050E+02 -0.17479078973E+02 -0.23143656628E+02  0.42692784404E+02  0.51100000000E-03 0.  1.
        -12    1    3    3    0    0  0.54611473195E+00  0.59931730933E+01  0.78258051931E+01  0.98721624757E+01  0.00000000000E+00 0.  1.
</event>
<event>
 7    1  0.1283194E-013  0.7246161E+02  0.7816164E-02  0.1226708E+00
        -11   -1    0    0    0    0  0.00000000000E+00  0.00000000000E+00  0.45593999997E+02  0.45594000000E+02  0.51100000000E-03 0. -1.
         11   -1    0    0    0    0 -0.00000000000E+00 -0.00000000000E+00 -0.45593999997E+02  0.45594000000E+02  0.51100000000E-03 0.  1.
    9900012    2    1    2    0    0  0.14037573736E+02  0.11937454584E+02 -0.33348778588E+01  0.72461609300E+02  0.70000050812E+02 0.  0.
         12    1    1    2    0    0 -0.14037573736E+02 -0.11937454584E+02  0.33348778588E+01  0.18726390700E+02  0.00000000000E+00 0. -1.
         11    1    3    3    0    0  0.73586060786E+01  0.26942959428E+02  0.98907920370E+01  0.29629375854E+02  0.51100000000E-03 0.  1.
        -11    1    3    3    0    0 -0.10225206302E+02 -0.16476854870E+02  0.26784567157E+01  0.19575896429E+02  0.51100000000E-03 0. -1.
         12    1    3    3    0    0  0.16904173960E+02  0.14713500263E+01 -0.15904126611E+02  0.23256337017E+02  0.00000000000E+00 0. -1.
</event>
<event>
 7    1  0.1283194E-013  0.7246159E+02  0.7816164E-02  0.1226708E+00
        -11   -1    0    0    0    0  0.00000000000E+00  0.00000000000E+00  0.45593999997E+02  0.45594000000E+02  0.51100000000E-03 0.  1.
         11   -1    0    0    0    0 -0.00000000000E+00 -0.00000000000E+00 -0.45593999997E+02  0.45594000000E+02  0.51100000000E-03 0. -1.
    9900012    2    1    2    0    0 -0.60287817575E+01 -0.14151189068E+02  0.10680631615E+02  0.72461594760E+02  0.70000031871E+02 0.  0.
         12    1    1    2    0    0  0.60287817575E+01  0.14151189068E+02 -0.10680631615E+02  0.18726405240E+02  0.00000000000E+00 0. -1.
         11    1    3    3    0    0 -0.25318219629E+02 -0.27905585102E+02 -0.10947844771E+02  0.39237599703E+02  0.51100000000E-03 0. -1.
        -11    1    3    3    0    0  0.13650821792E+02  0.89602481553E+01  0.19677051435E+02  0.25569852092E+02  0.51100000000E-03 0.  1.
         12    1    3    3    0    0  0.56386160803E+01  0.47941478789E+01  0.19514249513E+01  0.76541429648E+01  0.00000000000E+00 0. -1.
</event>
<event>
 7    1  0.1283194E-013  0.7246157E+02  0.7816164E-02  0.1226708E+00
        -11   -1    0    0    0    0  0.00000000000E+00  0.00000000000E+00  0.45593999997E+02  0.45594000000E+02  0.51100000000E-03 0.  1.
         11   -1    0    0    0    0 -0.00000000000E+00 -0.00000000000E+00 -0.45593999997E+02  0.45594000000E+02  0.51100000000E-03 0. -1.
    9900012    2    1    2    0    0  0.14826336455E+02  0.99874110493E+01  0.55776793808E+01  0.72461571098E+02  0.70000001046E+02 0.  0.
         12    1    1    2    0    0 -0.14826336455E+02 -0.99874110493E+01 -0.55776793808E+01  0.18726428902E+02  0.00000000000E+00 0. -1.
         11    1    3    3    0    0  0.88631187284E+01  0.37722755733E+02  0.22343188044E+01  0.38814344699E+02  0.51100000000E-03 0. -1.
        -11    1    3    3    0    0  0.37966906905E+01 -0.15684642062E+02  0.10700499404E+02  0.19362942560E+02  0.51100000000E-03 0.  1.
         12    1    3    3    0    0  0.21665270366E+01 -0.12050702621E+02 -0.73571388274E+01  0.14284283838E+02  0.00000000000E+00 0. -1.
</event>
<event>
 7    1  0.1283194E-013  0.7246176E+02  0.7816164E-02  0.1226708E+00
        -11   -1    0    0    0    0  0.00000000000E+00  0.00000000000E+00  0.45593999997E+02  0.45594000000E+02  0.51100000000E-03 0.  1.
         11   -1    0    0    0    0 -0.00000000000E+00 -0.00000000000E+00 -0.45593999997E+02  0.45594000000E+02  0.51100000000E-03 0. -1.
    9900012    2    1    2    0    0 -0.85685722319E+01 -0.92508325293E+01  0.13844626300E+02  0.72461761457E+02  0.70000249025E+02 0.  0.
         12    1    1    2    0    0  0.85685722319E+01  0.92508325293E+01 -0.13844626300E+02  0.18726238543E+02  0.00000000000E+00 0. -1.
         11    1    3    3    0    0 -0.24149634062E+02  0.34869493510E+01  0.22073482161E+01  0.24499714845E+02  0.51100000000E-03 0. -1.
        -11    1    3    3    0    0  0.17193847623E+02 -0.41780903130E+01  0.25830186808E+02  0.31309477567E+02  0.51100000000E-03 0.  1.
         12    1    3    3    0    0 -0.16127857937E+01 -0.85596915673E+01 -0.14192908724E+02  0.16652569045E+02  0.00000000000E+00 0. -1.
</event>
<event>
 7    1  0.1283194E-013  0.7246157E+02  0.7816164E-02  0.1226708E+00
        -11   -1    0    0    0    0  0.00000000000E+00  0.00000000000E+00  0.45593999997E+02  0.45594000000E+02  0.51100000000E-03 0. -1.
         11   -1    0    0    0    0 -0.00000000000E+00 -0.00000000000E+00 -0.45593999997E+02  0.45594000000E+02  0.51100000000E-03 0.  1.
    9900012    2    1    2    0    0 -0.50157566637E+01  0.67217612057E+01 -0.16743334827E+02  0.72461570822E+02  0.70000000688E+02 0.  0.
         12    1    1    2    0    0  0.50157566637E+01 -0.67217612057E+01  0.16743334827E+02  0.18726429178E+02  0.00000000000E+00 0. -1.
         11    1    3    3    0    0  0.21321975328E+02  0.12155595255E+02 -0.12174177088E+02  0.27397001951E+02  0.51100000000E-03 0. -1.
        -11    1    3    3    0    0 -0.11127539049E+02  0.12078064621E+02 -0.12405406329E+02  0.20581444962E+02  0.51100000000E-03 0.  1.
         12    1    3    3    0    0 -0.15210192943E+02 -0.17511898670E+02  0.78362485897E+01  0.24483123909E+02  0.00000000000E+00 0. -1.
</event>
<event>
 7    1  0.1283194E-013  0.7246157E+02  0.7816164E-02  0.1226708E+00
        -11   -1    0    0    0    0  0.00000000000E+00  0.00000000000E+00  0.45593999997E+02  0.45594000000E+02  0.51100000000E-03 0.  1.
         11   -1    0    0    0    0 -0.00000000000E+00 -0.00000000000E+00 -0.45593999997E+02  0.45594000000E+02  0.51100000000E-03 0. -1.
    9900012    2    1    2    0    0  0.11939613461E+02  0.10385806703E+02 -0.10012982836E+02  0.72461570128E+02  0.69999999784E+02 0.  0.
         12    1    1    2    0    0 -0.11939613461E+02 -0.10385806703E+02  0.10012982836E+02  0.18726429872E+02  0.00000000000E+00 0. -1.
         11    1    3    3    0    0 -0.11469817503E+02  0.30892027771E+00 -0.13810842028E+02  0.17955263938E+02  0.51100000000E-03 0. -1.
        -11    1    3    3    0    0  0.22860559680E+02 -0.10499658879E+02  0.16716671948E+02  0.30204223988E+02  0.51100000000E-03 0.  1.
         12    1    3    3    0    0  0.54887128415E+00  0.20576545304E+02 -0.12918812756E+02  0.24302082202E+02  0.00000000000E+00 0. -1.
</event>
<event>
 7    1  0.1283194E-013  0.7246112E+02  0.7816164E-02  0.1226709E+00
        -11   -1    0    0    0    0  0.00000000000E+00  0.00000000000E+00  0.45593999997E+02  0.45594000000E+02  0.51100000000E-03 0.  1.
         11   -1    0    0    0    0 -0.00000000000E+00 -0.00000000000E+00 -0.45593999997E+02  0.45594000000E+02  0.51100000000E-03 0. -1.
    9900012    2    1    2    0    0  0.25744675060E+01  0.47945084527E+01  0.17918733560E+02  0.72461115405E+02  0.69999407420E+02 0.  0.
         12    1    1    2    0    0 -0.25744675060E+01 -0.47945084527E+01 -0.17918733560E+02  0.18726884595E+02  0.00000000000E+00 0. -1.
         11    1    3    3    0    0 -0.25657663381E+02  0.13270373984E+02  0.31714522864E+00  0.28888044191E+02  0.51100000000E-03 0.  1.
        -11    1    3    3    0    0  0.19216563321E+02 -0.10224213281E+02  0.23984427893E+02  0.32389251685E+02  0.51100000000E-03 0. -1.
         12    1    3    3    0    0  0.90155675654E+01  0.17483477495E+01 -0.63828395623E+01  0.11183819529E+02  0.00000000000E+00 0. -1.
</event>
<event>
 7    1  0.1283194E-013  0.7246159E+02  0.7816164E-02  0.1226708E+00
        -11   -1    0    0    0    0  0.00000000000E+00  0.00000000000E+00  0.45593999997E+02  0.45594000000E+02  0.51100000000E-03 0. -1.
         11   -1    0    0    0    0 -0.00000000000E+00 -0.00000000000E+00 -0.45593999997E+02  0.45594000000E+02  0.51100000000E-03 0.  1.
    9900012    2    1    2    0    0 -0.16460368153E+02 -0.48276673557E+01 -0.75118731454E+01  0.72461592710E+02  0.70000029201E+02 0.  0.
         12    1    1    2    0    0  0.16460368153E+02  0.48276673557E+01  0.75118731454E+01  0.18726407290E+02  0.00000000000E+00 0. -1.
         11    1    3    3    0    0  0.13892648014E+02 -0.18910328887E+01 -0.22960340746E+01  0.14207513750E+02  0.51100000000E-03 0. -1.
        -11    1    3    3    0    0 -0.14633131874E+02  0.73067117095E+01  0.20622990420E+02  0.26321556158E+02  0.51100000000E-03 0.  1.
        -12    1    3    3    0    0 -0.15719884293E+02 -0.10243346176E+02 -0.25838829491E+02  0.31932522802E+02  0.00000000000E+00 0.  1.
</event>
<event>
 7    1  0.1283194E-013  0.7246157E+02  0.7816164E-02  0.1226708E+00
        -11   -1    0    0    0    0  0.00000000000E+00  0.00000000000E+00  0.45593999997E+02  0.45594000000E+02  0.51100000000E-03 0.  1.
         11   -1    0    0    0    0 -0.00000000000E+00 -0.00000000000E+00 -0.45593999997E+02  0.45594000000E+02  0.51100000000E-03 0. -1.
    9900012    2    1    2    0    0  0.11360089508E+02  0.14756736930E+02 -0.19663150360E+01  0.72461566456E+02  0.69999994999E+02 0.  0.
         12    1    1    2    0    0 -0.11360089508E+02 -0.14756736930E+02  0.19663150360E+01  0.18726433544E+02  0.00000000000E+00 0. -1.
         11    1    3    3    0    0  0.16025590925E+02 -0.11742713343E+02  0.62252017726E+01  0.20819798715E+02  0.51100000000E-03 0. -1.
        -11    1    3    3    0    0  0.11695184077E+02  0.31585908706E+02 -0.34087826486E+01  0.33853607766E+02  0.51100000000E-03 0.  1.
         12    1    3    3    0    0 -0.16360685495E+02 -0.50864584319E+01 -0.47827341601E+01  0.17788159974E+02  0.00000000000E+00 0. -1.
</event>
<event>
 7    1  0.1283194E-013  0.7246160E+02  0.7816164E-02  0.1226708E+00
        -11   -1    0    0    0    0  0.00000000000E+00  0.00000000000E+00  0.45593999997E+02  0.45594000000E+02  0.51100000000E-03 0.  1.
         11   -1    0    0    0    0 -0.00000000000E+00 -0.00000000000E+00 -0.45593999997E+02  0.45594000000E+02  0.51100000000E-03 0. -1.
    9900012    2    1    2    0    0 -0.18694115717E+02  0.84849555127E+00  0.69869582840E+00  0.72461599305E+02  0.70000037791E+02 0.  0.
         12    1    1    2    0    0  0.18694115717E+02 -0.84849555127E+00 -0.69869582840E+00  0.18726400695E+02  0.00000000000E+00 0. -1.
         11    1    3    3    0    0 -0.64484344242E+01 -0.88389265017E+01 -0.12589085971E+02  0.16679149081E+02  0.51100000000E-03 0. -1.
        -11    1    3    3    0    0  0.17929883385E+02  0.10039098891E+02  0.15176410464E+02  0.25545795341E+02  0.51100000000E-03 0.  1.
        -12    1    3    3    0    0 -0.30175564678E+02 -0.35167683755E+00 -0.18886286648E+01  0.30236654883E+02  0.00000000000E+00 0.  1.
</event>
<event>
 7    1  0.1283194E-013  0.7246147E+02  0.7816164E-02  0.1226708E+00
        -11   -1    0    0    0    0  0.00000000000E+00  0.00000000000E+00  0.45593999997E+02  0.45594000000E+02  0.51100000000E-03 0. -1.
         11   -1    0    0    0    0 -0.00000000000E+00 -0.00000000000E+00 -0.45593999997E+02  0.45594000000E+02  0.51100000000E-03 0.  1.
    9900012    2    1    2    0    0  0.94096413970E+01 -0.16933677267E+01 -0.16101995201E+02  0.72461465485E+02  0.69999863467E+02 0.  0.
         12    1    1    2    0    0 -0.94096413970E+01  0.16933677267E+01  0.16101995201E+02  0.18726534515E+02  0.00000000000E+00 0. -1.
         11    1    3    3    0    0  0.68805307081E+01 -0.21795015597E+02  0.54156218129E+01  0.23488153771E+02  0.51100000000E-03 0. -1.
        -11    1    3    3    0    0  0.20360643862E+02  0.77773466986E+01 -0.70289773597E+01  0.22900861624E+02  0.51100000000E-03 0.  1.
         12    1    3    3    0    0 -0.17831533173E+02  0.12324301172E+02 -0.14488639654E+02  0.26072450090E+02  0.00000000000E+00 0. -1.
</event>
<event>
 7    1  0.1283194E-013  0.7246155E+02  0.7816164E-02  0.1226708E+00
        -11   -1    0    0    0    0  0.00000000000E+00  0.00000000000E+00  0.45593999997E+02  0.45594000000E+02  0.51100000000E-03 0. -1.
         11   -1    0    0    0    0 -0.00000000000E+00 -0.00000000000E+00 -0.45593999997E+02  0.45594000000E+02  0.51100000000E-03 0.  1.
    9900012    2    1    2    0    0 -0.28285894801E+01 -0.17983026233E+02 -0.43920319927E+01  0.72461545558E+02  0.69999967776E+02 0.  0.
         12    1    1    2    0    0  0.28285894801E+01  0.17983026233E+02  0.43920319927E+01  0.18726454442E+02  0.00000000000E+00 0. -1.
         11    1    3    3    0    0 -0.64018724516E+01 -0.21117872931E+01  0.81905663035E+01  0.10607968377E+02  0.51100000000E-03 0. -1.
        -11    1    3    3    0    0  0.29583809328E+02 -0.15002614266E+02 -0.53385891927E+00  0.33174767743E+02  0.51100000000E-03 0.  1.
        -12    1    3    3    0    0 -0.26010526357E+02 -0.86862467467E+00 -0.12048739377E+02  0.28678809438E+02  0.00000000000E+00 0.  1.
</event>
<event>
 7    1  0.1283194E-013  0.7246156E+02  0.7816164E-02  0.1226708E+00
        -11   -1    0    0    0    0  0.00000000000E+00  0.00000000000E+00  0.45593999997E+02  0.45594000000E+02  0.51100000000E-03 0. -1.
         11   -1    0    0    0    0 -0.00000000000E+00 -0.00000000000E+00 -0.45593999997E+02  0.45594000000E+02  0.51100000000E-03 0.  1.
    9900012    2    1    2    0    0 -0.14974508196E+02  0.10500449305E+02 -0.40229753208E+01  0.72461557152E+02  0.69999982879E+02 0.  0.
         12    1    1    2    0    0  0.14974508196E+02 -0.10500449305E+02  0.40229753208E+01  0.18726442848E+02  0.00000000000E+00 0. -1.
         11    1    3    3    0    0 -0.36504349199E+02 -0.46780849524E+01  0.14285376931E+02  0.39478145646E+02  0.51100000000E-03 0. -1.
        -11    1    3    3    0    0  0.78459630262E+01  0.71854627705E+01 -0.32543709719E+01  0.11125688371E+02  0.51100000000E-03 0.  1.
         12    1    3    3    0    0  0.13683877977E+02  0.79930714867E+01 -0.15053981280E+02  0.21857723135E+02  0.00000000000E+00 0. -1.
</event>
<event>
 7    1  0.1283194E-013  0.7246156E+02  0.7816164E-02  0.1226708E+00
        -11   -1    0    0    0    0  0.00000000000E+00  0.00000000000E+00  0.45593999997E+02  0.45594000000E+02  0.51100000000E-03 0.  1.
         11   -1    0    0    0    0 -0.00000000000E+00 -0.00000000000E+00 -0.45593999997E+02  0.45594000000E+02  0.51100000000E-03 0. -1.
    9900012    2    1    2    0    0 -0.31137766444E+01 -0.16198066522E+02 -0.88660450809E+01  0.72461555612E+02  0.69999980873E+02 0.  0.
         12    1    1    2    0    0  0.31137766444E+01  0.16198066522E+02  0.88660450809E+01  0.18726444388E+02  0.00000000000E+00 0. -1.
         11    1    3    3    0    0  0.10069346234E+01  0.66359229534E+01 -0.14046696521E+02  0.15567885990E+02  0.51100000000E-03 0. -1.
        -11    1    3    3    0    0 -0.12258373827E+02 -0.16980331960E+02  0.26238435702E+02  0.33571638487E+02  0.51100000000E-03 0.  1.
        -12    1    3    3    0    0  0.81376625590E+01 -0.58536575154E+01 -0.21057784262E+02  0.23322031135E+02  0.00000000000E+00 0.  1.
</event>
<event>
 7    1  0.1283194E-013  0.7246159E+02  0.7816164E-02  0.1226708E+00
        -11   -1    0    0    0    0  0.00000000000E+00  0.00000000000E+00  0.45593999997E+02  0.45594000000E+02  0.51100000000E-03 0.  1.
         11   -1    0    0    0    0 -0.00000000000E+00 -0.00000000000E+00 -0.45593999997E+02  0.45594000000E+02  0.51100000000E-03 0. -1.
    9900012    2    1    2    0    0  0.79101432440E+01 -0.61422546350E+01  0.15823422532E+02  0.72461591942E+02  0.70000028200E+02 0.  0.
         12    1    1    2    0    0 -0.79101432440E+01  0.61422546350E+01 -0.15823422532E+02  0.18726408058E+02  0.00000000000E+00 0. -1.
         11    1    3    3    0    0  0.16513919444E+02 -0.31775112845E+02 -0.53715980205E+01  0.36210791172E+02  0.51100000000E-03 0. -1.
        -11    1    3    3    0    0  0.27995794679E+01  0.57985070574E+01  0.35085043782E+01  0.73327984102E+01  0.51100000000E-03 0.  1.
         12    1    3    3    0    0 -0.11403355668E+02  0.19834351152E+02  0.17686516174E+02  0.28918002360E+02  0.00000000000E+00 0. -1.
</event>
<event>
 7    1  0.1283194E-013  0.7246178E+02  0.7816164E-02  0.1226707E+00
        -11   -1    0    0    0    0  0.00000000000E+00  0.00000000000E+00  0.45593999997E+02  0.45594000000E+02  0.51100000000E-03 0.  1.
         11   -1    0    0    0    0 -0.00000000000E+00 -0.00000000000E+00 -0.45593999997E+02  0.45594000000E+02  0.51100000000E-03 0. -1.
    9900012    2    1    2    0    0 -0.79376301413E+01  0.46634224830E+01  0.16306989157E+02  0.72461778361E+02  0.70000271045E+02 0.  0.
         12    1    1    2    0    0  0.79376301413E+01 -0.46634224830E+01 -0.16306989157E+02  0.18726221639E+02  0.00000000000E+00 0. -1.
         11    1    3    3    0    0  0.67588491389E+00  0.20984843059E+02  0.21009627436E+02  0.29702271023E+02  0.51100000000E-03 0.  1.
        -11    1    3    3    0    0  0.10982565310E+02 -0.12070320226E+02 -0.13192335495E+02  0.20984448700E+02  0.51100000000E-03 0. -1.
         12    1    3    3    0    0 -0.19596080366E+02 -0.42511003507E+01  0.84896972161E+01  0.21775058638E+02  0.00000000000E+00 0. -1.
</event>
<event>
 7    1  0.1283194E-013  0.7246150E+02  0.7816164E-02  0.1226708E+00
        -11   -1    0    0    0    0  0.00000000000E+00  0.00000000000E+00  0.45593999997E+02  0.45594000000E+02  0.51100000000E-03 0.  1.
         11   -1    0    0    0    0 -0.00000000000E+00 -0.00000000000E+00 -0.45593999997E+02  0.45594000000E+02  0.51100000000E-03 0. -1.
    9900012    2    1    2    0    0 -0.11399945676E+02  0.12103914450E+02  0.86150133351E+01  0.72461495756E+02  0.69999902900E+02 0.  0.
         12    1    1    2    0    0  0.11399945676E+02 -0.12103914450E+02 -0.86150133351E+01  0.18726504244E+02  0.00000000000E+00 0. -1.
         11    1    3    3    0    0 -0.31338447412E+02 -0.46531731684E+00  0.20560021669E+02  0.37483720435E+02  0.51100000000E-03 0. -1.
        -11    1    3    3    0    0  0.62760040663E+01  0.55501478242E+01  0.67664734477E+01  0.10769286471E+02  0.51100000000E-03 0.  1.
         12    1    3    3    0    0  0.13662497669E+02  0.70190839423E+01 -0.18711481781E+02  0.24208488850E+02  0.00000000000E+00 0. -1.
</event>
<event>
 7    1  0.1283194E-013  0.7246165E+02  0.7816164E-02  0.1226708E+00
        -11   -1    0    0    0    0  0.00000000000E+00  0.00000000000E+00  0.45593999997E+02  0.45594000000E+02  0.51100000000E-03 0.  1.
         11   -1    0    0    0    0 -0.00000000000E+00 -0.00000000000E+00 -0.45593999997E+02  0.45594000000E+02  0.51100000000E-03 0. -1.
    9900012    2    1    2    0    0  0.87823533413E+00  0.64421092088E+01  0.17561442004E+02  0.72461646548E+02  0.70000099334E+02 0.  0.
         12    1    1    2    0    0 -0.87823533413E+00 -0.64421092088E+01 -0.17561442004E+02  0.18726353452E+02  0.00000000000E+00 0. -1.
         11    1    3    3    0    0 -0.19464532028E+02  0.18481986805E+02  0.14989419894E+01  0.26883055456E+02  0.51100000000E-03 0.  1.
        -11    1    3    3    0    0  0.15752015855E+02 -0.23339135318E+02  0.40272792111E+01  0.28443983881E+02  0.51100000000E-03 0. -1.
        -12    1    3    3    0    0  0.45907515076E+01  0.11299257722E+02  0.12035220803E+02  0.17134607211E+02  0.00000000000E+00 0.  1.
</event>
<event>
 7    1  0.1283194E-013  0.7246172E+02  0.7816164E-02  0.1226708E+00
        -11   -1    0    0    0    0  0.00000000000E+00  0.00000000000E+00  0.45593999997E+02  0.45594000000E+02  0.51100000000E-03 0.  1.
         11   -1    0    0    0    0 -0.00000000000E+00 -0.00000000000E+00 -0.45593999997E+02  0.45594000000E+02  0.51100000000E-03 0. -1.
    9900012    2    1    2    0    0  0.88708237223E+01  0.15991843827E+02  0.40302756922E+01  0.72461716208E+02  0.70000190080E+02 0.  0.
         12    1    1    2    0    0 -0.88708237223E+01 -0.15991843827E+02 -0.40302756922E+01  0.18726283792E+02  0.00000000000E+00 0. -1.
         11    1    3    3    0    0  0.11505916580E+02  0.26609701116E+02  0.14675928608E+02  0.32493771567E+02  0.51100000000E-03 0. -1.
        -11    1    3    3    0    0  0.10933964829E+02 -0.17990183070E+02 -0.12389341000E+02  0.24427321680E+02  0.51100000000E-03 0.  1.
         12    1    3    3    0    0 -0.13569057687E+02  0.73723257800E+01  0.17436880838E+01  0.15540622962E+02  0.00000000000E+00 0. -1.
</event>
<event>
 7    1  0.1283194E-013  0.7246151E+02  0.7816164E-02  0.1226708E+00
        -11   -1    0    0    0    0  0.00000000000E+00  0.00000000000E+00  0.45593999997E+02  0.45594000000E+02  0.51100000000E-03 0.  1.
         11   -1    0    0    0    0 -0.00000000000E+00 -0.00000000000E+00 -0.45593999997E+02  0.45594000000E+02  0.51100000000E-03 0. -1.
    9900012    2    1    2    0    0  0.41986847509E+01  0.99607312883E+01  0.15291708737E+02  0.72461508670E+02  0.69999919723E+02 0.  0.
         12    1    1    2    0    0 -0.41986847509E+01 -0.99607312883E+01 -0.15291708737E+02  0.18726491330E+02  0.00000000000E+00 0. -1.
         11    1    3    3    0    0  0.21810301009E+02 -0.50939146909E+01 -0.18666800759E+02  0.29156245434E+02  0.51100000000E-03 0. -1.
        -11    1    3    3    0    0 -0.87194412520E+01  0.91755490135E+01  0.28808148168E+02  0.31466311455E+02  0.51100000000E-03 0.  1.
         12    1    3    3    0    0 -0.88921750065E+01  0.58790969657E+01  0.51503613274E+01  0.11838951781E+02  0.00000000000E+00 0. -1.
</event>
<event>
 7    1  0.1283194E-013  0.7246154E+02  0.7816164E-02  0.1226708E+00
        -11   -1    0    0    0    0  0.00000000000E+00  0.00000000000E+00  0.45593999997E+02  0.45594000000E+02  0.51100000000E-03 0. -1.
         11   -1    0    0    0    0 -0.00000000000E+00 -0.00000000000E+00 -0.45593999997E+02  0.45594000000E+02  0.51100000000E-03 0.  1.
    9900012    2    1    2    0    0 -0.15009198827E+02 -0.11134294819E+02 -0.11964895185E+01  0.72461543909E+02  0.69999965629E+02 0.  0.
         12    1    1    2    0    0  0.15009198827E+02  0.11134294819E+02  0.11964895185E+01  0.18726456091E+02  0.00000000000E+00 0. -1.
         11    1    3    3    0    0  0.64328443893E+01 -0.15911928364E+02  0.14862219714E+02  0.22703667684E+02  0.51100000000E-03 0. -1.
        -11    1    3    3    0    0  0.44584906969E+01  0.11578879913E+02 -0.19132378825E+02  0.22803432178E+02  0.51100000000E-03 0.  1.
        -12    1    3    3    0    0 -0.25900533913E+02 -0.68012463673E+01  0.30736695924E+01  0.26954444048E+02  0.00000000000E+00 0.  1.
</event>
<event>
 7    1  0.1283194E-013  0.7246154E+02  0.7816164E-02  0.1226708E+00
        -11   -1    0    0    0    0  0.00000000000E+00  0.00000000000E+00  0.45593999997E+02  0.45594000000E+02  0.51100000000E-03 0.  1.
         11   -1    0    0    0    0 -0.00000000000E+00 -0.00000000000E+00 -0.45593999997E+02  0.45594000000E+02  0.51100000000E-03 0. -1.
    9900012    2    1    2    0    0 -0.71546751808E+01 -0.39833128234E+01  0.16841145497E+02  0.72461539052E+02  0.69999959301E+02 0.  0.
         12    1    1    2    0    0  0.71546751808E+01  0.39833128234E+01 -0.16841145497E+02  0.18726460948E+02  0.00000000000E+00 0. -1.
         11    1    3    3    0    0 -0.24165302783E+02 -0.20689405803E+02 -0.10322093558E+01  0.31828899250E+02  0.51100000000E-03 0. -1.
        -11    1    3    3    0    0  0.19776447811E+02  0.25762964122E+01  0.34255873973E+01  0.20235608232E+02  0.51100000000E-03 0.  1.
        -12    1    3    3    0    0 -0.27658202094E+01  0.14129796567E+02  0.14447767455E+02  0.20397031571E+02  0.00000000000E+00 0.  1.
</event>
<event>
 7    1  0.1283194E-013  0.7246155E+02  0.7816164E-02  0.1226708E+00
        -11   -1    0    0    0    0  0.00000000000E+00  0.00000000000E+00  0.45593999997E+02  0.45594000000E+02  0.51100000000E-03 0. -1.
         11   -1    0    0    0    0 -0.00000000000E+00 -0.00000000000E+00 -0.45593999997E+02  0.45594000000E+02  0.51100000000E-03 0.  1.
    9900012    2    1    2    0    0  0.81813518030E+01 -0.16697671603E+02 -0.22210926122E+01  0.72461547942E+02  0.69999970882E+02 0.  0.
         12    1    1    2    0    0 -0.81813518030E+01  0.16697671603E+02  0.22210926122E+01  0.18726452058E+02  0.00000000000E+00 0. -1.
         11    1    3    3    0    0  0.17082602727E+02  0.17278401365E+01  0.26737790949E+02  0.31775937634E+02  0.51100000000E-03 0. -1.
        -11    1    3    3    0    0 -0.38377154084E+01 -0.71370504981E+01 -0.26961976479E+02  0.28153396336E+02  0.51100000000E-03 0.  1.
        -12    1    3    3    0    0 -0.50635355154E+01 -0.11288461242E+02 -0.19969070820E+01  0.12532213971E+02  0.00000000000E+00 0.  1.
</event>
<event>
 7    1  0.1283194E-013  0.7246160E+02  0.7816164E-02  0.1226708E+00
        -11   -1    0    0    0    0  0.00000000000E+00  0.00000000000E+00  0.45593999997E+02  0.45594000000E+02  0.51100000000E-03 0.  1.
         11   -1    0    0    0    0 -0.00000000000E+00 -0.00000000000E+00 -0.45593999997E+02  0.45594000000E+02  0.51100000000E-03 0. -1.
    9900012    2    1    2    0    0  0.94926176305E+01 -0.14513097344E+02  0.70666996007E+01  0.72461600794E+02  0.70000039731E+02 0.  0.
         12    1    1    2    0    0 -0.94926176305E+01  0.14513097344E+02 -0.70666996007E+01  0.18726399206E+02  0.00000000000E+00 0. -1.
         11    1    3    3    0    0 -0.94116988766E+01  0.17385507430E+02  0.24216839617E+01  0.19917341635E+02  0.51100000000E-03 0. -1.
        -11    1    3    3    0    0  0.24697500419E+02 -0.18322311505E+02 -0.94131377271E+01  0.32160236130E+02  0.51100000000E-03 0.  1.
        -12    1    3    3    0    0 -0.57931839120E+01 -0.13576293269E+02  0.14058153366E+02  0.20384023028E+02  0.00000000000E+00 0.  1.
</event>
<event>
 7    1  0.1283194E-013  0.7246144E+02  0.7816164E-02  0.1226708E+00
        -11   -1    0    0    0    0  0.00000000000E+00  0.00000000000E+00  0.45593999997E+02  0.45594000000E+02  0.51100000000E-03 0. -1.
         11   -1    0    0    0    0 -0.00000000000E+00 -0.00000000000E+00 -0.45593999997E+02  0.45594000000E+02  0.51100000000E-03 0.  1.
    9900012    2    1    2    0    0 -0.22830828430E+01 -0.10888179853E+02 -0.15063831012E+02  0.72461443121E+02  0.69999834333E+02 0.  0.
         12    1    1    2    0    0  0.22830828430E+01  0.10888179853E+02  0.15063831012E+02  0.18726556879E+02  0.00000000000E+00 0. -1.
         11    1    3    3    0    0  0.21189549834E+02  0.33716071922E+00 -0.11780538480E+02  0.24246479882E+02  0.51100000000E-03 0. -1.
        -11    1    3    3    0    0 -0.15264626187E+02 -0.22880967156E+02 -0.13535594210E+02  0.30655501651E+02  0.51100000000E-03 0.  1.
        -12    1    3    3    0    0 -0.82080064900E+01  0.11655626583E+02  0.10252301678E+02  0.17559461589E+02  0.00000000000E+00 0.  1.
</event>
<event>
 7    1  0.1283194E-013  0.7246157E+02  0.7816164E-02  0.1226708E+00
        -11   -1    0    0    0    0  0.00000000000E+00  0.00000000000E+00  0.45593999997E+02  0.45594000000E+02  0.51100000000E-03 0.  1.
         11   -1    0    0    0    0 -0.00000000000E+00 -0.00000000000E+00 -0.45593999997E+02  0.45594000000E+02  0.51100000000E-03 0. -1.
    9900012    2    1    2    0    0 -0.12368977222E+02 -0.12624221464E+02  0.61900301636E+01  0.72461573792E+02  0.70000004557E+02 0.  0.
         12    1    1    2    0    0  0.12368977222E+02  0.12624221464E+02 -0.61900301636E+01  0.18726426208E+02  0.00000000000E+00 0. -1.
         11    1    3    3    0    0 -0.18856512313E+02 -0.70622566544E+01 -0.21854579144E+02  0.29716429051E+02  0.51100000000E-03 0. -1.
        -11    1    3    3    0    0 -0.26639147047E+01 -0.15112945599E+02  0.24736703233E+02  0.29110170960E+02  0.51100000000E-03 0.  1.
         12    1    3    3    0    0  0.91514497964E+01  0.95509807893E+01  0.33079060748E+01  0.13634973781E+02  0.00000000000E+00 0. -1.
</event>
<event>
 7    1  0.1283194E-013  0.7246157E+02  0.7816164E-02  0.1226708E+00
        -11   -1    0    0    0    0  0.00000000000E+00  0.00000000000E+00  0.45593999997E+02  0.45594000000E+02  0.51100000000E-03 0.  1.
         11   -1    0    0    0    0 -0.00000000000E+00 -0.00000000000E+00 -0.45593999997E+02  0.45594000000E+02  0.51100000000E-03 0. -1.
    9900012    2    1    2    0    0 -0.36675978473E+01  0.74133415781E+01  0.16800905210E+02  0.72461566191E+02  0.69999994655E+02 0.  0.
         12    1    1    2    0    0  0.36675978473E+01 -0.74133415781E+01 -0.16800905210E+02  0.18726433809E+02  0.00000000000E+00 0. -1.
         11    1    3    3    0    0 -0.21343258472E+02 -0.13032909577E+02  0.20322341129E+02  0.32224043251E+02  0.51100000000E-03 0. -1.
        -11    1    3    3    0    0  0.25573724271E+02  0.13699703516E+02 -0.58416109874E+01  0.29594284393E+02  0.51100000000E-03 0.  1.
        -12    1    3    3    0    0 -0.78980636469E+01  0.67465476395E+01  0.23201750683E+01  0.10643238547E+02  0.00000000000E+00 0.  1.
</event>
<event>
 7    1  0.1283194E-013  0.7246146E+02  0.7816164E-02  0.1226708E+00
        -11   -1    0    0    0    0  0.00000000000E+00  0.00000000000E+00  0.45593999997E+02  0.45594000000E+02  0.51100000000E-03 0.  1.
         11   -1    0    0    0    0 -0.00000000000E+00 -0.00000000000E+00 -0.45593999997E+02  0.45594000000E+02  0.51100000000E-03 0. -1.
    9900012    2    1    2    0    0  0.11875568236E+02 -0.52328990578E+01  0.13500769763E+02  0.72461464345E+02  0.69999861981E+02 0.  0.
         12    1    1    2    0    0 -0.11875568236E+02  0.52328990578E+01 -0.13500769763E+02  0.18726535655E+02  0.00000000000E+00 0. -1.
         11    1    3    3    0    0  0.33981828862E+01 -0.21720141417E+02  0.91302402839E+01  0.23804904494E+02  0.51100000000E-03 0. -1.
        -11    1    3    3    0    0  0.11693020892E+02  0.26519868227E+02 -0.10156584715E+02  0.30711339301E+02  0.51100000000E-03 0.  1.
        -12    1    3    3    0    0 -0.32156355431E+01 -0.10032625868E+02  0.14527114193E+02  0.17945220549E+02  0.00000000000E+00 0.  1.
</event>
<event>
 7    1  0.1283194E-013  0.7246166E+02  0.7816164E-02  0.1226708E+00
        -11   -1    0    0    0    0  0.00000000000E+00  0.00000000000E+00  0.45593999997E+02  0.45594000000E+02  0.51100000000E-03 0.  1.
         11   -1    0    0    0    0 -0.00000000000E+00 -0.00000000000E+00 -0.45593999997E+02  0.45594000000E+02  0.51100000000E-03 0. -1.
    9900012    2    1    2    0    0  0.92171874477E+01 -0.15123514708E+02  0.60826480781E+01  0.72461658947E+02  0.70000115487E+02 0.  0.
         12    1    1    2    0    0 -0.92171874477E+01  0.15123514708E+02 -0.60826480781E+01  0.18726341053E+02  0.00000000000E+00 0. -1.
         11    1    3    3    0    0  0.21953274654E+02 -0.15905393947E+02 -0.89682483617E+01  0.28554462061E+02  0.51100000000E-03 0. -1.
        -11    1    3    3    0    0  0.22004116709E+01  0.10498599056E+02  0.22240786035E+02  0.24692406877E+02  0.51100000000E-03 0.  1.
         12    1    3    3    0    0 -0.14936498877E+02 -0.97167198171E+01 -0.71898895958E+01  0.19214790009E+02  0.00000000000E+00 0. -1.
</event>
<event>
 7    1  0.1283194E-013  0.7246152E+02  0.7816164E-02  0.1226708E+00
        -11   -1    0    0    0    0  0.00000000000E+00  0.00000000000E+00  0.45593999997E+02  0.45594000000E+02  0.51100000000E-03 0.  1.
         11   -1    0    0    0    0 -0.00000000000E+00 -0.00000000000E+00 -0.45593999997E+02  0.45594000000E+02  0.51100000000E-03 0. -1.
    9900012    2    1    2    0    0 -0.82003377601E+01  0.15153027160E+02 -0.73362930542E+01  0.72461522294E+02  0.69999937471E+02 0.  0.
         12    1    1    2    0    0  0.82003377601E+01 -0.15153027160E+02  0.73362930542E+01  0.18726477706E+02  0.00000000000E+00 0. -1.
         11    1    3    3    0    0 -0.89080447599E-01  0.56917573072E+01 -0.23517437503E+02  0.24196568012E+02  0.51100000000E-03 0.  1.
        -11    1    3    3    0    0  0.87529962279E+01 -0.93276729889E+01  0.18953325585E+02  0.22865891134E+02  0.51100000000E-03 0. -1.
        -12    1    3    3    0    0 -0.16864253540E+02  0.18788942841E+02 -0.27721811357E+01  0.25399063148E+02  0.00000000000E+00 0.  1.
</event>
<event>
 7    1  0.1283194E-013  0.7246155E+02  0.7816164E-02  0.1226708E+00
        -11   -1    0    0    0    0  0.00000000000E+00  0.00000000000E+00  0.45593999997E+02  0.45594000000E+02  0.51100000000E-03 0.  1.
         11   -1    0    0    0    0 -0.00000000000E+00 -0.00000000000E+00 -0.45593999997E+02  0.45594000000E+02  0.51100000000E-03 0. -1.
    9900012    2    1    2    0    0 -0.15801415265E+02  0.85918661608E+00  0.10012848180E+02  0.72461546660E+02  0.69999969212E+02 0.  0.
         12    1    1    2    0    0  0.15801415265E+02 -0.85918661608E+00 -0.10012848180E+02  0.18726453340E+02  0.00000000000E+00 0. -1.
         11    1    3    3    0    0 -0.71063154325E+00  0.17234281671E+02 -0.21061178151E+02  0.27223127802E+02  0.51100000000E-03 0. -1.
        -11    1    3    3    0    0 -0.21232669492E+02 -0.87928953649E+01  0.23657538806E+02  0.32982122510E+02  0.51100000000E-03 0.  1.
         12    1    3    3    0    0  0.61418857708E+01 -0.75821996905E+01  0.74164875255E+01  0.12256296349E+02  0.00000000000E+00 0. -1.
</event>
<event>
 7    1  0.1283194E-013  0.7246158E+02  0.7816164E-02  0.1226708E+00
        -11   -1    0    0    0    0  0.00000000000E+00  0.00000000000E+00  0.45593999997E+02  0.45594000000E+02  0.51100000000E-03 0. -1.
         11   -1    0    0    0    0 -0.00000000000E+00 -0.00000000000E+00 -0.45593999997E+02  0.45594000000E+02  0.51100000000E-03 0.  1.
    9900012    2    1    2    0    0 -0.95650289305E+01 -0.25043844879E+01 -0.15903364141E+02  0.72461582534E+02  0.70000015945E+02 0.  0.
         12    1    1    2    0    0  0.95650289305E+01  0.25043844879E+01  0.15903364141E+02  0.18726417466E+02  0.00000000000E+00 0. -1.
         11    1    3    3    0    0 -0.15621139934E+02 -0.14005185410E+02  0.13076261904E+02  0.24721526184E+02  0.51100000000E-03 0.  1.
        -11    1    3    3    0    0  0.12555617690E+02  0.18719982227E+02 -0.68279652816E+01  0.23552120505E+02  0.51100000000E-03 0. -1.
        -12    1    3    3    0    0 -0.64995066859E+01 -0.72191813055E+01 -0.22151660763E+02  0.24187935845E+02  0.00000000000E+00 0.  1.
</event>
<event>
 7    1  0.1283194E-013  0.7246160E+02  0.7816164E-02  0.1226708E+00
        -11   -1    0    0    0    0  0.00000000000E+00  0.00000000000E+00  0.45593999997E+02  0.45594000000E+02  0.51100000000E-03 0. -1.
         11   -1    0    0    0    0 -0.00000000000E+00 -0.00000000000E+00 -0.45593999997E+02  0.45594000000E+02  0.51100000000E-03 0.  1.
    9900012    2    1    2    0    0  0.11625168823E+02  0.31239292338E+01 -0.14344848256E+02  0.72461597369E+02  0.70000035269E+02 0.  0.
         12    1    1    2    0    0 -0.11625168823E+02 -0.31239292338E+01  0.14344848256E+02  0.18726402631E+02  0.00000000000E+00 0. -1.
         11    1    3    3    0    0 -0.13685219783E+01  0.94880490228E+01 -0.29741492066E+02  0.31248236386E+02  0.51100000000E-03 0. -1.
        -11    1    3    3    0    0  0.21487602762E+02 -0.13566812994E+02  0.48410558407E+01  0.25869118832E+02  0.51100000000E-03 0.  1.
         12    1    3    3    0    0 -0.84939119599E+01  0.72026932048E+01  0.10555587970E+02  0.15344242150E+02  0.00000000000E+00 0. -1.
</event>
<event>
 7    1  0.1283194E-013  0.7246159E+02  0.7816164E-02  0.1226708E+00
        -11   -1    0    0    0    0  0.00000000000E+00  0.00000000000E+00  0.45593999997E+02  0.45594000000E+02  0.51100000000E-03 0.  1.
         11   -1    0    0    0    0 -0.00000000000E+00 -0.00000000000E+00 -0.45593999997E+02  0.45594000000E+02  0.51100000000E-03 0. -1.
    9900012    2    1    2    0    0 -0.11281889980E+02 -0.39617829545E+01  0.14411861302E+02  0.72461587853E+02  0.70000022874E+02 0.  0.
         12    1    1    2    0    0  0.11281889980E+02  0.39617829545E+01 -0.14411861302E+02  0.18726412147E+02  0.00000000000E+00 0. -1.
         11    1    3    3    0    0  0.50973181652E+01  0.12969336965E+02  0.29107189755E+02  0.32270959848E+02  0.51100000000E-03 0. -1.
        -11    1    3    3    0    0  0.57163557665E+01 -0.11757477899E+02 -0.11229778216E+02  0.17234353160E+02  0.51100000000E-03 0.  1.
         12    1    3    3    0    0 -0.22095563912E+02 -0.51736420208E+01 -0.34655502369E+01  0.22956274846E+02  0.00000000000E+00 0. -1.
</event>
<event>
 7    1  0.1283194E-013  0.7246155E+02  0.7816164E-02  0.1226708E+00
        -11   -1    0    0    0    0  0.00000000000E+00  0.00000000000E+00  0.45593999997E+02  0.45594000000E+02  0.51100000000E-03 0.  1.
         11   -1    0    0    0    0 -0.00000000000E+00 -0.00000000000E+00 -0.45593999997E+02  0.45594000000E+02  0.51100000000E-03 0. -1.
    9900012    2    1    2    0    0  0.34555198437E+01  0.15539374379E+02  0.98624202012E+01  0.72461545298E+02  0.69999967438E+02 0.  0.
         12    1    1    2    0    0 -0.34555198437E+01 -0.15539374379E+02 -0.98624202012E+01  0.18726454702E+02  0.00000000000E+00 0. -1.
         11    1    3    3    0    0  0.83070580243E+01  0.40782694169E+02 -0.55199962953E+01  0.41984589031E+02  0.51100000000E-03 0. -1.
        -11    1    3    3    0    0 -0.44270910523E+01 -0.18645329203E+02  0.13972618565E+02  0.23716692562E+02  0.51100000000E-03 0.  1.
         12    1    3    3    0    0 -0.42444712828E+00 -0.65979905874E+01  0.14097979320E+01  0.67602637053E+01  0.00000000000E+00 0. -1.
</event>
<event>
 7    1  0.1283194E-013  0.7246157E+02  0.7816164E-02  0.1226708E+00
        -11   -1    0    0    0    0  0.00000000000E+00  0.00000000000E+00  0.45593999997E+02  0.45594000000E+02  0.51100000000E-03 0.  1.
         11   -1    0    0    0    0 -0.00000000000E+00 -0.00000000000E+00 -0.45593999997E+02  0.45594000000E+02  0.51100000000E-03 0. -1.
    9900012    2    1    2    0    0  0.26950956188E+01 -0.46140725422E+01  0.17947866592E+02  0.72461571589E+02  0.70000001686E+02 0.  0.
         12    1    1    2    0    0 -0.26950956188E+01  0.46140725422E+01 -0.17947866592E+02  0.18726428411E+02  0.00000000000E+00 0. -1.
         11    1    3    3    0    0  0.74783690716E+01 -0.97824280453E+01 -0.70692497210E+01  0.14198457462E+02  0.51100000000E-03 0. -1.
        -11    1    3    3    0    0 -0.20977147779E+01 -0.17836622083E+02  0.29629087557E+02  0.34647197929E+02  0.51100000000E-03 0.  1.
        -12    1    3    3    0    0 -0.26855586749E+01  0.23004977586E+02 -0.46119712433E+01  0.23615916198E+02  0.00000000000E+00 0.  1.
</event>
<event>
 7    1  0.1283194E-013  0.7246157E+02  0.7816164E-02  0.1226708E+00
        -11   -1    0    0    0    0  0.00000000000E+00  0.00000000000E+00  0.45593999997E+02  0.45594000000E+02  0.51100000000E-03 0.  1.
         11   -1    0    0    0    0 -0.00000000000E+00 -0.00000000000E+00 -0.45593999997E+02  0.45594000000E+02  0.51100000000E-03 0. -1.
    9900012    2    1    2    0    0 -0.17120203896E+02 -0.12028062751E+01  0.74920581781E+01  0.72461573216E+02  0.70000003805E+02 0.  0.
         12    1    1    2    0    0  0.17120203896E+02  0.12028062751E+01 -0.74920581781E+01  0.18726426784E+02  0.00000000000E+00 0. -1.
         11    1    3    3    0    0 -0.81054456287E+01 -0.23520720051E+02  0.16796208731E+02  0.30017247518E+02  0.51100000000E-03 0. -1.
        -11    1    3    3    0    0 -0.23356153714E+01  0.18182681251E+02  0.10509016984E+02  0.21130651549E+02  0.51100000000E-03 0.  1.
         12    1    3    3    0    0 -0.66791428956E+01  0.41352325247E+01 -0.19813167537E+02  0.21313674149E+02  0.00000000000E+00 0. -1.
</event>
<event>
 7    1  0.1283194E-013  0.7246158E+02  0.7816164E-02  0.1226708E+00
        -11   -1    0    0    0    0  0.00000000000E+00  0.00000000000E+00  0.45593999997E+02  0.45594000000E+02  0.51100000000E-03 0. -1.
         11   -1    0    0    0    0 -0.00000000000E+00 -0.00000000000E+00 -0.45593999997E+02  0.45594000000E+02  0.51100000000E-03 0.  1.
    9900012    2    1    2    0    0 -0.10365715785E+02 -0.13196348771E+02 -0.83118697948E+01  0.72461578449E+02  0.70000010623E+02 0.  0.
         12    1    1    2    0    0  0.10365715785E+02  0.13196348771E+02  0.83118697948E+01  0.18726421551E+02  0.00000000000E+00 0. -1.
         11    1    3    3    0    0  0.70414360326E+01  0.90220126581E+01 -0.30152107604E+02  0.32251017457E+02  0.51100000000E-03 0.  1.
        -11    1    3    3    0    0 -0.20206434689E+01 -0.11041879335E+02  0.17359276752E+02  0.20672459672E+02  0.51100000000E-03 0. -1.
        -12    1    3    3    0    0 -0.15386508349E+02 -0.11176482094E+02  0.44809610574E+01  0.19538101319E+02  0.00000000000E+00 0.  1.
</event>
<event>
 7    1  0.1283194E-013  0.7246156E+02  0.7816164E-02  0.1226708E+00
        -11   -1    0    0    0    0  0.00000000000E+00  0.00000000000E+00  0.45593999997E+02  0.45594000000E+02  0.51100000000E-03 0.  1.
         11   -1    0    0    0    0 -0.00000000000E+00 -0.00000000000E+00 -0.45593999997E+02  0.45594000000E+02  0.51100000000E-03 0. -1.
    9900012    2    1    2    0    0  0.10064068799E+02  0.10391931005E+02 -0.11891257553E+02  0.72461555677E+02  0.69999980958E+02 0.  0.
         12    1    1    2    0    0 -0.10064068799E+02 -0.10391931005E+02  0.11891257553E+02  0.18726444323E+02  0.00000000000E+00 0. -1.
         11    1    3    3    0    0 -0.15431011943E+02 -0.80372645862E+01  0.18668740506E+02  0.25519318642E+02  0.51100000000E-03 0. -1.
        -11    1    3    3    0    0  0.59478000334E+01  0.19215327727E+01 -0.16727688868E+02  0.17857328707E+02  0.51100000000E-03 0.  1.
         12    1    3    3    0    0  0.19547280708E+02  0.16507662819E+02 -0.13832309192E+02  0.29084908327E+02  0.00000000000E+00 0. -1.
</event>
<event>
 7    1  0.1283194E-013  0.7246085E+02  0.7816164E-02  0.1226710E+00
        -11   -1    0    0    0    0  0.00000000000E+00  0.00000000000E+00  0.45593999997E+02  0.45594000000E+02  0.51100000000E-03 0. -1.
         11   -1    0    0    0    0 -0.00000000000E+00 -0.00000000000E+00 -0.45593999997E+02  0.45594000000E+02  0.51100000000E-03 0.  1.
    9900012    2    1    2    0    0  0.13716694990E+01  0.18656290281E+02  0.87613712836E+00  0.72460846972E+02  0.69999057732E+02 0.  0.
         12    1    1    2    0    0 -0.13716694990E+01 -0.18656290281E+02 -0.87613712836E+00  0.18727153028E+02  0.00000000000E+00 0. -1.
         11    1    3    3    0    0 -0.32774291557E+01 -0.46192943103E+01  0.26191588776E+02  0.26796991336E+02  0.51100000000E-03 0. -1.
        -11    1    3    3    0    0  0.56447050670E+01  0.30120068332E+02 -0.17752572115E+02  0.35415180764E+02  0.51100000000E-03 0.  1.
        -12    1    3    3    0    0 -0.99560641230E+00 -0.68444837403E+01 -0.75628795323E+01  0.10248674871E+02  0.00000000000E+00 0.  1.
</event>
<event>
 7    1  0.1283194E-013  0.7246157E+02  0.7816164E-02  0.1226708E+00
        -11   -1    0    0    0    0  0.00000000000E+00  0.00000000000E+00  0.45593999997E+02  0.45594000000E+02  0.51100000000E-03 0. -1.
         11   -1    0    0    0    0 -0.00000000000E+00 -0.00000000000E+00 -0.45593999997E+02  0.45594000000E+02  0.51100000000E-03 0.  1.
    9900012    2    1    2    0    0  0.16664712982E+01  0.17778500360E+02 -0.56415511867E+01  0.72461566772E+02  0.69999995412E+02 0.  0.
         12    1    1    2    0    0 -0.16664712982E+01 -0.17778500360E+02  0.56415511867E+01  0.18726433228E+02  0.00000000000E+00 0. -1.
         11    1    3    3    0    0 -0.47476658613E+01 -0.88504726836E+01  0.11402564758E+00  0.10044112702E+02  0.51100000000E-03 0. -1.
        -11    1    3    3    0    0  0.12745580980E+02  0.22312245769E+02  0.21873640316E+02  0.33745255766E+02  0.51100000000E-03 0.  1.
        -12    1    3    3    0    0 -0.63314438208E+01  0.43167272747E+01 -0.27629217151E+02  0.28672198304E+02  0.00000000000E+00 0.  1.
</event>
<event>
 7    1  0.1283194E-013  0.7246156E+02  0.7816164E-02  0.1226708E+00
        -11   -1    0    0    0    0  0.00000000000E+00  0.00000000000E+00  0.45593999997E+02  0.45594000000E+02  0.51100000000E-03 0. -1.
         11   -1    0    0    0    0 -0.00000000000E+00 -0.00000000000E+00 -0.45593999997E+02  0.45594000000E+02  0.51100000000E-03 0.  1.
    9900012    2    1    2    0    0 -0.26186182957E+01 -0.31717565509E+01 -0.18269169105E+02  0.72461555031E+02  0.69999980117E+02 0.  0.
         12    1    1    2    0    0  0.26186182957E+01  0.31717565509E+01  0.18269169105E+02  0.18726444969E+02  0.00000000000E+00 0. -1.
         11    1    3    3    0    0 -0.23276195883E+02  0.21913052309E+02 -0.53425818175E+01  0.32411515500E+02  0.51100000000E-03 0. -1.
        -11    1    3    3    0    0  0.14466690687E+02 -0.37451104376E+01 -0.91200724693E+01  0.17506761943E+02  0.51100000000E-03 0.  1.
         12    1    3    3    0    0  0.61908868996E+01 -0.21339698422E+02 -0.38065148181E+01  0.22543277588E+02  0.00000000000E+00 0. -1.
</event>
<event>
 7    1  0.1283194E-013  0.7246133E+02  0.7816164E-02  0.1226709E+00
        -11   -1    0    0    0    0  0.00000000000E+00  0.00000000000E+00  0.45593999997E+02  0.45594000000E+02  0.51100000000E-03 0.  1.
         11   -1    0    0    0    0 -0.00000000000E+00 -0.00000000000E+00 -0.45593999997E+02  0.45594000000E+02  0.51100000000E-03 0. -1.
    9900012    2    1    2    0    0 -0.83260733445E+01  0.77921497100E+01  0.14854187594E+02  0.72461334960E+02  0.69999693432E+02 0.  0.
         12    1    1    2    0    0  0.83260733445E+01 -0.77921497100E+01 -0.14854187594E+02  0.18726665040E+02  0.00000000000E+00 0. -1.
         11    1    3    3    0    0 -0.15074577590E+02 -0.18932719521E+02 -0.18183574974E+01  0.24269264147E+02  0.51100000000E-03 0. -1.
        -11    1    3    3    0    0 -0.40584962815E+01  0.30780751958E+02  0.44227643599E+01  0.31360595148E+02  0.51100000000E-03 0.  1.
        -12    1    3    3    0    0  0.10807000527E+02 -0.40558827272E+01  0.12249780732E+02  0.16831475665E+02  0.00000000000E+00 0.  1.
</event>
<event>
 7    1  0.1283194E-013  0.7246153E+02  0.7816164E-02  0.1226708E+00
        -11   -1    0    0    0    0  0.00000000000E+00  0.00000000000E+00  0.45593999997E+02  0.45594000000E+02  0.51100000000E-03 0.  1.
         11   -1    0    0    0    0 -0.00000000000E+00 -0.00000000000E+00 -0.45593999997E+02  0.45594000000E+02  0.51100000000E-03 0. -1.
    9900012    2    1    2    0    0  0.11761956358E+02 -0.89546079720E+01  0.11495739558E+02  0.72461530784E+02  0.69999948531E+02 0.  0.
         12    1    1    2    0    0 -0.11761956358E+02  0.89546079720E+01 -0.11495739558E+02  0.18726469216E+02  0.00000000000E+00 0. -1.
         11    1    3    3    0    0 -0.77612948665E+00  0.17956513452E+02  0.77843592467E+01  0.19586602601E+02  0.51100000000E-03 0. -1.
        -11    1    3    3    0    0  0.10985805793E+02 -0.21666604322E+02  0.22618711408E+02  0.33192405424E+02  0.51100000000E-03 0.  1.
        -12    1    3    3    0    0  0.15522800515E+01 -0.52445171014E+01 -0.18907331097E+02  0.19682522760E+02  0.00000000000E+00 0.  1.
</event>
<event>
 7    1  0.1283194E-013  0.7246170E+02  0.7816164E-02  0.1226708E+00
        -11   -1    0    0    0    0  0.00000000000E+00  0.00000000000E+00  0.45593999997E+02  0.45594000000E+02  0.51100000000E-03 0. -1.
         11   -1    0    0    0    0 -0.00000000000E+00 -0.00000000000E+00 -0.45593999997E+02  0.45594000000E+02  0.51100000000E-03 0.  1.
    9900012    2    1    2    0    0  0.26417005563E+01  0.83358600490E+01 -0.16559263775E+02  0.72461698674E+02  0.70000167238E+02 0.  0.
         12    1    1    2    0    0 -0.26417005563E+01 -0.83358600490E+01  0.16559263775E+02  0.18726301326E+02  0.00000000000E+00 0. -1.
         11    1    3    3    0    0  0.36349552913E+01 -0.92654218645E+01 -0.54713687165E+01  0.11357676619E+02  0.51100000000E-03 0. -1.
        -11    1    3    3    0    0 -0.61638321238E+01  0.30807219982E+02 -0.25811569184E+02  0.40660973100E+02  0.51100000000E-03 0.  1.
        -12    1    3    3    0    0  0.51705773888E+01 -0.13205938068E+02  0.14723674126E+02  0.20443048955E+02  0.00000000000E+00 0.  1.
</event>
<event>
 7    1  0.1283194E-013  0.7246151E+02  0.7816164E-02  0.1226708E+00
        -11   -1    0    0    0    0  0.00000000000E+00  0.00000000000E+00  0.45593999997E+02  0.45594000000E+02  0.51100000000E-03 0.  1.
         11   -1    0    0    0    0 -0.00000000000E+00 -0.00000000000E+00 -0.45593999997E+02  0.45594000000E+02  0.51100000000E-03 0. -1.
    9900012    2    1    2    0    0 -0.38252852676E+01  0.16514421136E+02  0.79575445858E+01  0.72461509974E+02  0.69999921422E+02 0.  0.
         12    1    1    2    0    0  0.38252852676E+01 -0.16514421136E+02 -0.79575445858E+01  0.18726490026E+02  0.00000000000E+00 0. -1.
         11    1    3    3    0    0  0.23721836318E+02 -0.13975005343E+01 -0.74454809550E+01  0.24902082502E+02  0.51100000000E-03 0.  1.
        -11    1    3    3    0    0 -0.32822228525E+00  0.17765978454E+02  0.56523719035E+01  0.18646367708E+02  0.51100000000E-03 0. -1.
         12    1    3    3    0    0 -0.27218899300E+02  0.14594321627E+00  0.97506536372E+01  0.28913059764E+02  0.00000000000E+00 0. -1.
</event>
<event>
 7    1  0.1283194E-013  0.7246155E+02  0.7816164E-02  0.1226708E+00
        -11   -1    0    0    0    0  0.00000000000E+00  0.00000000000E+00  0.45593999997E+02  0.45594000000E+02  0.51100000000E-03 0.  1.
         11   -1    0    0    0    0 -0.00000000000E+00 -0.00000000000E+00 -0.45593999997E+02  0.45594000000E+02  0.51100000000E-03 0. -1.
    9900012    2    1    2    0    0 -0.17189261547E+02 -0.73556728835E+01 -0.10502947063E+01  0.72461554660E+02  0.69999979633E+02 0.  0.
         12    1    1    2    0    0  0.17189261547E+02  0.73556728835E+01  0.10502947063E+01  0.18726445340E+02  0.00000000000E+00 0. -1.
         11    1    3    3    0    0 -0.13478725316E+02 -0.85280240504E+01 -0.55319897546E+01  0.16882124904E+02  0.51100000000E-03 0. -1.
        -11    1    3    3    0    0  0.99685749224E+01 -0.72068362221E+01  0.25986382666E+02  0.28750705359E+02  0.51100000000E-03 0.  1.
        -12    1    3    3    0    0 -0.13679111153E+02  0.83791873891E+01 -0.21504687618E+02  0.26828724397E+02  0.00000000000E+00 0.  1.
</event>
<event>
 7    1  0.1283194E-013  0.7246161E+02  0.7816164E-02  0.1226708E+00
        -11   -1    0    0    0    0  0.00000000000E+00  0.00000000000E+00  0.45593999997E+02  0.45594000000E+02  0.51100000000E-03 0.  1.
         11   -1    0    0    0    0 -0.00000000000E+00 -0.00000000000E+00 -0.45593999997E+02  0.45594000000E+02  0.51100000000E-03 0. -1.
    9900012    2    1    2    0    0  0.17990009474E+02 -0.24655451543E+01 -0.45780383928E+01  0.72461607147E+02  0.70000048007E+02 0.  0.
         12    1    1    2    0    0 -0.17990009474E+02  0.24655451543E+01  0.45780383928E+01  0.18726392853E+02  0.00000000000E+00 0. -1.
         11    1    3    3    0    0  0.17536109522E+02 -0.51083208284E+01  0.20408669671E+02  0.27388389453E+02  0.51100000000E-03 0.  1.
        -11    1    3    3    0    0  0.18883031932E+02  0.95351101342E+00 -0.14270586474E+02  0.23688134514E+02  0.51100000000E-03 0. -1.
         12    1    3    3    0    0 -0.18429131980E+02  0.16892646606E+01 -0.10716121590E+02  0.21385083179E+02  0.00000000000E+00 0. -1.
</event>
<event>
 7    1  0.1283194E-013  0.7246137E+02  0.7816164E-02  0.1226709E+00
        -11   -1    0    0    0    0  0.00000000000E+00  0.00000000000E+00  0.45593999997E+02  0.45594000000E+02  0.51100000000E-03 0. -1.
         11   -1    0    0    0    0 -0.00000000000E+00 -0.00000000000E+00 -0.45593999997E+02  0.45594000000E+02  0.51100000000E-03 0.  1.
    9900012    2    1    2    0    0  0.11848289068E+02  0.90664530124E+01 -0.11318314364E+02  0.72461367518E+02  0.69999735846E+02 0.  0.
         12    1    1    2    0    0 -0.11848289068E+02 -0.90664530124E+01  0.11318314364E+02  0.18726632482E+02  0.00000000000E+00 0. -1.
         11    1    3    3    0    0 -0.24053896443E+02 -0.18948897610E+01  0.12547363008E+02  0.27195897852E+02  0.51100000000E-03 0. -1.
        -11    1    3    3    0    0  0.16422817581E+02  0.93884294772E+01 -0.12027574944E+02  0.22416826373E+02  0.51100000000E-03 0.  1.
         12    1    3    3    0    0  0.19479367930E+02  0.15729132962E+01 -0.11838102428E+02  0.22848643292E+02  0.00000000000E+00 0. -1.
</event>
<event>
 7    1  0.1283194E-013  0.7246158E+02  0.7816164E-02  0.1226708E+00
        -11   -1    0    0    0    0  0.00000000000E+00  0.00000000000E+00  0.45593999997E+02  0.45594000000E+02  0.51100000000E-03 0. -1.
         11   -1    0    0    0    0 -0.00000000000E+00 -0.00000000000E+00 -0.45593999997E+02  0.45594000000E+02  0.51100000000E-03 0.  1.
    9900012    2    1    2    0    0 -0.15467491562E+02  0.10532842387E+02 -0.70330464707E+00  0.72461582793E+02  0.70000016282E+02 0.  0.
         12    1    1    2    0    0  0.15467491562E+02 -0.10532842387E+02  0.70330464707E+00  0.18726417207E+02  0.00000000000E+00 0. -1.
         11    1    3    3    0    0 -0.46266445983E+00  0.72769778981E+01 -0.84662786902E+00  0.73406569694E+01  0.51100000000E-03 0. -1.
        -11    1    3    3    0    0 -0.56123668618E+01 -0.23751959287E+02 -0.18811651311E+02  0.30814484534E+02  0.51100000000E-03 0.  1.
        -12    1    3    3    0    0 -0.93924602405E+01  0.27007823775E+02  0.18954974533E+02  0.34306441290E+02  0.00000000000E+00 0.  1.
</event>
<event>
 7    1  0.1283194E-013  0.7246161E+02  0.7816164E-02  0.1226708E+00
        -11   -1    0    0    0    0  0.00000000000E+00  0.00000000000E+00  0.45593999997E+02  0.45594000000E+02  0.51100000000E-03 0.  1.
         11   -1    0    0    0    0 -0.00000000000E+00 -0.00000000000E+00 -0.45593999997E+02  0.45594000000E+02  0.51100000000E-03 0. -1.
    9900012    2    1    2    0    0  0.14358414169E+02  0.28651865800E+01  0.11674952371E+02  0.72461605140E+02  0.70000045393E+02 0.  0.
         12    1    1    2    0    0 -0.14358414169E+02 -0.28651865800E+01 -0.11674952371E+02  0.18726394860E+02  0.00000000000E+00 0. -1.
         11    1    3    3    0    0  0.23744846444E+02  0.15613431468E+02 -0.96331815081E+01  0.30006585296E+02  0.51100000000E-03 0. -1.
        -11    1    3    3    0    0 -0.69172157922E+01 -0.16346988973E+02 -0.27870705921E+01  0.17967740135E+02  0.51100000000E-03 0.  1.
         12    1    3    3    0    0 -0.24692164828E+01  0.35987440853E+01  0.24095204472E+02  0.24487279709E+02  0.00000000000E+00 0. -1.
</event>
<event>
 7    1  0.1283194E-013  0.7246161E+02  0.7816164E-02  0.1226708E+00
        -11   -1    0    0    0    0  0.00000000000E+00  0.00000000000E+00  0.45593999997E+02  0.45594000000E+02  0.51100000000E-03 0.  1.
         11   -1    0    0    0    0 -0.00000000000E+00 -0.00000000000E+00 -0.45593999997E+02  0.45594000000E+02  0.51100000000E-03 0. -1.
    9900012    2    1    2    0    0  0.79038417939E+01 -0.27658457508E+01  0.16749833011E+02  0.72461614238E+02  0.70000057245E+02 0.  0.
         12    1    1    2    0    0 -0.79038417939E+01  0.27658457508E+01 -0.16749833011E+02  0.18726385762E+02  0.00000000000E+00 0. -1.
         11    1    3    3    0    0  0.50775167617E+01 -0.11999623676E+02 -0.15732350548E+02  0.20427408031E+02  0.51100000000E-03 0. -1.
        -11    1    3    3    0    0 -0.13739243360E+02 -0.60426683225E+01  0.23268010616E+02  0.27689004440E+02  0.51100000000E-03 0.  1.
        -12    1    3    3    0    0  0.16565568392E+02  0.15276446248E+02  0.92141729418E+01  0.24345201768E+02  0.00000000000E+00 0.  1.
</event>
<event>
 7    1  0.1283194E-013  0.7246150E+02  0.7816164E-02  0.1226708E+00
        -11   -1    0    0    0    0  0.00000000000E+00  0.00000000000E+00  0.45593999997E+02  0.45594000000E+02  0.51100000000E-03 0.  1.
         11   -1    0    0    0    0 -0.00000000000E+00 -0.00000000000E+00 -0.45593999997E+02  0.45594000000E+02  0.51100000000E-03 0. -1.
    9900012    2    1    2    0    0 -0.52593867028E+01 -0.13569106556E+02  0.11785584048E+02  0.72461500258E+02  0.69999908765E+02 0.  0.
         12    1    1    2    0    0  0.52593867028E+01  0.13569106556E+02 -0.11785584048E+02  0.18726499742E+02  0.00000000000E+00 0. -1.
         11    1    3    3    0    0 -0.18868907795E+02 -0.16423184164E+02  0.14273708736E+02  0.28800962150E+02  0.51100000000E-03 0. -1.
        -11    1    3    3    0    0  0.13149349830E+02 -0.63403046414E+01 -0.19475378850E+02  0.24339171011E+02  0.51100000000E-03 0.  1.
        -12    1    3    3    0    0  0.46017126161E+00  0.91943822489E+01  0.16987254162E+02  0.19321367097E+02  0.00000000000E+00 0.  1.
</event>
<event>
 7    1  0.1283194E-013  0.7246157E+02  0.7816164E-02  0.1226708E+00
        -11   -1    0    0    0    0  0.00000000000E+00  0.00000000000E+00  0.45593999997E+02  0.45594000000E+02  0.51100000000E-03 0.  1.
         11   -1    0    0    0    0 -0.00000000000E+00 -0.00000000000E+00 -0.45593999997E+02  0.45594000000E+02  0.51100000000E-03 0. -1.
    9900012    2    1    2    0    0 -0.12661025387E+02 -0.23926594862E+01  0.13588697678E+02  0.72461572474E+02  0.70000002840E+02 0.  0.
         12    1    1    2    0    0  0.12661025387E+02  0.23926594862E+01 -0.13588697678E+02  0.18726427526E+02  0.00000000000E+00 0. -1.
         11    1    3    3    0    0 -0.41529449162E+01 -0.50843952635E+01 -0.39812682559E+01  0.76777942053E+01  0.51100000000E-03 0. -1.
        -11    1    3    3    0    0  0.24970205544E+02  0.11760013534E+02  0.93137190080E+01  0.29129957866E+02  0.51100000000E-03 0.  1.
        -12    1    3    3    0    0 -0.33478286016E+02 -0.90682777568E+01  0.82562469263E+01  0.35653820403E+02  0.00000000000E+00 0.  1.
</event>
<event>
 7    1  0.1283194E-013  0.7246157E+02  0.7816164E-02  0.1226708E+00
        -11   -1    0    0    0    0  0.00000000000E+00  0.00000000000E+00  0.45593999997E+02  0.45594000000E+02  0.51100000000E-03 0.  1.
         11   -1    0    0    0    0 -0.00000000000E+00 -0.00000000000E+00 -0.45593999997E+02  0.45594000000E+02  0.51100000000E-03 0. -1.
    9900012    2    1    2    0    0 -0.12207693829E+02  0.13437787263E+02  0.45909854505E+01  0.72461573150E+02  0.70000003720E+02 0.  0.
         12    1    1    2    0    0  0.12207693829E+02 -0.13437787263E+02 -0.45909854505E+01  0.18726426850E+02  0.00000000000E+00 0. -1.
         11    1    3    3    0    0  0.16304048684E+02 -0.85343563382E+01  0.37542314298E+01  0.18781679784E+02  0.51100000000E-03 0. -1.
        -11    1    3    3    0    0 -0.33588296810E+02  0.17453692050E+02  0.12768854699E+02  0.39948075040E+02  0.51100000000E-03 0.  1.
        -12    1    3    3    0    0  0.50765542965E+01  0.45184515514E+01 -0.11932100679E+02  0.13731818326E+02  0.00000000000E+00 0.  1.
</event>
<event>
 7    1  0.1283194E-013  0.7246158E+02  0.7816164E-02  0.1226708E+00
        -11   -1    0    0    0    0  0.00000000000E+00  0.00000000000E+00  0.45593999997E+02  0.45594000000E+02  0.51100000000E-03 0.  1.
         11   -1    0    0    0    0 -0.00000000000E+00 -0.00000000000E+00 -0.45593999997E+02  0.45594000000E+02  0.51100000000E-03 0. -1.
    9900012    2    1    2    0    0 -0.41927527667E+01  0.99866939108E+01  0.15276302302E+02  0.72461584351E+02  0.70000018311E+02 0.  0.
         12    1    1    2    0    0  0.41927527667E+01 -0.99866939108E+01 -0.15276302302E+02  0.18726415649E+02  0.00000000000E+00 0. -1.
         11    1    3    3    0    0 -0.29263059371E+02  0.15958851072E+02 -0.30492039074E+01  0.33471020541E+02  0.51100000000E-03 0. -1.
        -11    1    3    3    0    0  0.17673332811E+02  0.62163279443E+01  0.15807303923E+02  0.24512451598E+02  0.51100000000E-03 0.  1.
         12    1    3    3    0    0  0.73969737937E+01 -0.12188485106E+02  0.25182022864E+01  0.14478112212E+02  0.00000000000E+00 0. -1.
</event>
<event>
 7    1  0.1283194E-013  0.7246175E+02  0.7816164E-02  0.1226708E+00
        -11   -1    0    0    0    0  0.00000000000E+00  0.00000000000E+00  0.45593999997E+02  0.45594000000E+02  0.51100000000E-03 0.  1.
         11   -1    0    0    0    0 -0.00000000000E+00 -0.00000000000E+00 -0.45593999997E+02  0.45594000000E+02  0.51100000000E-03 0. -1.
    9900012    2    1    2    0    0 -0.12318900183E+01 -0.84641919476E+01  0.16658696050E+02  0.72461754983E+02  0.70000240591E+02 0.  0.
         12    1    1    2    0    0  0.12318900183E+01  0.84641919476E+01 -0.16658696050E+02  0.18726245017E+02  0.00000000000E+00 0. -1.
         11    1    3    3    0    0  0.28080319302E+02 -0.17027817732E+02  0.11719998982E+02  0.34868456880E+02  0.51100000000E-03 0. -1.
        -11    1    3    3    0    0 -0.17689162981E+02  0.10946234451E+02  0.11771449764E+02  0.23901748166E+02  0.51100000000E-03 0.  1.
         12    1    3    3    0    0 -0.11623046339E+02 -0.23826086660E+01 -0.68327526953E+01  0.13691549936E+02  0.00000000000E+00 0. -1.
</event>
<event>
 7    1  0.1283194E-013  0.7246165E+02  0.7816164E-02  0.1226708E+00
        -11   -1    0    0    0    0  0.00000000000E+00  0.00000000000E+00  0.45593999997E+02  0.45594000000E+02  0.51100000000E-03 0.  1.
         11   -1    0    0    0    0 -0.00000000000E+00 -0.00000000000E+00 -0.45593999997E+02  0.45594000000E+02  0.51100000000E-03 0. -1.
    9900012    2    1    2    0    0 -0.18630291883E+02 -0.15960437664E+01 -0.10202596307E+01  0.72461653291E+02  0.70000108119E+02 0.  0.
         12    1    1    2    0    0  0.18630291883E+02  0.15960437664E+01  0.10202596307E+01  0.18726346709E+02  0.00000000000E+00 0. -1.
         11    1    3    3    0    0 -0.54570160661E+01 -0.15467387955E+02 -0.25074210385E+02  0.29962228575E+02  0.51100000000E-03 0. -1.
        -11    1    3    3    0    0 -0.18488551270E+02  0.88234975838E+01  0.27587396397E+02  0.34361971392E+02  0.51100000000E-03 0.  1.
        -12    1    3    3    0    0  0.53152754537E+01  0.50478466047E+01 -0.35334456433E+01  0.81374533245E+01  0.00000000000E+00 0.  1.
</event>
<event>
 7    1  0.1283194E-013  0.7246148E+02  0.7816164E-02  0.1226708E+00
        -11   -1    0    0    0    0  0.00000000000E+00  0.00000000000E+00  0.45593999997E+02  0.45594000000E+02  0.51100000000E-03 0.  1.
         11   -1    0    0    0    0 -0.00000000000E+00 -0.00000000000E+00 -0.45593999997E+02  0.45594000000E+02  0.51100000000E-03 0. -1.
    9900012    2    1    2    0    0 -0.12649975043E+02 -0.13732820896E+02 -0.14388408608E+01  0.72461481333E+02  0.69999884111E+02 0.  0.
         12    1    1    2    0    0  0.12649975043E+02  0.13732820896E+02  0.14388408608E+01  0.18726518667E+02  0.00000000000E+00 0. -1.
         11    1    3    3    0    0  0.10852288421E+02 -0.83789077751E+01  0.11924470091E+02  0.18170614923E+02  0.51100000000E-03 0. -1.
        -11    1    3    3    0    0 -0.26132205492E+02 -0.20420606614E+02 -0.18722694056E+02  0.38084545571E+02  0.51100000000E-03 0.  1.
        -12    1    3    3    0    0  0.26299420272E+01  0.15066693493E+02  0.53593831040E+01  0.16206320839E+02  0.00000000000E+00 0.  1.
</event>
<event>
 7    1  0.1283194E-013  0.7246156E+02  0.7816164E-02  0.1226708E+00
        -11   -1    0    0    0    0  0.00000000000E+00  0.00000000000E+00  0.45593999997E+02  0.45594000000E+02  0.51100000000E-03 0. -1.
         11   -1    0    0    0    0 -0.00000000000E+00 -0.00000000000E+00 -0.45593999997E+02  0.45594000000E+02  0.51100000000E-03 0.  1.
    9900012    2    1    2    0    0  0.18084510721E+02 -0.16399893020E+01 -0.45760944039E+01  0.72461555252E+02  0.69999980404E+02 0.  0.
         12    1    1    2    0    0 -0.18084510721E+02  0.16399893020E+01  0.45760944039E+01  0.18726444748E+02  0.00000000000E+00 0. -1.
         11    1    3    3    0    0  0.19481938435E+02 -0.25006880627E+02  0.16780303184E+02  0.35867374857E+02  0.51100000000E-03 0. -1.
        -11    1    3    3    0    0 -0.18496358283E+01  0.91388749878E+01  0.17188764153E+01  0.94812828843E+01  0.51100000000E-03 0.  1.
         12    1    3    3    0    0  0.45220811375E+00  0.14228016338E+02 -0.23075274003E+02  0.27112897510E+02  0.00000000000E+00 0. -1.
</event>
<event>
 7    1  0.1283194E-013  0.7246158E+02  0.7816164E-02  0.1226708E+00
        -11   -1    0    0    0    0  0.00000000000E+00  0.00000000000E+00  0.45593999997E+02  0.45594000000E+02  0.51100000000E-03 0.  1.
         11   -1    0    0    0    0 -0.00000000000E+00 -0.00000000000E+00 -0.45593999997E+02  0.45594000000E+02  0.51100000000E-03 0. -1.
    9900012    2    1    2    0    0 -0.16482615085E+02 -0.40342414465E+01  0.79200532924E+01  0.72461576203E+02  0.70000007697E+02 0.  0.
         12    1    1    2    0    0  0.16482615085E+02  0.40342414465E+01 -0.79200532924E+01  0.18726423797E+02  0.00000000000E+00 0. -1.
         11    1    3    3    0    0  0.79481121554E+01 -0.16335424035E+02 -0.10714380078E+02  0.21090673435E+02  0.51100000000E-03 0. -1.
        -11    1    3    3    0    0 -0.21764346622E+02 -0.35442184237E+01  0.25660662141E+02  0.33833679225E+02  0.51100000000E-03 0.  1.
        -12    1    3    3    0    0 -0.26663806181E+01  0.15845401012E+02 -0.70262287708E+01  0.17537223542E+02  0.00000000000E+00 0.  1.
</event>
<event>
 8    1  0.1283194E-013  0.7246163E+02  0.7816164E-02  0.1226708E+00
        -11   -1    0    0    0    0  0.00000000000E+00  0.00000000000E+00  0.45593999997E+02  0.45594000000E+02  0.51100000000E-03 0. -1.
         11   -1    0    0    0    0 -0.00000000000E+00 -0.00000000000E+00 -0.45593999997E+02  0.45594000000E+02  0.51100000000E-03 0.  1.
    9900012    2    1    2    0    0 -0.48508404051E+01  0.15493456024E+02 -0.93326873421E+01  0.72461631286E+02  0.70000079452E+02 0.  0.
         24    2    3    3    0    0  0.80672674766E+01 -0.16235076339E+01 -0.65333938973E+01  0.50835166013E+02  0.49737433450E+02 0.  0.
         12    1    1    2    0    0  0.48508404051E+01 -0.15493456024E+02  0.93326873421E+01  0.18726368714E+02  0.00000000000E+00 0. -1.
         11    1    3    3    0    0 -0.12918107882E+02  0.17116963658E+02 -0.27992934448E+01  0.21626465272E+02  0.51100000000E-03 0. -1.
        -11    1    4    4    0    0  0.22749993168E+02 -0.12810579120E+02  0.80377776411E+01  0.27318107478E+02  0.51100000000E-03 0.  1.
         12    1    4    4    0    0 -0.14682725691E+02  0.11187071486E+02 -0.14571171538E+02  0.23517058535E+02  0.00000000000E+00 0. -1.
</event>
<event>
 7    1  0.1283194E-013  0.7246158E+02  0.7816164E-02  0.1226708E+00
        -11   -1    0    0    0    0  0.00000000000E+00  0.00000000000E+00  0.45593999997E+02  0.45594000000E+02  0.51100000000E-03 0.  1.
         11   -1    0    0    0    0 -0.00000000000E+00 -0.00000000000E+00 -0.45593999997E+02  0.45594000000E+02  0.51100000000E-03 0. -1.
    9900012    2    1    2    0    0  0.15546192764E+02 -0.10374886164E+02 -0.11647150538E+01  0.72461576595E+02  0.70000008208E+02 0.  0.
         12    1    1    2    0    0 -0.15546192764E+02  0.10374886164E+02  0.11647150538E+01  0.18726423405E+02  0.00000000000E+00 0. -1.
         11    1    3    3    0    0  0.10220457280E+02  0.25065177961E+02 -0.14210131184E+01  0.27106091046E+02  0.51100000000E-03 0. -1.
        -11    1    3    3    0    0  0.14781907497E+02 -0.31555193143E+02  0.23319438412E+01  0.34923816599E+02  0.51100000000E-03 0.  1.
         12    1    3    3    0    0 -0.94561720125E+01 -0.38848709826E+01 -0.20756457765E+01  0.10431668949E+02  0.00000000000E+00 0. -1.
</event>
<event>
 7    1  0.1283194E-013  0.7246128E+02  0.7816164E-02  0.1226709E+00
        -11   -1    0    0    0    0  0.00000000000E+00  0.00000000000E+00  0.45593999997E+02  0.45594000000E+02  0.51100000000E-03 0.  1.
         11   -1    0    0    0    0 -0.00000000000E+00 -0.00000000000E+00 -0.45593999997E+02  0.45594000000E+02  0.51100000000E-03 0. -1.
    9900012    2    1    2    0    0  0.75323636771E+01 -0.21292540008E+01  0.17012342382E+02  0.72461280626E+02  0.69999622653E+02 0.  0.
         12    1    1    2    0    0 -0.75323636771E+01  0.21292540008E+01 -0.17012342382E+02  0.18726719374E+02  0.00000000000E+00 0. -1.
         11    1    3    3    0    0 -0.24412682482E+01  0.72184674468E+01 -0.24606844702E+02  0.25759714078E+02  0.51100000000E-03 0. -1.
        -11    1    3    3    0    0  0.34557675860E-01 -0.19858461864E+01  0.28871169292E+02  0.28939405589E+02  0.51100000000E-03 0.  1.
        -12    1    3    3    0    0  0.99390742495E+01 -0.73618752611E+01  0.12748017792E+02  0.17762160959E+02  0.00000000000E+00 0.  1.
</event>
<event>
 7    1  0.1283194E-013  0.7246184E+02  0.7816164E-02  0.1226707E+00
        -11   -1    0    0    0    0  0.00000000000E+00  0.00000000000E+00  0.45593999997E+02  0.45594000000E+02  0.51100000000E-03 0. -1.
         11   -1    0    0    0    0 -0.00000000000E+00 -0.00000000000E+00 -0.45593999997E+02  0.45594000000E+02  0.51100000000E-03 0.  1.
    9900012    2    1    2    0    0 -0.22489116408E+01 -0.61198297028E+01 -0.17554457734E+02  0.72461844348E+02  0.70000357005E+02 0.  0.
         12    1    1    2    0    0  0.22489116408E+01  0.61198297028E+01  0.17554457734E+02  0.18726155652E+02  0.00000000000E+00 0. -1.
         11    1    3    3    0    0 -0.16478078603E+02  0.67352401848E+01  0.16389899244E+02  0.24197506737E+02  0.51100000000E-03 0. -1.
        -11    1    3    3    0    0  0.42831636929E+01 -0.90809651649E+01 -0.36048167932E+02  0.37420313081E+02  0.51100000000E-03 0.  1.
        -12    1    3    3    0    0  0.99460032691E+01 -0.37741047228E+01  0.21038109538E+01  0.10844024530E+02  0.00000000000E+00 0.  1.
</event>
<event>
 7    1  0.1283194E-013  0.7246155E+02  0.7816164E-02  0.1226708E+00
        -11   -1    0    0    0    0  0.00000000000E+00  0.00000000000E+00  0.45593999997E+02  0.45594000000E+02  0.51100000000E-03 0. -1.
         11   -1    0    0    0    0 -0.00000000000E+00 -0.00000000000E+00 -0.45593999997E+02  0.45594000000E+02  0.51100000000E-03 0.  1.
    9900012    2    1    2    0    0  0.70347838554E+01 -0.13846457470E+02 -0.10462667905E+02  0.72461548440E+02  0.69999971530E+02 0.  0.
         12    1    1    2    0    0 -0.70347838554E+01  0.13846457470E+02  0.10462667905E+02  0.18726451560E+02  0.00000000000E+00 0. -1.
         11    1    3    3    0    0  0.98838680247E+00 -0.72648442298E+01  0.23804802633E+02  0.24908301805E+02  0.51100000000E-03 0. -1.
        -11    1    3    3    0    0  0.17780938561E+02 -0.31255130121E+00 -0.11482675329E+02  0.21168639479E+02  0.51100000000E-03 0.  1.
        -12    1    3    3    0    0 -0.11734541508E+02 -0.62690619386E+01 -0.22784795209E+02  0.26384607155E+02  0.00000000000E+00 0.  1.
</event>
<event>
 7    1  0.1283194E-013  0.7246161E+02  0.7816164E-02  0.1226708E+00
        -11   -1    0    0    0    0  0.00000000000E+00  0.00000000000E+00  0.45593999997E+02  0.45594000000E+02  0.51100000000E-03 0.  1.
         11   -1    0    0    0    0 -0.00000000000E+00 -0.00000000000E+00 -0.45593999997E+02  0.45594000000E+02  0.51100000000E-03 0. -1.
    9900012    2    1    2    0    0  0.20316685656E+01 -0.17800214894E+02  0.54499907771E+01  0.72461608812E+02  0.70000050177E+02 0.  0.
         12    1    1    2    0    0 -0.20316685656E+01  0.17800214894E+02 -0.54499907771E+01  0.18726391188E+02  0.00000000000E+00 0. -1.
         11    1    3    3    0    0 -0.77706802990E+01 -0.19083913557E+02 -0.68166309014E+01  0.21703586940E+02  0.51100000000E-03 0. -1.
        -11    1    3    3    0    0 -0.73867316998E+01 -0.39405041464E+01  0.26529566824E+02  0.27819225263E+02  0.51100000000E-03 0.  1.
        -12    1    3    3    0    0  0.17189080565E+02  0.52242028091E+01 -0.14262945145E+02  0.22938796609E+02  0.00000000000E+00 0.  1.
</event>
<event>
 7    1  0.1283194E-013  0.7246159E+02  0.7816164E-02  0.1226708E+00
        -11   -1    0    0    0    0  0.00000000000E+00  0.00000000000E+00  0.45593999997E+02  0.45594000000E+02  0.51100000000E-03 0.  1.
         11   -1    0    0    0    0 -0.00000000000E+00 -0.00000000000E+00 -0.45593999997E+02  0.45594000000E+02  0.51100000000E-03 0. -1.
    9900012    2    1    2    0    0 -0.69549029218E+01 -0.16193083935E+02  0.63317931878E+01  0.72461594928E+02  0.70000032089E+02 0.  0.
         12    1    1    2    0    0  0.69549029218E+01  0.16193083935E+02 -0.63317931878E+01  0.18726405072E+02  0.00000000000E+00 0. -1.
         11    1    3    3    0    0 -0.26259982553E+02 -0.20714008940E+01 -0.11107449336E+02  0.28587633976E+02  0.51100000000E-03 0. -1.
        -11    1    3    3    0    0  0.10397437472E+02 -0.24474348651E+02  0.11992298326E+02  0.29170458812E+02  0.51100000000E-03 0.  1.
         12    1    3    3    0    0  0.89076421591E+01  0.10352665611E+02  0.54469441972E+01  0.14703502140E+02  0.00000000000E+00 0. -1.
</event>
<event>
 7    1  0.1283194E-013  0.7246159E+02  0.7816164E-02  0.1226708E+00
        -11   -1    0    0    0    0  0.00000000000E+00  0.00000000000E+00  0.45593999997E+02  0.45594000000E+02  0.51100000000E-03 0.  1.
         11   -1    0    0    0    0 -0.00000000000E+00 -0.00000000000E+00 -0.45593999997E+02  0.45594000000E+02  0.51100000000E-03 0. -1.
    9900012    2    1    2    0    0 -0.23633089689E+01  0.16605686718E+02 -0.83273317565E+01  0.72461587774E+02  0.70000022771E+02 0.  0.
         12    1    1    2    0    0  0.23633089689E+01 -0.16605686718E+02  0.83273317565E+01  0.18726412226E+02  0.00000000000E+00 0. -1.
         11    1    3    3    0    0 -0.21983781453E+01  0.22773884831E+02  0.15949724647E+02  0.27890435876E+02  0.51100000000E-03 0. -1.
        -11    1    3    3    0    0  0.16764629608E+02 -0.27715462054E+01 -0.20970154558E+02  0.26990399343E+02  0.51100000000E-03 0.  1.
        -12    1    3    3    0    0 -0.16929560431E+02 -0.33966519071E+01 -0.33069018455E+01  0.17580752555E+02  0.00000000000E+00 0.  1.
</event>
<event>
 7    1  0.1283194E-013  0.7246225E+02  0.7816164E-02  0.1226706E+00
        -11   -1    0    0    0    0  0.00000000000E+00  0.00000000000E+00  0.45593999997E+02  0.45594000000E+02  0.51100000000E-03 0.  1.
         11   -1    0    0    0    0 -0.00000000000E+00 -0.00000000000E+00 -0.45593999997E+02  0.45594000000E+02  0.51100000000E-03 0. -1.
    9900012    2    1    2    0    0  0.92496893204E+01  0.15750056776E+02 -0.41270452541E+01  0.72462254527E+02  0.70000891335E+02 0.  0.
         12    1    1    2    0    0 -0.92496893204E+01 -0.15750056776E+02  0.41270452541E+01  0.18725745473E+02  0.00000000000E+00 0. -1.
         11    1    3    3    0    0  0.27927355760E+02  0.17547325875E+02 -0.20107992299E+02  0.38628709526E+02  0.51100000000E-03 0. -1.
        -11    1    3    3    0    0 -0.40668375257E+01 -0.25242892112E+01  0.18394325397E+02  0.19006904287E+02  0.51100000000E-03 0.  1.
        -12    1    3    3    0    0 -0.14610828914E+02  0.72702011218E+00 -0.24133783523E+01  0.14826640714E+02  0.00000000000E+00 0.  1.
</event>
<event>
 7    1  0.1283194E-013  0.7246158E+02  0.7816164E-02  0.1226708E+00
        -11   -1    0    0    0    0  0.00000000000E+00  0.00000000000E+00  0.45593999997E+02  0.45594000000E+02  0.51100000000E-03 0.  1.
         11   -1    0    0    0    0 -0.00000000000E+00 -0.00000000000E+00 -0.45593999997E+02  0.45594000000E+02  0.51100000000E-03 0. -1.
    9900012    2    1    2    0    0  0.11762527054E+01  0.93805285185E+01  0.16164810742E+02  0.72461575034E+02  0.70000006174E+02 0.  0.
         12    1    1    2    0    0 -0.11762527054E+01 -0.93805285185E+01 -0.16164810742E+02  0.18726424966E+02  0.00000000000E+00 0. -1.
         11    1    3    3    0    0  0.13096972542E+02 -0.79205750525E+01 -0.13863415127E+02  0.20650919548E+02  0.51100000000E-03 0. -1.
        -11    1    3    3    0    0  0.29168169967E+01  0.24033782375E+02  0.10530552761E+02  0.26401194260E+02  0.51100000000E-03 0.  1.
         12    1    3    3    0    0 -0.14837536833E+02 -0.67326788038E+01  0.19497673108E+02  0.25409461225E+02  0.00000000000E+00 0. -1.
</event>
<event>
 7    1  0.1283194E-013  0.7246152E+02  0.7816164E-02  0.1226708E+00
        -11   -1    0    0    0    0  0.00000000000E+00  0.00000000000E+00  0.45593999997E+02  0.45594000000E+02  0.51100000000E-03 0.  1.
         11   -1    0    0    0    0 -0.00000000000E+00 -0.00000000000E+00 -0.45593999997E+02  0.45594000000E+02  0.51100000000E-03 0. -1.
    9900012    2    1    2    0    0 -0.11833393887E+02  0.19488813178E+00  0.14512542815E+02  0.72461518984E+02  0.69999933159E+02 0.  0.
         12    1    1    2    0    0  0.11833393887E+02 -0.19488813178E+00 -0.14512542815E+02  0.18726481016E+02  0.00000000000E+00 0. -1.
         11    1    3    3    0    0 -0.20085215394E+02  0.13673686751E+02  0.32872683367E+01  0.24519211247E+02  0.51100000000E-03 0. -1.
        -11    1    3    3    0    0  0.81001843672E+01 -0.16131256076E+02 -0.13834211871E+02  0.22742379553E+02  0.51100000000E-03 0.  1.
        -12    1    3    3    0    0  0.15163714025E+00  0.26524574571E+01  0.25059486350E+02  0.25199928185E+02  0.00000000000E+00 0.  1.
</event>
<event>
 7    1  0.1283194E-013  0.7246155E+02  0.7816164E-02  0.1226708E+00
        -11   -1    0    0    0    0  0.00000000000E+00  0.00000000000E+00  0.45593999997E+02  0.45594000000E+02  0.51100000000E-03 0. -1.
         11   -1    0    0    0    0 -0.00000000000E+00 -0.00000000000E+00 -0.45593999997E+02  0.45594000000E+02  0.51100000000E-03 0.  1.
    9900012    2    1    2    0    0  0.14849723605E+02  0.71727359284E+01 -0.88722895968E+01  0.72461549334E+02  0.69999972695E+02 0.  0.
         12    1    1    2    0    0 -0.14849723605E+02 -0.71727359284E+01  0.88722895968E+01  0.18726450666E+02  0.00000000000E+00 0. -1.
         11    1    3    3    0    0 -0.81759844532E+00  0.20817649972E+02  0.93072067321E+01  0.22818131278E+02  0.51100000000E-03 0. -1.
        -11    1    3    3    0    0  0.29672605509E+01  0.80556891760E+01 -0.22544405163E+02  0.24123618462E+02  0.51100000000E-03 0.  1.
        -12    1    3    3    0    0  0.12700061500E+02 -0.21700603220E+02  0.43649088339E+01  0.25519799595E+02  0.00000000000E+00 0.  1.
</event>
<event>
 7    1  0.1283194E-013  0.7246175E+02  0.7816164E-02  0.1226708E+00
        -11   -1    0    0    0    0  0.00000000000E+00  0.00000000000E+00  0.45593999997E+02  0.45594000000E+02  0.51100000000E-03 0.  1.
         11   -1    0    0    0    0 -0.00000000000E+00 -0.00000000000E+00 -0.45593999997E+02  0.45594000000E+02  0.51100000000E-03 0. -1.
    9900012    2    1    2    0    0 -0.30489625491E+01  0.74516924282E+01  0.16907060118E+02  0.72461746383E+02  0.70000229388E+02 0.  0.
         12    1    1    2    0    0  0.30489625491E+01 -0.74516924282E+01 -0.16907060118E+02  0.18726253617E+02  0.00000000000E+00 0. -1.
         11    1    3    3    0    0  0.11771898911E+02 -0.91865285371E+01 -0.29665776863E+01  0.15224010443E+02  0.51100000000E-03 0. -1.
        -11    1    3    3    0    0 -0.11044963729E+02  0.23640865293E+02  0.32889288836E+02  0.41983175868E+02  0.51100000000E-03 0.  1.
        -12    1    3    3    0    0 -0.37758977306E+01 -0.70026443274E+01 -0.13015651031E+02  0.15254560073E+02  0.00000000000E+00 0.  1.
</event>
<event>
 7    1  0.1283194E-013  0.7246156E+02  0.7816164E-02  0.1226708E+00
        -11   -1    0    0    0    0  0.00000000000E+00  0.00000000000E+00  0.45593999997E+02  0.45594000000E+02  0.51100000000E-03 0.  1.
         11   -1    0    0    0    0 -0.00000000000E+00 -0.00000000000E+00 -0.45593999997E+02  0.45594000000E+02  0.51100000000E-03 0. -1.
    9900012    2    1    2    0    0  0.49206481492E+01 -0.17748664191E+02  0.33840181519E+01  0.72461563136E+02  0.69999990674E+02 0.  0.
         12    1    1    2    0    0 -0.49206481492E+01  0.17748664191E+02 -0.33840181519E+01  0.18726436864E+02  0.00000000000E+00 0. -1.
         11    1    3    3    0    0  0.16369425682E+02 -0.33317899150E+02  0.18981696799E+01  0.37170466090E+02  0.51100000000E-03 0. -1.
        -11    1    3    3    0    0  0.33051196314E+01  0.19191312520E+02  0.40329359961E+01  0.19887052699E+02  0.51100000000E-03 0.  1.
        -12    1    3    3    0    0 -0.14753897164E+02 -0.36220775617E+01 -0.25470875242E+01  0.15404044347E+02  0.00000000000E+00 0.  1.
</event>
<event>
 7    1  0.1283194E-013  0.7246165E+02  0.7816164E-02  0.1226708E+00
        -11   -1    0    0    0    0  0.00000000000E+00  0.00000000000E+00  0.45593999997E+02  0.45594000000E+02  0.51100000000E-03 0. -1.
         11   -1    0    0    0    0 -0.00000000000E+00 -0.00000000000E+00 -0.45593999997E+02  0.45594000000E+02  0.51100000000E-03 0.  1.
    9900012    2    1    2    0    0 -0.28931347293E+00 -0.21237876581E+01 -0.18603279132E+02  0.72461650362E+02  0.70000104303E+02 0.  0.
         12    1    1    2    0    0  0.28931347293E+00  0.21237876581E+01  0.18603279132E+02  0.18726349638E+02  0.00000000000E+00 0. -1.
         11    1    3    3    0    0  0.17960878389E+01 -0.45503533139E+01 -0.34805692749E+00  0.49043644534E+01  0.51100000000E-03 0. -1.
        -11    1    3    3    0    0 -0.14175822588E+02  0.15184404108E+02  0.17857906761E+02  0.27393884505E+02  0.51100000000E-03 0.  1.
        -12    1    3    3    0    0  0.12090421276E+02 -0.12757838452E+02 -0.36113128965E+02  0.40163401403E+02  0.00000000000E+00 0.  1.
</event>
<event>
 7    1  0.1283194E-013  0.7246152E+02  0.7816164E-02  0.1226708E+00
        -11   -1    0    0    0    0  0.00000000000E+00  0.00000000000E+00  0.45593999997E+02  0.45594000000E+02  0.51100000000E-03 0.  1.
         11   -1    0    0    0    0 -0.00000000000E+00 -0.00000000000E+00 -0.45593999997E+02  0.45594000000E+02  0.51100000000E-03 0. -1.
    9900012    2    1    2    0    0 -0.35095563632E+01 -0.11240173542E+02  0.14560995905E+02  0.72461519047E+02  0.69999933241E+02 0.  0.
         12    1    1    2    0    0  0.35095563632E+01  0.11240173542E+02 -0.14560995905E+02  0.18726480953E+02  0.00000000000E+00 0. -1.
         11    1    3    3    0    0  0.17989897844E+02  0.85537831987E+01  0.17111177353E+02  0.26260160360E+02  0.51100000000E-03 0. -1.
        -11    1    3    3    0    0 -0.21454447648E+02 -0.24665595430E+02  0.87960236246E+01  0.33853433410E+02  0.51100000000E-03 0.  1.
         12    1    3    3    0    0 -0.45006559313E-01  0.48716386898E+01 -0.11346205072E+02  0.12347925277E+02  0.00000000000E+00 0. -1.
</event>
<event>
 7    1  0.1283194E-013  0.7246157E+02  0.7816164E-02  0.1226708E+00
        -11   -1    0    0    0    0  0.00000000000E+00  0.00000000000E+00  0.45593999997E+02  0.45594000000E+02  0.51100000000E-03 0. -1.
         11   -1    0    0    0    0 -0.00000000000E+00 -0.00000000000E+00 -0.45593999997E+02  0.45594000000E+02  0.51100000000E-03 0.  1.
    9900012    2    1    2    0    0 -0.13991048733E+02  0.12372935265E+02 -0.13565836906E+01  0.72461567050E+02  0.69999995773E+02 0.  0.
         12    1    1    2    0    0  0.13991048733E+02 -0.12372935265E+02  0.13565836906E+01  0.18726432950E+02  0.00000000000E+00 0. -1.
         11    1    3    3    0    0  0.57227813673E+01 -0.45413723327E+01  0.48649843463E+01  0.87773778655E+01  0.51100000000E-03 0. -1.
        -11    1    3    3    0    0 -0.83386617723E+01  0.28334002737E+02 -0.25171355517E+02  0.38806521747E+02  0.51100000000E-03 0.  1.
        -12    1    3    3    0    0 -0.11375168328E+02 -0.11419695140E+02  0.18949787480E+02  0.24877667437E+02  0.00000000000E+00 0.  1.
</event>
<event>
 7    1  0.1283194E-013  0.7246150E+02  0.7816164E-02  0.1226708E+00
        -11   -1    0    0    0    0  0.00000000000E+00  0.00000000000E+00  0.45593999997E+02  0.45594000000E+02  0.51100000000E-03 0.  1.
         11   -1    0    0    0    0 -0.00000000000E+00 -0.00000000000E+00 -0.45593999997E+02  0.45594000000E+02  0.51100000000E-03 0. -1.
    9900012    2    1    2    0    0  0.18500727438E+02 -0.65422705873E+00  0.28243163987E+01  0.72461502947E+02  0.69999912267E+02 0.  0.
         12    1    1    2    0    0 -0.18500727438E+02  0.65422705873E+00 -0.28243163987E+01  0.18726497053E+02  0.00000000000E+00 0. -1.
         11    1    3    3    0    0 -0.95626665590E+01  0.87221562558E+01 -0.21690817708E+02  0.25258902878E+02  0.51100000000E-03 0. -1.
        -11    1    3    3    0    0  0.12062406977E+02  0.31426043641E+01 -0.31709071961E+01  0.12862047931E+02  0.51100000000E-03 0.  1.
         12    1    3    3    0    0  0.16000987019E+02 -0.12518987679E+02  0.27686041303E+02  0.34340552138E+02  0.00000000000E+00 0. -1.
</event>
<event>
 7    1  0.1283194E-013  0.7246156E+02  0.7816164E-02  0.1226708E+00
        -11   -1    0    0    0    0  0.00000000000E+00  0.00000000000E+00  0.45593999997E+02  0.45594000000E+02  0.51100000000E-03 0.  1.
         11   -1    0    0    0    0 -0.00000000000E+00 -0.00000000000E+00 -0.45593999997E+02  0.45594000000E+02  0.51100000000E-03 0. -1.
    9900012    2    1    2    0    0  0.38049447154E+01  0.86997100004E+01  0.16140537146E+02  0.72461561531E+02  0.69999988584E+02 0.  0.
         12    1    1    2    0    0 -0.38049447154E+01 -0.86997100004E+01 -0.16140537146E+02  0.18726438469E+02  0.00000000000E+00 0. -1.
         11    1    3    3    0    0  0.69726150170E+01 -0.19406317222E+01 -0.95193153087E+01  0.11958293184E+02  0.51100000000E-03 0. -1.
        -11    1    3    3    0    0  0.19385812112E+02  0.16886769199E+02  0.26715685029E+02  0.37076953921E+02  0.51100000000E-03 0.  1.
        -12    1    3    3    0    0 -0.22553482413E+02 -0.62464274765E+01 -0.10558325740E+01  0.23426314426E+02  0.00000000000E+00 0.  1.
</event>
<event>
 7    1  0.1283194E-013  0.7246158E+02  0.7816164E-02  0.1226708E+00
        -11   -1    0    0    0    0  0.00000000000E+00  0.00000000000E+00  0.45593999997E+02  0.45594000000E+02  0.51100000000E-03 0. -1.
         11   -1    0    0    0    0 -0.00000000000E+00 -0.00000000000E+00 -0.45593999997E+02  0.45594000000E+02  0.51100000000E-03 0.  1.
    9900012    2    1    2    0    0  0.16266520665E+02  0.78545257950E+01 -0.49381777412E+01  0.72461578307E+02  0.70000010438E+02 0.  0.
         12    1    1    2    0    0 -0.16266520665E+02 -0.78545257950E+01  0.49381777412E+01  0.18726421693E+02  0.00000000000E+00 0. -1.
         11    1    3    3    0    0  0.37050832034E+01 -0.27668057257E+01  0.14088365081E+02  0.14827841595E+02  0.51100000000E-03 0. -1.
        -11    1    3    3    0    0  0.21679239091E+01 -0.20485251064E+02 -0.12795181226E+02  0.24249991095E+02  0.51100000000E-03 0.  1.
        -12    1    3    3    0    0  0.10393513553E+02  0.31106582585E+02 -0.62313615964E+01  0.33383745617E+02  0.00000000000E+00 0.  1.
</event>
<event>
 7    1  0.1283194E-013  0.7246163E+02  0.7816164E-02  0.1226708E+00
        -11   -1    0    0    0    0  0.00000000000E+00  0.00000000000E+00  0.45593999997E+02  0.45594000000E+02  0.51100000000E-03 0.  1.
         11   -1    0    0    0    0 -0.00000000000E+00 -0.00000000000E+00 -0.45593999997E+02  0.45594000000E+02  0.51100000000E-03 0. -1.
    9900012    2    1    2    0    0 -0.92187007780E+01  0.12252767201E+02  0.10749986615E+02  0.72461629280E+02  0.70000076839E+02 0.  0.
         12    1    1    2    0    0  0.92187007780E+01 -0.12252767201E+02 -0.10749986615E+02  0.18726370720E+02  0.00000000000E+00 0. -1.
         11    1    3    3    0    0 -0.13622550882E+02 -0.32853624376E+01 -0.26352891706E+01  0.14258760401E+02  0.51100000000E-03 0. -1.
        -11    1    3    3    0    0  0.17571860980E+02  0.68236812377E+01 -0.16077543407E+02  0.24775397599E+02  0.51100000000E-03 0.  1.
        -12    1    3    3    0    0 -0.13168010875E+02  0.87144484010E+01  0.29462819193E+02  0.33427471280E+02  0.00000000000E+00 0.  1.
</event>
<event>
 7    1  0.1283194E-013  0.7246193E+02  0.7816164E-02  0.1226707E+00
        -11   -1    0    0    0    0  0.00000000000E+00  0.00000000000E+00  0.45593999997E+02  0.45594000000E+02  0.51100000000E-03 0. -1.
         11   -1    0    0    0    0 -0.00000000000E+00 -0.00000000000E+00 -0.45593999997E+02  0.45594000000E+02  0.51100000000E-03 0.  1.
    9900012    2    1    2    0    0 -0.80165612798E+01  0.36564618571E+00 -0.16919421006E+02  0.72461928360E+02  0.70000466445E+02 0.  0.
         12    1    1    2    0    0  0.80165612798E+01 -0.36564618571E+00  0.16919421006E+02  0.18726071640E+02  0.00000000000E+00 0. -1.
         11    1    3    3    0    0  0.19509380887E+02 -0.20914233351E+02  0.13510728752E+01  0.28632961730E+02  0.51100000000E-03 0. -1.
        -11    1    3    3    0    0 -0.18167149931E+02  0.20944792893E+02 -0.59565629411E+01  0.28358602369E+02  0.51100000000E-03 0.  1.
        -12    1    3    3    0    0 -0.93587922352E+01  0.33508664357E+00 -0.12313930941E+02  0.15470364261E+02  0.00000000000E+00 0.  1.
</event>
<event>
 7    1  0.1283194E-013  0.7246158E+02  0.7816164E-02  0.1226708E+00
        -11   -1    0    0    0    0  0.00000000000E+00  0.00000000000E+00  0.45593999997E+02  0.45594000000E+02  0.51100000000E-03 0. -1.
         11   -1    0    0    0    0 -0.00000000000E+00 -0.00000000000E+00 -0.45593999997E+02  0.45594000000E+02  0.51100000000E-03 0.  1.
    9900012    2    1    2    0    0 -0.85028584483E+01 -0.16639752320E+02 -0.12242942365E+01  0.72461578680E+02  0.70000010924E+02 0.  0.
         12    1    1    2    0    0  0.85028584483E+01  0.16639752320E+02  0.12242942365E+01  0.18726421320E+02  0.00000000000E+00 0. -1.
         11    1    3    3    0    0  0.17919357592E+02  0.14737393709E+01 -0.28222981838E+01  0.18200017900E+02  0.51100000000E-03 0. -1.
        -11    1    3    3    0    0 -0.38481344717E+02 -0.16894004221E+02 -0.71449081057E-01  0.42026496108E+02  0.51100000000E-03 0.  1.
        -12    1    3    3    0    0  0.12059128677E+02 -0.12194874707E+01  0.16694530283E+01  0.12235064673E+02  0.00000000000E+00 0.  1.
</event>
<event>
 7    1  0.1283194E-013  0.7246086E+02  0.7816164E-02  0.1226710E+00
        -11   -1    0    0    0    0  0.00000000000E+00  0.00000000000E+00  0.45593999997E+02  0.45594000000E+02  0.51100000000E-03 0. -1.
         11   -1    0    0    0    0 -0.00000000000E+00 -0.00000000000E+00 -0.45593999997E+02  0.45594000000E+02  0.51100000000E-03 0.  1.
    9900012    2    1    2    0    0 -0.37909997952E+01 -0.18338587690E+02 -0.17435538575E+00  0.72460857193E+02  0.69999071047E+02 0.  0.
         12    1    1    2    0    0  0.37909997952E+01  0.18338587690E+02  0.17435538575E+00  0.18727142807E+02  0.00000000000E+00 0. -1.
         11    1    3    3    0    0  0.10054748463E+02 -0.23356996178E+02  0.11930688578E+02  0.28088940302E+02  0.51100000000E-03 0. -1.
        -11    1    3    3    0    0 -0.17719348846E+02  0.31395677404E+01  0.10852293642E+02  0.21014387612E+02  0.51100000000E-03 0.  1.
         12    1    3    3    0    0  0.38736005883E+01  0.18788407473E+01 -0.22957337606E+02  0.23357529279E+02  0.00000000000E+00 0. -1.
</event>
<event>
 7    1  0.1283194E-013  0.7246159E+02  0.7816164E-02  0.1226708E+00
        -11   -1    0    0    0    0  0.00000000000E+00  0.00000000000E+00  0.45593999997E+02  0.45594000000E+02  0.51100000000E-03 0. -1.
         11   -1    0    0    0    0 -0.00000000000E+00 -0.00000000000E+00 -0.45593999997E+02  0.45594000000E+02  0.51100000000E-03 0.  1.
    9900012    2    1    2    0    0 -0.58176985741E+01  0.16161213829E+02  0.74597460683E+01  0.72461594565E+02  0.70000031616E+02 0.  0.
         12    1    1    2    0    0  0.58176985741E+01 -0.16161213829E+02 -0.74597460683E+01  0.18726405435E+02  0.00000000000E+00 0. -1.
         11    1    3    3    0    0  0.13928395240E+02 -0.19194114904E+02  0.61964395950E+00  0.23723368223E+02  0.51100000000E-03 0. -1.
        -11    1    3    3    0    0 -0.18749217071E+02  0.91847272537E+01 -0.22890156906E+01  0.21003141398E+02  0.51100000000E-03 0.  1.
        -12    1    3    3    0    0 -0.99687674318E+00  0.26170601480E+02  0.91291177994E+01  0.27735084944E+02  0.00000000000E+00 0.  1.
</event>
<event>
 7    1  0.1283194E-013  0.7246103E+02  0.7816164E-02  0.1226709E+00
        -11   -1    0    0    0    0  0.00000000000E+00  0.00000000000E+00  0.45593999997E+02  0.45594000000E+02  0.51100000000E-03 0. -1.
         11   -1    0    0    0    0 -0.00000000000E+00 -0.00000000000E+00 -0.45593999997E+02  0.45594000000E+02  0.51100000000E-03 0.  1.
    9900012    2    1    2    0    0 -0.87352667116E+01  0.50346830839E+01 -0.15781212702E+02  0.72461025001E+02  0.69999289650E+02 0.  0.
         12    1    1    2    0    0  0.87352667116E+01 -0.50346830839E+01  0.15781212702E+02  0.18726974999E+02  0.00000000000E+00 0. -1.
         11    1    3    3    0    0  0.13587030443E+02  0.30606417985E+02 -0.25778692409E+01  0.33585795036E+02  0.51100000000E-03 0. -1.
        -11    1    3    3    0    0 -0.16073278973E+02 -0.18738625470E+02 -0.26408877982E+01  0.24828626021E+02  0.51100000000E-03 0.  1.
         12    1    3    3    0    0 -0.62490181821E+01 -0.68331094309E+01 -0.10562455663E+02  0.14046603944E+02  0.00000000000E+00 0. -1.
</event>
<event>
 7    1  0.1283194E-013  0.7246162E+02  0.7816164E-02  0.1226708E+00
        -11   -1    0    0    0    0  0.00000000000E+00  0.00000000000E+00  0.45593999997E+02  0.45594000000E+02  0.51100000000E-03 0.  1.
         11   -1    0    0    0    0 -0.00000000000E+00 -0.00000000000E+00 -0.45593999997E+02  0.45594000000E+02  0.51100000000E-03 0. -1.
    9900012    2    1    2    0    0 -0.11896822739E+02  0.45691230237E+01  0.13721010440E+02  0.72461617435E+02  0.70000061409E+02 0.  0.
         12    1    1    2    0    0  0.11896822739E+02 -0.45691230237E+01 -0.13721010440E+02  0.18726382565E+02  0.00000000000E+00 0. -1.
         11    1    3    3    0    0 -0.26231129217E+02  0.72086204407E+01  0.12107550517E+01  0.27230539412E+02  0.51100000000E-03 0. -1.
        -11    1    3    3    0    0  0.13676995550E+02 -0.15741241760E+02  0.21008486128E+02  0.29600732914E+02  0.51100000000E-03 0.  1.
        -12    1    3    3    0    0  0.65731092834E+00  0.13101744343E+02 -0.84982307394E+01  0.15630345108E+02  0.00000000000E+00 0.  1.
</event>
<event>
 7    1  0.1283194E-013  0.7246156E+02  0.7816164E-02  0.1226708E+00
        -11   -1    0    0    0    0  0.00000000000E+00  0.00000000000E+00  0.45593999997E+02  0.45594000000E+02  0.51100000000E-03 0.  1.
         11   -1    0    0    0    0 -0.00000000000E+00 -0.00000000000E+00 -0.45593999997E+02  0.45594000000E+02  0.51100000000E-03 0. -1.
    9900012    2    1    2    0    0 -0.14423041710E+02 -0.11877105134E+02  0.12608983455E+01  0.72461558181E+02  0.69999984220E+02 0.  0.
         12    1    1    2    0    0  0.14423041710E+02  0.11877105134E+02 -0.12608983455E+01  0.18726441819E+02  0.00000000000E+00 0. -1.
         11    1    3    3    0    0 -0.29698081658E+02 -0.15994852756E+02 -0.65999749012E+01  0.34371078508E+02  0.51100000000E-03 0.  1.
        -11    1    3    3    0    0  0.24604282150E+02  0.81665991087E+01  0.12371719137E+01  0.25953701773E+02  0.51100000000E-03 0. -1.
         12    1    3    3    0    0 -0.93292422028E+01 -0.40488514871E+01  0.66237013330E+01  0.12136777900E+02  0.00000000000E+00 0. -1.
</event>
<event>
 7    1  0.1283194E-013  0.7246155E+02  0.7816164E-02  0.1226708E+00
        -11   -1    0    0    0    0  0.00000000000E+00  0.00000000000E+00  0.45593999997E+02  0.45594000000E+02  0.51100000000E-03 0.  1.
         11   -1    0    0    0    0 -0.00000000000E+00 -0.00000000000E+00 -0.45593999997E+02  0.45594000000E+02  0.51100000000E-03 0. -1.
    9900012    2    1    2    0    0 -0.13089515374E+02 -0.11701743233E+02  0.65125840059E+01  0.72461549246E+02  0.69999972580E+02 0.  0.
         12    1    1    2    0    0  0.13089515374E+02  0.11701743233E+02 -0.65125840059E+01  0.18726450754E+02  0.00000000000E+00 0. -1.
         11    1    3    3    0    0  0.67579256072E+01 -0.17044861836E+02 -0.12570834355E+02  0.22231121208E+02  0.51100000000E-03 0. -1.
        -11    1    3    3    0    0 -0.11541084561E+02 -0.10744907492E+02  0.26360566385E+02  0.30716919283E+02  0.51100000000E-03 0.  1.
        -12    1    3    3    0    0 -0.83063564205E+01  0.16088026094E+02 -0.72771480239E+01  0.19513508755E+02  0.00000000000E+00 0.  1.
</event>
<event>
 7    1  0.1283194E-013  0.7246157E+02  0.7816164E-02  0.1226708E+00
        -11   -1    0    0    0    0  0.00000000000E+00  0.00000000000E+00  0.45593999997E+02  0.45594000000E+02  0.51100000000E-03 0. -1.
         11   -1    0    0    0    0 -0.00000000000E+00 -0.00000000000E+00 -0.45593999997E+02  0.45594000000E+02  0.51100000000E-03 0.  1.
    9900012    2    1    2    0    0  0.50717664222E+01 -0.23115849061E+01 -0.17877717262E+02  0.72461574449E+02  0.70000005412E+02 0.  0.
         12    1    1    2    0    0 -0.50717664222E+01  0.23115849061E+01  0.17877717262E+02  0.18726425551E+02  0.00000000000E+00 0. -1.
         11    1    3    3    0    0 -0.55249541771E+01  0.16465182518E+02  0.82809664132E+01  0.19240627823E+02  0.51100000000E-03 0. -1.
        -11    1    3    3    0    0  0.25540102025E+02 -0.13702797407E+02 -0.23288222839E+02  0.37180704559E+02  0.51100000000E-03 0.  1.
         12    1    3    3    0    0 -0.14943381426E+02 -0.50739700168E+01 -0.28704608357E+01  0.16040242067E+02  0.00000000000E+00 0. -1.
</event>
<event>
 7    1  0.1283194E-013  0.7246157E+02  0.7816164E-02  0.1226708E+00
        -11   -1    0    0    0    0  0.00000000000E+00  0.00000000000E+00  0.45593999997E+02  0.45594000000E+02  0.51100000000E-03 0.  1.
         11   -1    0    0    0    0 -0.00000000000E+00 -0.00000000000E+00 -0.45593999997E+02  0.45594000000E+02  0.51100000000E-03 0. -1.
    9900012    2    1    2    0    0 -0.16299091247E+02  0.34861365108E+01  0.85361428324E+01  0.72461567940E+02  0.69999996933E+02 0.  0.
         12    1    1    2    0    0  0.16299091247E+02 -0.34861365108E+01 -0.85361428324E+01  0.18726432060E+02  0.00000000000E+00 0. -1.
         11    1    3    3    0    0  0.55336465366E+01  0.75284683026E+00 -0.26063677323E+02  0.26655267738E+02  0.51100000000E-03 0. -1.
        -11    1    3    3    0    0 -0.18041549888E+02 -0.56317709010E+01  0.14886924219E+02  0.24058987485E+02  0.51100000000E-03 0.  1.
         12    1    3    3    0    0 -0.37911878949E+01  0.83650605815E+01  0.19712895937E+02  0.21747312717E+02  0.00000000000E+00 0. -1.
</event>
<event>
 7    1  0.1283194E-013  0.7246159E+02  0.7816164E-02  0.1226708E+00
        -11   -1    0    0    0    0  0.00000000000E+00  0.00000000000E+00  0.45593999997E+02  0.45594000000E+02  0.51100000000E-03 0.  1.
         11   -1    0    0    0    0 -0.00000000000E+00 -0.00000000000E+00 -0.45593999997E+02  0.45594000000E+02  0.51100000000E-03 0. -1.
    9900012    2    1    2    0    0 -0.17470062432E+02 -0.66558115575E+01  0.10842515852E+01  0.72461587894E+02  0.70000022926E+02 0.  0.
         12    1    1    2    0    0  0.17470062432E+02  0.66558115575E+01 -0.10842515852E+01  0.18726412106E+02  0.00000000000E+00 0. -1.
         11    1    3    3    0    0 -0.24197459923E+02 -0.25913066022E+02  0.78166790129E+01  0.36305709309E+02  0.51100000000E-03 0. -1.
        -11    1    3    3    0    0  0.13354691769E+02  0.85771603807E+01  0.71679701879E+01  0.17415374510E+02  0.51100000000E-03 0.  1.
         12    1    3    3    0    0 -0.66272942788E+01  0.10680094084E+02 -0.13900397616E+02  0.18740504075E+02  0.00000000000E+00 0. -1.
</event>
<event>
 7    1  0.1283194E-013  0.7246156E+02  0.7816164E-02  0.1226708E+00
        -11   -1    0    0    0    0  0.00000000000E+00  0.00000000000E+00  0.45593999997E+02  0.45594000000E+02  0.51100000000E-03 0. -1.
         11   -1    0    0    0    0 -0.00000000000E+00 -0.00000000000E+00 -0.45593999997E+02  0.45594000000E+02  0.51100000000E-03 0.  1.
    9900012    2    1    2    0    0  0.17573190173E+02 -0.62109510848E+01  0.18128828567E+01  0.72461562258E+02  0.69999989532E+02 0.  0.
         12    1    1    2    0    0 -0.17573190173E+02  0.62109510848E+01 -0.18128828567E+01  0.18726437742E+02  0.00000000000E+00 0. -1.
         11    1    3    3    0    0  0.83669633515E+01 -0.32972760831E+00  0.15646187430E+02  0.17745928473E+02  0.51100000000E-03 0. -1.
        -11    1    3    3    0    0 -0.17903769110E+02  0.72546614410E+01 -0.15168412933E+02  0.24561266501E+02  0.51100000000E-03 0.  1.
        -12    1    3    3    0    0  0.27109995932E+02 -0.13135884917E+02  0.13351083600E+01  0.30154367284E+02  0.00000000000E+00 0.  1.
</event>
<event>
 7    1  0.1283194E-013  0.7246154E+02  0.7816164E-02  0.1226708E+00
        -11   -1    0    0    0    0  0.00000000000E+00  0.00000000000E+00  0.45593999997E+02  0.45594000000E+02  0.51100000000E-03 0. -1.
         11   -1    0    0    0    0 -0.00000000000E+00 -0.00000000000E+00 -0.45593999997E+02  0.45594000000E+02  0.51100000000E-03 0.  1.
    9900012    2    1    2    0    0  0.32460414051E+01 -0.18042343324E+02 -0.38232903793E+01  0.72461535124E+02  0.69999954185E+02 0.  0.
         12    1    1    2    0    0 -0.32460414051E+01  0.18042343324E+02  0.38232903793E+01  0.18726464876E+02  0.00000000000E+00 0. -1.
         11    1    3    3    0    0 -0.15873120163E+02 -0.43076678837E+01  0.10276077185E+02  0.19393548125E+02  0.51100000000E-03 0. -1.
        -11    1    3    3    0    0  0.30314629373E+02 -0.19640032606E+02 -0.17243924286E+02  0.40025748710E+02  0.51100000000E-03 0.  1.
         12    1    3    3    0    0 -0.11195467805E+02  0.59053571661E+01  0.31445567219E+01  0.13042238289E+02  0.00000000000E+00 0. -1.
</event>
<event>
 7    1  0.1283194E-013  0.7246156E+02  0.7816164E-02  0.1226708E+00
        -11   -1    0    0    0    0  0.00000000000E+00  0.00000000000E+00  0.45593999997E+02  0.45594000000E+02  0.51100000000E-03 0.  1.
         11   -1    0    0    0    0 -0.00000000000E+00 -0.00000000000E+00 -0.45593999997E+02  0.45594000000E+02  0.51100000000E-03 0. -1.
    9900012    2    1    2    0    0  0.56148834315E+01  0.76642899254E+01  0.16137268040E+02  0.72461556776E+02  0.69999982390E+02 0.  0.
         12    1    1    2    0    0 -0.56148834315E+01 -0.76642899254E+01 -0.16137268040E+02  0.18726443224E+02  0.00000000000E+00 0. -1.
         11    1    3    3    0    0  0.13587032489E+01  0.50394059674E+01 -0.63875105845E+01  0.82487561942E+01  0.51100000000E-03 0. -1.
        -11    1    3    3    0    0  0.10678418307E+02 -0.26042726787E+02  0.16920105365E+01  0.28197786011E+02  0.51100000000E-03 0.  1.
        -12    1    3    3    0    0 -0.64222381246E+01  0.28667610745E+02  0.20832768088E+02  0.36015014571E+02  0.00000000000E+00 0.  1.
</event>
<event>
 7    1  0.1283194E-013  0.7246155E+02  0.7816164E-02  0.1226708E+00
        -11   -1    0    0    0    0  0.00000000000E+00  0.00000000000E+00  0.45593999997E+02  0.45594000000E+02  0.51100000000E-03 0.  1.
         11   -1    0    0    0    0 -0.00000000000E+00 -0.00000000000E+00 -0.45593999997E+02  0.45594000000E+02  0.51100000000E-03 0. -1.
    9900012    2    1    2    0    0  0.15916307484E+02  0.86046606421E+01  0.48281285422E+01  0.72461552021E+02  0.69999976195E+02 0.  0.
         12    1    1    2    0    0 -0.15916307484E+02 -0.86046606421E+01 -0.48281285422E+01  0.18726447979E+02  0.00000000000E+00 0. -1.
         11    1    3    3    0    0 -0.80286497957E+01 -0.31102759400E+01 -0.16635135889E+02  0.18731278127E+02  0.51100000000E-03 0. -1.
        -11    1    3    3    0    0  0.20650613063E+02  0.21336163704E+02  0.28662720596E+02  0.41270222360E+02  0.51100000000E-03 0.  1.
         12    1    3    3    0    0  0.32943442175E+01 -0.96212271215E+01 -0.71994561651E+01  0.12460051534E+02  0.00000000000E+00 0. -1.
</event>
<event>
 7    1  0.1283194E-013  0.7246156E+02  0.7816164E-02  0.1226708E+00
        -11   -1    0    0    0    0  0.00000000000E+00  0.00000000000E+00  0.45593999997E+02  0.45594000000E+02  0.51100000000E-03 0.  1.
         11   -1    0    0    0    0 -0.00000000000E+00 -0.00000000000E+00 -0.45593999997E+02  0.45594000000E+02  0.51100000000E-03 0. -1.
    9900012    2    1    2    0    0 -0.14768944209E+02  0.33151920918E+01  0.11025759983E+02  0.72461558938E+02  0.69999985206E+02 0.  0.
         12    1    1    2    0    0  0.14768944209E+02 -0.33151920918E+01 -0.11025759983E+02  0.18726441062E+02  0.00000000000E+00 0. -1.
         11    1    3    3    0    0  0.25599561038E+00 -0.26068086850E+01  0.24139707529E+02  0.24281401630E+02  0.51100000000E-03 0.  1.
        -11    1    3    3    0    0 -0.28832515864E+02  0.25156095433E+01 -0.16831862284E+02  0.33480648898E+02  0.51100000000E-03 0. -1.
         12    1    3    3    0    0  0.13807576045E+02  0.34063912335E+01  0.37179147375E+01  0.14699508409E+02  0.00000000000E+00 0. -1.
</event>
<event>
 7    1  0.1283194E-013  0.7246157E+02  0.7816164E-02  0.1226708E+00
        -11   -1    0    0    0    0  0.00000000000E+00  0.00000000000E+00  0.45593999997E+02  0.45594000000E+02  0.51100000000E-03 0. -1.
         11   -1    0    0    0    0 -0.00000000000E+00 -0.00000000000E+00 -0.45593999997E+02  0.45594000000E+02  0.51100000000E-03 0.  1.
    9900012    2    1    2    0    0 -0.99453939420E+01 -0.15828604896E+02  0.11060779820E+01  0.72461574764E+02  0.70000005822E+02 0.  0.
         12    1    1    2    0    0  0.99453939420E+01  0.15828604896E+02 -0.11060779820E+01  0.18726425236E+02  0.00000000000E+00 0. -1.
         11    1    3    3    0    0  0.16998593044E+02  0.12269243657E+02  0.12008654784E+02  0.24159766046E+02  0.51100000000E-03 0. -1.
        -11    1    3    3    0    0 -0.88928350721E+01 -0.57575861221E+00 -0.12497736351E+02  0.15349509039E+02  0.51100000000E-03 0.  1.
         12    1    3    3    0    0 -0.18051151914E+02 -0.27522089941E+02  0.15951595488E+01  0.32952299679E+02  0.00000000000E+00 0. -1.
</event>
<event>
 7    1  0.1283194E-013  0.7246161E+02  0.7816164E-02  0.1226708E+00
        -11   -1    0    0    0    0  0.00000000000E+00  0.00000000000E+00  0.45593999997E+02  0.45594000000E+02  0.51100000000E-03 0.  1.
         11   -1    0    0    0    0 -0.00000000000E+00 -0.00000000000E+00 -0.45593999997E+02  0.45594000000E+02  0.51100000000E-03 0. -1.
    9900012    2    1    2    0    0 -0.14051609348E+02 -0.10504984313E+02  0.65479280514E+01  0.72461607330E+02  0.70000048246E+02 0.  0.
         12    1    1    2    0    0  0.14051609348E+02  0.10504984313E+02 -0.65479280514E+01  0.18726392670E+02  0.00000000000E+00 0. -1.
         11    1    3    3    0    0 -0.12792663761E+02 -0.18157132662E+02  0.20837143953E+02  0.30455217632E+02  0.51100000000E-03 0. -1.
        -11    1    3    3    0    0  0.18310254733E+02  0.10775886510E+01 -0.33579282691E+01  0.18646777422E+02  0.51100000000E-03 0.  1.
        -12    1    3    3    0    0 -0.19569200320E+02  0.65745596981E+01 -0.10931287633E+02  0.23359612276E+02  0.00000000000E+00 0.  1.
</event>
<event>
 7    1  0.1283194E-013  0.7246162E+02  0.7816164E-02  0.1226708E+00
        -11   -1    0    0    0    0  0.00000000000E+00  0.00000000000E+00  0.45593999997E+02  0.45594000000E+02  0.51100000000E-03 0.  1.
         11   -1    0    0    0    0 -0.00000000000E+00 -0.00000000000E+00 -0.45593999997E+02  0.45594000000E+02  0.51100000000E-03 0. -1.
    9900012    2    1    2    0    0  0.25322856561E+00 -0.15759503325E+02 -0.10111942752E+02  0.72461616046E+02  0.70000059600E+02 0.  0.
         12    1    1    2    0    0 -0.25322856561E+00  0.15759503325E+02  0.10111942752E+02  0.18726383954E+02  0.00000000000E+00 0. -1.
         11    1    3    3    0    0 -0.15952024415E+02 -0.13633193713E+02  0.17470269812E+01  0.21056665388E+02  0.51100000000E-03 0. -1.
        -11    1    3    3    0    0  0.30385700943E+02 -0.32010985863E+01 -0.18490903355E+02  0.35713461903E+02  0.51100000000E-03 0.  1.
        -12    1    3    3    0    0 -0.14180447963E+02  0.10747889741E+01  0.66319336223E+01  0.15691488754E+02  0.00000000000E+00 0.  1.
</event>
<event>
 7    1  0.1283194E-013  0.7246160E+02  0.7816164E-02  0.1226708E+00
        -11   -1    0    0    0    0  0.00000000000E+00  0.00000000000E+00  0.45593999997E+02  0.45594000000E+02  0.51100000000E-03 0.  1.
         11   -1    0    0    0    0 -0.00000000000E+00 -0.00000000000E+00 -0.45593999997E+02  0.45594000000E+02  0.51100000000E-03 0. -1.
    9900012    2    1    2    0    0  0.22842107513E+01 -0.10294948050E+02  0.15474958222E+02  0.72461604028E+02  0.70000043944E+02 0.  0.
         12    1    1    2    0    0 -0.22842107513E+01  0.10294948050E+02 -0.15474958222E+02  0.18726395972E+02  0.00000000000E+00 0. -1.
         11    1    3    3    0    0 -0.18893852246E+02 -0.19862526343E+01  0.16175869677E+02  0.24951585367E+02  0.51100000000E-03 0. -1.
        -11    1    3    3    0    0  0.32063625088E+02 -0.15183880835E+01  0.65673171534E+01  0.32764480936E+02  0.51100000000E-03 0.  1.
         12    1    3    3    0    0 -0.10885562091E+02 -0.67903073325E+01 -0.72682286085E+01  0.14745537725E+02  0.00000000000E+00 0. -1.
</event>
<event>
 7    1  0.1283194E-013  0.7246159E+02  0.7816164E-02  0.1226708E+00
        -11   -1    0    0    0    0  0.00000000000E+00  0.00000000000E+00  0.45593999997E+02  0.45594000000E+02  0.51100000000E-03 0. -1.
         11   -1    0    0    0    0 -0.00000000000E+00 -0.00000000000E+00 -0.45593999997E+02  0.45594000000E+02  0.51100000000E-03 0.  1.
    9900012    2    1    2    0    0  0.10839526235E+02  0.12577525832E+02 -0.86596059118E+01  0.72461594589E+02  0.70000031648E+02 0.  0.
         12    1    1    2    0    0 -0.10839526235E+02 -0.12577525832E+02  0.86596059118E+01  0.18726405411E+02  0.00000000000E+00 0. -1.
         11    1    3    3    0    0  0.27544831343E+02  0.16320221343E+02 -0.49936194179E+01  0.32403758942E+02  0.51100000000E-03 0. -1.
        -11    1    3    3    0    0 -0.10203068751E+02 -0.12230917757E+02 -0.16780947837E+02  0.23136511658E+02  0.51100000000E-03 0.  1.
         12    1    3    3    0    0 -0.65022363563E+01  0.84882222463E+01  0.13114961343E+02  0.16921323990E+02  0.00000000000E+00 0. -1.
</event>
<event>
 7    1  0.1283194E-013  0.7246190E+02  0.7816164E-02  0.1226707E+00
        -11   -1    0    0    0    0  0.00000000000E+00  0.00000000000E+00  0.45593999997E+02  0.45594000000E+02  0.51100000000E-03 0.  1.
         11   -1    0    0    0    0 -0.00000000000E+00 -0.00000000000E+00 -0.45593999997E+02  0.45594000000E+02  0.51100000000E-03 0. -1.
    9900012    2    1    2    0    0 -0.14733769024E+01 -0.10855849870E+02  0.15187048112E+02  0.72461902002E+02  0.70000432109E+02 0.  0.
         12    1    1    2    0    0  0.14733769024E+01  0.10855849870E+02 -0.15187048112E+02  0.18726097998E+02  0.00000000000E+00 0. -1.
         11    1    3    3    0    0 -0.38141550897E+01 -0.20199917522E+01 -0.68290669139E+01  0.80786323659E+01  0.51100000000E-03 0. -1.
        -11    1    3    3    0    0  0.23102523550E+02 -0.19347545971E+02 -0.29202311195E+01  0.30275103295E+02  0.51100000000E-03 0.  1.
        -12    1    3    3    0    0 -0.20761745363E+02  0.10511687854E+02  0.24936346145E+02  0.34108166341E+02  0.00000000000E+00 0.  1.
</event>
<event>
 7    1  0.1283194E-013  0.7246149E+02  0.7816164E-02  0.1226708E+00
        -11   -1    0    0    0    0  0.00000000000E+00  0.00000000000E+00  0.45593999997E+02  0.45594000000E+02  0.51100000000E-03 0. -1.
         11   -1    0    0    0    0 -0.00000000000E+00 -0.00000000000E+00 -0.45593999997E+02  0.45594000000E+02  0.51100000000E-03 0.  1.
    9900012    2    1    2    0    0 -0.14190336392E+02 -0.72387816827E+01 -0.98446169329E+01  0.72461492324E+02  0.69999898430E+02 0.  0.
         12    1    1    2    0    0  0.14190336392E+02  0.72387816827E+01  0.98446169329E+01  0.18726507676E+02  0.00000000000E+00 0. -1.
         11    1    3    3    0    0  0.13426495886E+02  0.91423775294E+01 -0.11023298323E+01  0.16280939469E+02  0.51100000000E-03 0. -1.
        -11    1    3    3    0    0 -0.17247487191E+02 -0.31948768564E+02 -0.22338816507E+01  0.36375676689E+02  0.51100000000E-03 0.  1.
         12    1    3    3    0    0 -0.10369345087E+02  0.15567609352E+02 -0.65084054499E+01  0.19804876166E+02  0.00000000000E+00 0. -1.
</event>
<event>
 8    1  0.1283194E-013  0.7246156E+02  0.7816164E-02  0.1226708E+00
        -11   -1    0    0    0    0  0.00000000000E+00  0.00000000000E+00  0.45593999997E+02  0.45594000000E+02  0.51100000000E-03 0.  1.
         11   -1    0    0    0    0 -0.00000000000E+00 -0.00000000000E+00 -0.45593999997E+02  0.45594000000E+02  0.51100000000E-03 0. -1.
    9900012    2    1    2    0    0  0.14780047207E+02  0.45627031283E+01  0.10555159129E+02  0.72461563086E+02  0.69999990609E+02 0.  0.
         24    2    3    3    0    0  0.23085421014E+02  0.51903631046E+01  0.20864456436E+02  0.59208080436E+02  0.50103839315E+02 0.  0.
         12    1    1    2    0    0 -0.14780047207E+02 -0.45627031283E+01 -0.10555159129E+02  0.18726436914E+02  0.00000000000E+00 0. -1.
         11    1    3    3    0    0 -0.83053738073E+01 -0.62765997634E+00 -0.10309297306E+02  0.13253482649E+02  0.51100000000E-03 0. -1.
        -11    1    4    4    0    0  0.75994337203E+00  0.81379378352E+01  0.32743215542E+02  0.33747914164E+02  0.51100000000E-03 0.  1.
         12    1    4    4    0    0  0.22325477642E+02 -0.29475747306E+01 -0.11878759106E+02  0.25460166273E+02  0.00000000000E+00 0. -1.
</event>
<event>
 7    1  0.1283194E-013  0.7246156E+02  0.7816164E-02  0.1226708E+00
        -11   -1    0    0    0    0  0.00000000000E+00  0.00000000000E+00  0.45593999997E+02  0.45594000000E+02  0.51100000000E-03 0.  1.
         11   -1    0    0    0    0 -0.00000000000E+00 -0.00000000000E+00 -0.45593999997E+02  0.45594000000E+02  0.51100000000E-03 0. -1.
    9900012    2    1    2    0    0  0.44452564506E+01 -0.10109828448E+02  0.15123184366E+02  0.72461557692E+02  0.69999983583E+02 0.  0.
         12    1    1    2    0    0 -0.44452564506E+01  0.10109828448E+02 -0.15123184366E+02  0.18726442308E+02  0.00000000000E+00 0. -1.
         11    1    3    3    0    0  0.89737732599E+01  0.11553689559E+02  0.43586246220E+00  0.14635789193E+02  0.51100000000E-03 0. -1.
        -11    1    3    3    0    0 -0.16995390279E+02 -0.26746992012E+02  0.25406003191E+02  0.40616620623E+02  0.51100000000E-03 0.  1.
        -12    1    3    3    0    0  0.12466873470E+02  0.50834740050E+01 -0.10718681288E+02  0.17209147876E+02  0.00000000000E+00 0.  1.
</event>
<event>
 7    1  0.1283194E-013  0.7246154E+02  0.7816164E-02  0.1226708E+00
        -11   -1    0    0    0    0  0.00000000000E+00  0.00000000000E+00  0.45593999997E+02  0.45594000000E+02  0.51100000000E-03 0.  1.
         11   -1    0    0    0    0 -0.00000000000E+00 -0.00000000000E+00 -0.45593999997E+02  0.45594000000E+02  0.51100000000E-03 0. -1.
    9900012    2    1    2    0    0  0.34645069380E+01  0.31680063981E+01  0.18128468443E+02  0.72461536347E+02  0.69999955777E+02 0.  0.
         12    1    1    2    0    0 -0.34645069380E+01 -0.31680063981E+01 -0.18128468443E+02  0.18726463653E+02  0.00000000000E+00 0. -1.
         11    1    3    3    0    0 -0.14905021719E+02  0.11995346295E+02  0.78063935177E+01  0.20663682760E+02  0.51100000000E-03 0. -1.
        -11    1    3    3    0    0  0.17366348759E+02 -0.25759712829E+01  0.27984066469E+02  0.33035339770E+02  0.51100000000E-03 0.  1.
        -12    1    3    3    0    0  0.10031798975E+01 -0.62513686144E+01 -0.17661991544E+02  0.18762513817E+02  0.00000000000E+00 0.  1.
</event>
<event>
 7    1  0.1283194E-013  0.7246168E+02  0.7816164E-02  0.1226708E+00
        -11   -1    0    0    0    0  0.00000000000E+00  0.00000000000E+00  0.45593999997E+02  0.45594000000E+02  0.51100000000E-03 0. -1.
         11   -1    0    0    0    0 -0.00000000000E+00 -0.00000000000E+00 -0.45593999997E+02  0.45594000000E+02  0.51100000000E-03 0.  1.
    9900012    2    1    2    0    0 -0.34210556873E+01 -0.16445993797E+02 -0.82765263993E+01  0.72461675662E+02  0.70000137261E+02 0.  0.
         12    1    1    2    0    0  0.34210556873E+01  0.16445993797E+02  0.82765263993E+01  0.18726324338E+02  0.00000000000E+00 0. -1.
         11    1    3    3    0    0 -0.21047008299E+02 -0.22082308349E+00  0.19451974479E+02  0.28660157581E+02  0.51100000000E-03 0. -1.
        -11    1    3    3    0    0 -0.53506333371E+01 -0.68682022446E+01 -0.10278830556E+02  0.13470554445E+02  0.51100000000E-03 0.  1.
         12    1    3    3    0    0  0.22976585949E+02 -0.93569684684E+01 -0.17449670322E+02  0.30330963637E+02  0.00000000000E+00 0. -1.
</event>
<event>
 7    1  0.1283194E-013  0.7246156E+02  0.7816164E-02  0.1226708E+00
        -11   -1    0    0    0    0  0.00000000000E+00  0.00000000000E+00  0.45593999997E+02  0.45594000000E+02  0.51100000000E-03 0.  1.
         11   -1    0    0    0    0 -0.00000000000E+00 -0.00000000000E+00 -0.45593999997E+02  0.45594000000E+02  0.51100000000E-03 0. -1.
    9900012    2    1    2    0    0 -0.26824724100E+01 -0.11167723828E+02  0.14790733791E+02  0.72461560941E+02  0.69999987816E+02 0.  0.
         12    1    1    2    0    0  0.26824724100E+01  0.11167723828E+02 -0.14790733791E+02  0.18726439059E+02  0.00000000000E+00 0. -1.
         11    1    3    3    0    0 -0.19334585813E+02 -0.27663401617E+02 -0.84722023954E+01  0.34797531683E+02  0.51100000000E-03 0. -1.
        -11    1    3    3    0    0  0.15798118877E+02  0.34207324084E+01  0.15707117394E+02  0.22538755675E+02  0.51100000000E-03 0.  1.
         12    1    3    3    0    0  0.85399452552E+00  0.13074945380E+02  0.75558187929E+01  0.15125273583E+02  0.00000000000E+00 0. -1.
</event>
<event>
 7    1  0.1283194E-013  0.7246156E+02  0.7816164E-02  0.1226708E+00
        -11   -1    0    0    0    0  0.00000000000E+00  0.00000000000E+00  0.45593999997E+02  0.45594000000E+02  0.51100000000E-03 0. -1.
         11   -1    0    0    0    0 -0.00000000000E+00 -0.00000000000E+00 -0.45593999997E+02  0.45594000000E+02  0.51100000000E-03 0.  1.
    9900012    2    1    2    0    0 -0.59486375739E+01  0.40886310802E+01 -0.17279363258E+02  0.72461559128E+02  0.69999985454E+02 0.  0.
         12    1    1    2    0    0  0.59486375739E+01 -0.40886310802E+01  0.17279363258E+02  0.18726440872E+02  0.00000000000E+00 0. -1.
         11    1    3    3    0    0 -0.10359032961E+02  0.17425669382E+02 -0.47411399039E+01  0.20819268123E+02  0.51100000000E-03 0. -1.
        -11    1    3    3    0    0  0.50013114860E+00 -0.98703918020E+01 -0.30957125286E+02  0.32496436292E+02  0.51100000000E-03 0.  1.
        -12    1    3    3    0    0  0.39102642389E+01 -0.34666464999E+01  0.18418901931E+02  0.19145854714E+02  0.00000000000E+00 0.  1.
</event>
<event>
 7    1  0.1283194E-013  0.7246154E+02  0.7816164E-02  0.1226708E+00
        -11   -1    0    0    0    0  0.00000000000E+00  0.00000000000E+00  0.45593999997E+02  0.45594000000E+02  0.51100000000E-03 0. -1.
         11   -1    0    0    0    0 -0.00000000000E+00 -0.00000000000E+00 -0.45593999997E+02  0.45594000000E+02  0.51100000000E-03 0.  1.
    9900012    2    1    2    0    0  0.15966054226E+01  0.15736672430E+02 -0.10024391650E+02  0.72461536479E+02  0.69999955950E+02 0.  0.
         12    1    1    2    0    0 -0.15966054226E+01 -0.15736672430E+02  0.10024391650E+02  0.18726463521E+02  0.00000000000E+00 0. -1.
         11    1    3    3    0    0  0.13572461296E+02  0.92038014287E+00  0.26799370644E+02  0.30054368608E+02  0.51100000000E-03 0. -1.
        -11    1    3    3    0    0 -0.68179956998E+01  0.35610984999E+01 -0.83210408992E+01  0.11331646385E+02  0.51100000000E-03 0.  1.
         12    1    3    3    0    0 -0.51578601734E+01  0.11255193787E+02 -0.28502721395E+02  0.31075521487E+02  0.00000000000E+00 0. -1.
</event>
<event>
 7    1  0.1283194E-013  0.7246161E+02  0.7816164E-02  0.1226708E+00
        -11   -1    0    0    0    0  0.00000000000E+00  0.00000000000E+00  0.45593999997E+02  0.45594000000E+02  0.51100000000E-03 0. -1.
         11   -1    0    0    0    0 -0.00000000000E+00 -0.00000000000E+00 -0.45593999997E+02  0.45594000000E+02  0.51100000000E-03 0.  1.
    9900012    2    1    2    0    0 -0.16805615918E+02  0.75141797890E+01 -0.34330593372E+01  0.72461614319E+02  0.70000057350E+02 0.  0.
         12    1    1    2    0    0  0.16805615918E+02 -0.75141797890E+01  0.34330593372E+01  0.18726385681E+02  0.00000000000E+00 0. -1.
         11    1    3    3    0    0 -0.10997412910E+02  0.89017117175E+01  0.52290752295E+01  0.15083991190E+02  0.51100000000E-03 0. -1.
        -11    1    3    3    0    0  0.15931674209E+02  0.95418502219E+01 -0.22666748020E+02  0.29302672486E+02  0.51100000000E-03 0.  1.
        -12    1    3    3    0    0 -0.21739877217E+02 -0.10929382150E+02  0.14004613453E+02  0.28074950642E+02  0.00000000000E+00 0.  1.
</event>
<event>
 7    1  0.1283194E-013  0.7246168E+02  0.7816164E-02  0.1226708E+00
        -11   -1    0    0    0    0  0.00000000000E+00  0.00000000000E+00  0.45593999997E+02  0.45594000000E+02  0.51100000000E-03 0. -1.
         11   -1    0    0    0    0 -0.00000000000E+00 -0.00000000000E+00 -0.45593999997E+02  0.45594000000E+02  0.51100000000E-03 0.  1.
    9900012    2    1    2    0    0  0.12156903786E+02 -0.11157619161E+02 -0.88539355688E+01  0.72461682956E+02  0.70000146762E+02 0.  0.
         12    1    1    2    0    0 -0.12156903786E+02  0.11157619161E+02  0.88539355688E+01  0.18726317044E+02  0.00000000000E+00 0. -1.
         11    1    3    3    0    0 -0.48116940102E+00  0.52304587558E+01  0.18799720076E+02  0.19519700253E+02  0.51100000000E-03 0. -1.
        -11    1    3    3    0    0  0.20236132370E+02 -0.24746547043E+02 -0.13168491694E+02  0.34573137225E+02  0.51100000000E-03 0.  1.
        -12    1    3    3    0    0 -0.75980591829E+01  0.83584691266E+01 -0.14485163950E+02  0.18368845477E+02  0.00000000000E+00 0.  1.
</event>
<event>
 7    1  0.1283194E-013  0.7246161E+02  0.7816164E-02  0.1226708E+00
        -11   -1    0    0    0    0  0.00000000000E+00  0.00000000000E+00  0.45593999997E+02  0.45594000000E+02  0.51100000000E-03 0. -1.
         11   -1    0    0    0    0 -0.00000000000E+00 -0.00000000000E+00 -0.45593999997E+02  0.45594000000E+02  0.51100000000E-03 0.  1.
    9900012    2    1    2    0    0  0.14645094088E+02  0.11200147993E+02  0.32795589498E+01  0.72461612126E+02  0.70000054494E+02 0.  0.
         12    1    1    2    0    0 -0.14645094088E+02 -0.11200147993E+02 -0.32795589498E+01  0.18726387874E+02  0.00000000000E+00 0. -1.
         11    1    3    3    0    0  0.14934292510E+02  0.21681228812E+02  0.29468897606E+02  0.39516132173E+02  0.51100000000E-03 0. -1.
        -11    1    3    3    0    0  0.54784660425E+01  0.17552569591E+01 -0.41790268013E+01  0.71104699169E+01  0.51100000000E-03 0.  1.
         12    1    3    3    0    0 -0.57676644649E+01 -0.12236337778E+02 -0.22010311855E+02  0.25835010036E+02  0.00000000000E+00 0. -1.
</event>
<event>
 7    1  0.1283194E-013  0.7246156E+02  0.7816164E-02  0.1226708E+00
        -11   -1    0    0    0    0  0.00000000000E+00  0.00000000000E+00  0.45593999997E+02  0.45594000000E+02  0.51100000000E-03 0.  1.
         11   -1    0    0    0    0 -0.00000000000E+00 -0.00000000000E+00 -0.45593999997E+02  0.45594000000E+02  0.51100000000E-03 0. -1.
    9900012    2    1    2    0    0  0.48213046132E+01  0.17699494347E+02  0.37633002700E+01  0.72461561277E+02  0.69999988254E+02 0.  0.
         12    1    1    2    0    0 -0.48213046132E+01 -0.17699494347E+02 -0.37633002700E+01  0.18726438723E+02  0.00000000000E+00 0. -1.
         11    1    3    3    0    0 -0.56940687450E+01  0.38564654110E+02  0.92073672958E+01  0.40055343942E+02  0.51100000000E-03 0. -1.
        -11    1    3    3    0    0  0.17065748963E+02 -0.15788064238E+02 -0.62649916335E+01  0.24078058071E+02  0.51100000000E-03 0.  1.
         12    1    3    3    0    0 -0.65503756044E+01 -0.50770955254E+01  0.82092460778E+00  0.83281592650E+01  0.00000000000E+00 0. -1.
</event>
<event>
 7    1  0.1283194E-013  0.7246159E+02  0.7816164E-02  0.1226708E+00
        -11   -1    0    0    0    0  0.00000000000E+00  0.00000000000E+00  0.45593999997E+02  0.45594000000E+02  0.51100000000E-03 0. -1.
         11   -1    0    0    0    0 -0.00000000000E+00 -0.00000000000E+00 -0.45593999997E+02  0.45594000000E+02  0.51100000000E-03 0.  1.
    9900012    2    1    2    0    0  0.58113950216E+01  0.14324065894E+02  0.10570104585E+02  0.72461593864E+02  0.70000030703E+02 0.  0.
         12    1    1    2    0    0 -0.58113950216E+01 -0.14324065894E+02 -0.10570104585E+02  0.18726406136E+02  0.00000000000E+00 0. -1.
         11    1    3    3    0    0 -0.10039927883E+02 -0.35853801782E+01  0.34001342367E+02  0.35633500894E+02  0.51100000000E-03 0. -1.
        -11    1    3    3    0    0  0.41142717780E+00 -0.24543990841E+01 -0.40544014185E+01  0.47572595378E+01  0.51100000000E-03 0.  1.
         12    1    3    3    0    0  0.15439895726E+02  0.20363845156E+02 -0.19376836363E+02  0.32070833432E+02  0.00000000000E+00 0. -1.
</event>
<event>
 7    1  0.1283194E-013  0.7246156E+02  0.7816164E-02  0.1226708E+00
        -11   -1    0    0    0    0  0.00000000000E+00  0.00000000000E+00  0.45593999997E+02  0.45594000000E+02  0.51100000000E-03 0. -1.
         11   -1    0    0    0    0 -0.00000000000E+00 -0.00000000000E+00 -0.45593999997E+02  0.45594000000E+02  0.51100000000E-03 0.  1.
    9900012    2    1    2    0    0 -0.10805890048E+02 -0.14544086173E+02  0.47309337091E+01  0.72461563177E+02  0.69999990728E+02 0.  0.
         12    1    1    2    0    0  0.10805890048E+02  0.14544086173E+02 -0.47309337091E+01  0.18726436823E+02  0.00000000000E+00 0. -1.
         11    1    3    3    0    0 -0.10254635818E+02  0.90981537336E+01  0.21269916816E+02  0.25305005804E+02  0.51100000000E-03 0. -1.
        -11    1    3    3    0    0 -0.18081203934E+02 -0.17994155742E+02 -0.11985627017E+02  0.28184655964E+02  0.51100000000E-03 0.  1.
         12    1    3    3    0    0  0.17529949704E+02 -0.56480841646E+01 -0.45533560906E+01  0.18971901409E+02  0.00000000000E+00 0. -1.
</event>
<event>
 7    1  0.1283194E-013  0.7246169E+02  0.7816164E-02  0.1226708E+00
        -11   -1    0    0    0    0  0.00000000000E+00  0.00000000000E+00  0.45593999997E+02  0.45594000000E+02  0.51100000000E-03 0. -1.
         11   -1    0    0    0    0 -0.00000000000E+00 -0.00000000000E+00 -0.45593999997E+02  0.45594000000E+02  0.51100000000E-03 0.  1.
    9900012    2    1    2    0    0 -0.10961877964E+02 -0.25398627670E+00 -0.15180493767E+02  0.72461690472E+02  0.70000156554E+02 0.  0.
         12    1    1    2    0    0  0.10961877964E+02  0.25398627670E+00  0.15180493767E+02  0.18726309528E+02  0.00000000000E+00 0. -1.
         11    1    3    3    0    0  0.15918640240E+02 -0.11328773687E+02 -0.26822451926E+01  0.19721527828E+02  0.51100000000E-03 0. -1.
        -11    1    3    3    0    0 -0.33861366034E+02 -0.32358227177E+01 -0.13921482010E+02  0.36754187788E+02  0.51100000000E-03 0.  1.
         12    1    3    3    0    0  0.69808478301E+01  0.14310610128E+02  0.14232334356E+01  0.15985974855E+02  0.00000000000E+00 0. -1.
</event>
<event>
 7    1  0.1283194E-013  0.7246152E+02  0.7816164E-02  0.1226708E+00
        -11   -1    0    0    0    0  0.00000000000E+00  0.00000000000E+00  0.45593999997E+02  0.45594000000E+02  0.51100000000E-03 0. -1.
         11   -1    0    0    0    0 -0.00000000000E+00 -0.00000000000E+00 -0.45593999997E+02  0.45594000000E+02  0.51100000000E-03 0.  1.
    9900012    2    1    2    0    0  0.37231349498E+01 -0.14821661439E+02 -0.10823009099E+02  0.72461523886E+02  0.69999939545E+02 0.  0.
         12    1    1    2    0    0 -0.37231349498E+01  0.14821661439E+02  0.10823009099E+02  0.18726476114E+02  0.00000000000E+00 0. -1.
         11    1    3    3    0    0 -0.78351214043E+01 -0.24833440445E+02 -0.32530729708E+02  0.41669380453E+02  0.51100000000E-03 0. -1.
        -11    1    3    3    0    0  0.90320921399E+01  0.82967498480E+01  0.41148179208E+01  0.12936246490E+02  0.51100000000E-03 0.  1.
         12    1    3    3    0    0  0.25261642142E+01  0.17150291574E+01  0.17592902688E+02  0.17855896943E+02  0.00000000000E+00 0. -1.
</event>
<event>
 7    1  0.1283194E-013  0.7246133E+02  0.7816164E-02  0.1226709E+00
        -11   -1    0    0    0    0  0.00000000000E+00  0.00000000000E+00  0.45593999997E+02  0.45594000000E+02  0.51100000000E-03 0. -1.
         11   -1    0    0    0    0 -0.00000000000E+00 -0.00000000000E+00 -0.45593999997E+02  0.45594000000E+02  0.51100000000E-03 0.  1.
    9900012    2    1    2    0    0  0.25411814985E+00  0.18280574975E+02 -0.40551308438E+01  0.72461332287E+02  0.69999689951E+02 0.  0.
         12    1    1    2    0    0 -0.25411814985E+00 -0.18280574975E+02  0.40551308438E+01  0.18726667713E+02  0.00000000000E+00 0. -1.
         11    1    3    3    0    0 -0.93276322313E+00  0.24636452194E+02 -0.28556930203E+02  0.37726954381E+02  0.51100000000E-03 0.  1.
        -11    1    3    3    0    0  0.20155761933E+01 -0.75685847618E+01  0.28980879247E+02  0.30020615998E+02  0.51100000000E-03 0. -1.
         12    1    3    3    0    0 -0.82869482032E+00  0.12127075432E+01 -0.44790798879E+01  0.47137619087E+01  0.00000000000E+00 0. -1.
</event>
<event>
 7    1  0.1283194E-013  0.7246156E+02  0.7816164E-02  0.1226708E+00
        -11   -1    0    0    0    0  0.00000000000E+00  0.00000000000E+00  0.45593999997E+02  0.45594000000E+02  0.51100000000E-03 0.  1.
         11   -1    0    0    0    0 -0.00000000000E+00 -0.00000000000E+00 -0.45593999997E+02  0.45594000000E+02  0.51100000000E-03 0. -1.
    9900012    2    1    2    0    0  0.85979051351E+01 -0.12572754388E+02  0.10894103166E+02  0.72461558549E+02  0.69999984700E+02 0.  0.
         12    1    1    2    0    0 -0.85979051351E+01  0.12572754388E+02 -0.10894103166E+02  0.18726441451E+02  0.00000000000E+00 0. -1.
         11    1    3    3    0    0  0.10664775668E+02 -0.29788886030E+02  0.29864916469E+01  0.31781036855E+02  0.51100000000E-03 0. -1.
        -11    1    3    3    0    0  0.15487719710E+02  0.14759396266E+02  0.83071955461E+01  0.22950353768E+02  0.51100000000E-03 0.  1.
         12    1    3    3    0    0 -0.17554590243E+02  0.24567353760E+01 -0.39958402659E+00  0.17730167927E+02  0.00000000000E+00 0. -1.
</event>
<event>
 7    1  0.1283194E-013  0.7246157E+02  0.7816164E-02  0.1226708E+00
        -11   -1    0    0    0    0  0.00000000000E+00  0.00000000000E+00  0.45593999997E+02  0.45594000000E+02  0.51100000000E-03 0.  1.
         11   -1    0    0    0    0 -0.00000000000E+00 -0.00000000000E+00 -0.45593999997E+02  0.45594000000E+02  0.51100000000E-03 0. -1.
    9900012    2    1    2    0    0 -0.96271166919E+01 -0.13872134273E+02  0.80970103216E+01  0.72461573185E+02  0.70000003766E+02 0.  0.
         12    1    1    2    0    0  0.96271166919E+01  0.13872134273E+02 -0.80970103216E+01  0.18726426815E+02  0.00000000000E+00 0. -1.
         11    1    3    3    0    0  0.22967359549E+01 -0.36478096841E+02  0.83394655593E+01  0.37489641653E+02  0.51100000000E-03 0.  1.
        -11    1    3    3    0    0 -0.73376153795E+00  0.16849953746E+02 -0.94929459630E+01  0.19353949740E+02  0.51100000000E-03 0. -1.
        -12    1    3    3    0    0 -0.11190091109E+02  0.57560088222E+01  0.92504907253E+01  0.15617981792E+02  0.00000000000E+00 0.  1.
</event>
<event>
 7    1  0.1283194E-013  0.7246160E+02  0.7816164E-02  0.1226708E+00
        -11   -1    0    0    0    0  0.00000000000E+00  0.00000000000E+00  0.45593999997E+02  0.45594000000E+02  0.51100000000E-03 0. -1.
         11   -1    0    0    0    0 -0.00000000000E+00 -0.00000000000E+00 -0.45593999997E+02  0.45594000000E+02  0.51100000000E-03 0.  1.
    9900012    2    1    2    0    0  0.63351581020E+01  0.13279638816E+02 -0.11584249604E+02  0.72461604881E+02  0.70000045056E+02 0.  0.
         12    1    1    2    0    0 -0.63351581020E+01 -0.13279638816E+02  0.11584249604E+02  0.18726395119E+02  0.00000000000E+00 0. -1.
         11    1    3    3    0    0  0.20898837155E+02 -0.64763352387E+00 -0.23885486994E+02  0.31744248500E+02  0.51100000000E-03 0. -1.
        -11    1    3    3    0    0 -0.14282306881E+02  0.12745911188E+02 -0.77335253363E+01  0.20645821763E+02  0.51100000000E-03 0.  1.
         12    1    3    3    0    0 -0.28137217173E+00  0.11813611517E+01  0.20034762726E+02  0.20071534619E+02  0.00000000000E+00 0. -1.
</event>
<event>
 7    1  0.1283194E-013  0.7246145E+02  0.7816164E-02  0.1226708E+00
        -11   -1    0    0    0    0  0.00000000000E+00  0.00000000000E+00  0.45593999997E+02  0.45594000000E+02  0.51100000000E-03 0.  1.
         11   -1    0    0    0    0 -0.00000000000E+00 -0.00000000000E+00 -0.45593999997E+02  0.45594000000E+02  0.51100000000E-03 0. -1.
    9900012    2    1    2    0    0 -0.17189478772E+02 -0.44934926356E+01 -0.59172718667E+01  0.72461447652E+02  0.69999840235E+02 0.  0.
         12    1    1    2    0    0  0.17189478772E+02  0.44934926356E+01  0.59172718667E+01  0.18726552348E+02  0.00000000000E+00 0. -1.
         11    1    3    3    0    0  0.43699967914E+01  0.25039698663E+02  0.15384971335E+02  0.29711626080E+02  0.51100000000E-03 0.  1.
        -11    1    3    3    0    0 -0.14245989883E+02 -0.23104951112E+02 -0.13753251742E+02  0.30429244607E+02  0.51100000000E-03 0. -1.
        -12    1    3    3    0    0 -0.73134856800E+01 -0.64282401865E+01 -0.75489914592E+01  0.12320576964E+02  0.00000000000E+00 0.  1.
</event>
<event>
 7    1  0.1283194E-013  0.7246158E+02  0.7816164E-02  0.1226708E+00
        -11   -1    0    0    0    0  0.00000000000E+00  0.00000000000E+00  0.45593999997E+02  0.45594000000E+02  0.51100000000E-03 0.  1.
         11   -1    0    0    0    0 -0.00000000000E+00 -0.00000000000E+00 -0.45593999997E+02  0.45594000000E+02  0.51100000000E-03 0. -1.
    9900012    2    1    2    0    0  0.14666658581E+02 -0.11228727352E+02 -0.30795447341E+01  0.72461580491E+02  0.70000013283E+02 0.  0.
         12    1    1    2    0    0 -0.14666658581E+02  0.11228727352E+02  0.30795447341E+01  0.18726419509E+02  0.00000000000E+00 0. -1.
         11    1    3    3    0    0  0.18111789035E+02 -0.12024443506E+00 -0.88669180270E+01  0.20166149764E+02  0.51100000000E-03 0. -1.
        -11    1    3    3    0    0 -0.51010622875E+01 -0.31183907535E+02  0.59369458003E+01  0.32151271380E+02  0.51100000000E-03 0.  1.
        -12    1    3    3    0    0  0.16559318333E+01  0.20075424618E+02 -0.14957250737E+00  0.20144159347E+02  0.00000000000E+00 0.  1.
</event>
<event>
 7    1  0.1283194E-013  0.7246155E+02  0.7816164E-02  0.1226708E+00
        -11   -1    0    0    0    0  0.00000000000E+00  0.00000000000E+00  0.45593999997E+02  0.45594000000E+02  0.51100000000E-03 0. -1.
         11   -1    0    0    0    0 -0.00000000000E+00 -0.00000000000E+00 -0.45593999997E+02  0.45594000000E+02  0.51100000000E-03 0.  1.
    9900012    2    1    2    0    0 -0.85910295391E+01 -0.16185812089E+02 -0.38592054087E+01  0.72461554317E+02  0.69999979186E+02 0.  0.
         12    1    1    2    0    0  0.85910295391E+01  0.16185812089E+02  0.38592054087E+01  0.18726445683E+02  0.00000000000E+00 0. -1.
         11    1    3    3    0    0  0.16207811109E+02 -0.15466520690E+02  0.12083764861E+02  0.25454346911E+02  0.51100000000E-03 0. -1.
        -11    1    3    3    0    0 -0.29685834812E+02  0.10681457916E+02 -0.13730571549E+02  0.34407425463E+02  0.51100000000E-03 0.  1.
        -12    1    3    3    0    0  0.48869941636E+01 -0.11400749315E+02 -0.22123987212E+01  0.12599781943E+02  0.00000000000E+00 0.  1.
</event>
<event>
 7    1  0.1283194E-013  0.7246160E+02  0.7816164E-02  0.1226708E+00
        -11   -1    0    0    0    0  0.00000000000E+00  0.00000000000E+00  0.45593999997E+02  0.45594000000E+02  0.51100000000E-03 0.  1.
         11   -1    0    0    0    0 -0.00000000000E+00 -0.00000000000E+00 -0.45593999997E+02  0.45594000000E+02  0.51100000000E-03 0. -1.
    9900012    2    1    2    0    0 -0.48531776761E-01  0.15736602223E+02  0.10150609894E+02  0.72461604562E+02  0.70000044640E+02 0.  0.
         12    1    1    2    0    0  0.48531776761E-01 -0.15736602223E+02 -0.10150609894E+02  0.18726395438E+02  0.00000000000E+00 0. -1.
         11    1    3    3    0    0  0.22659808331E+01  0.97505374509E+01 -0.15500783200E+02  0.18452152443E+02  0.51100000000E-03 0. -1.
        -11    1    3    3    0    0  0.14091727616E+02  0.71828480536E+00  0.32528209792E+02  0.35456694048E+02  0.51100000000E-03 0.  1.
        -12    1    3    3    0    0 -0.16406240226E+02  0.52677799672E+01 -0.68768166983E+01  0.18552758071E+02  0.00000000000E+00 0.  1.
</event>
<event>
 7    1  0.1283194E-013  0.7246154E+02  0.7816164E-02  0.1226708E+00
        -11   -1    0    0    0    0  0.00000000000E+00  0.00000000000E+00  0.45593999997E+02  0.45594000000E+02  0.51100000000E-03 0. -1.
         11   -1    0    0    0    0 -0.00000000000E+00 -0.00000000000E+00 -0.45593999997E+02  0.45594000000E+02  0.51100000000E-03 0.  1.
    9900012    2    1    2    0    0 -0.18620053904E+02  0.19784943850E+01 -0.24368342335E+00  0.72461542005E+02  0.69999963148E+02 0.  0.
         12    1    1    2    0    0  0.18620053904E+02 -0.19784943850E+01  0.24368342335E+00  0.18726457995E+02  0.00000000000E+00 0. -1.
         11    1    3    3    0    0 -0.65707925350E+01  0.24486626188E+02  0.13481615096E+02  0.28714528074E+02  0.51100000000E-03 0. -1.
        -11    1    3    3    0    0 -0.20212164023E+02 -0.37839557368E+01 -0.33415579938E+01  0.20833048399E+02  0.51100000000E-03 0.  1.
         12    1    3    3    0    0  0.81629026543E+01 -0.18724176067E+02 -0.10383740526E+02  0.22913965532E+02  0.00000000000E+00 0. -1.
</event>
<event>
 7    1  0.1283194E-013  0.7246119E+02  0.7816164E-02  0.1226709E+00
        -11   -1    0    0    0    0  0.00000000000E+00  0.00000000000E+00  0.45593999997E+02  0.45594000000E+02  0.51100000000E-03 0. -1.
         11   -1    0    0    0    0 -0.00000000000E+00 -0.00000000000E+00 -0.45593999997E+02  0.45594000000E+02  0.51100000000E-03 0.  1.
    9900012    2    1    2    0    0  0.10748823793E+02  0.37090455774E+01 -0.14879494193E+02  0.72461185549E+02  0.69999498796E+02 0.  0.
         12    1    1    2    0    0 -0.10748823793E+02 -0.37090455774E+01  0.14879494193E+02  0.18726814451E+02  0.00000000000E+00 0. -1.
         11    1    3    3    0    0 -0.14195226475E+02 -0.13208703442E+02 -0.14374321781E+02  0.24137013656E+02  0.51100000000E-03 0. -1.
        -11    1    3    3    0    0  0.23491418871E+02  0.24916167939E+02 -0.10143953722E+02  0.35715010607E+02  0.51100000000E-03 0.  1.
         12    1    3    3    0    0  0.14526313979E+01 -0.79984189200E+01  0.96387813096E+01  0.12609161286E+02  0.00000000000E+00 0. -1.
</event>
<event>
 7    1  0.1283194E-013  0.7246160E+02  0.7816164E-02  0.1226708E+00
        -11   -1    0    0    0    0  0.00000000000E+00  0.00000000000E+00  0.45593999997E+02  0.45594000000E+02  0.51100000000E-03 0. -1.
         11   -1    0    0    0    0 -0.00000000000E+00 -0.00000000000E+00 -0.45593999997E+02  0.45594000000E+02  0.51100000000E-03 0.  1.
    9900012    2    1    2    0    0 -0.10551288773E+02 -0.15359586861E+02 -0.18524392517E+01  0.72461597930E+02  0.70000036001E+02 0.  0.
         12    1    1    2    0    0  0.10551288773E+02  0.15359586861E+02  0.18524392517E+01  0.18726402070E+02  0.00000000000E+00 0. -1.
         11    1    3    3    0    0 -0.11980378643E+02  0.35344870255E+01  0.14650805476E+02  0.19252744540E+02  0.51100000000E-03 0. -1.
        -11    1    3    3    0    0  0.40761917010E+01 -0.32853751839E+02 -0.24050683246E+01  0.33192901389E+02  0.51100000000E-03 0.  1.
        -12    1    3    3    0    0 -0.26471018310E+01  0.13959677953E+02 -0.14098176403E+02  0.20015952002E+02  0.00000000000E+00 0.  1.
</event>
<event>
 7    1  0.1283194E-013  0.7246162E+02  0.7816164E-02  0.1226708E+00
        -11   -1    0    0    0    0  0.00000000000E+00  0.00000000000E+00  0.45593999997E+02  0.45594000000E+02  0.51100000000E-03 0.  1.
         11   -1    0    0    0    0 -0.00000000000E+00 -0.00000000000E+00 -0.45593999997E+02  0.45594000000E+02  0.51100000000E-03 0. -1.
    9900012    2    1    2    0    0  0.79263268530E+00  0.15292448192E+02  0.10779158172E+02  0.72461615160E+02  0.70000058446E+02 0.  0.
         12    1    1    2    0    0 -0.79263268530E+00 -0.15292448192E+02 -0.10779158172E+02  0.18726384840E+02  0.00000000000E+00 0. -1.
         11    1    3    3    0    0 -0.51622435930E+01 -0.71310071803E+01 -0.20771476062E+02  0.22560014193E+02  0.51100000000E-03 0. -1.
        -11    1    3    3    0    0  0.15902204595E+02  0.21712974355E+02  0.29089072028E+02  0.39629628790E+02  0.51100000000E-03 0.  1.
        -12    1    3    3    0    0 -0.99473283172E+01  0.71048101677E+00  0.24615622055E+01  0.10271972178E+02  0.00000000000E+00 0.  1.
</event>
<event>
 7    1  0.1283194E-013  0.7246165E+02  0.7816164E-02  0.1226708E+00
        -11   -1    0    0    0    0  0.00000000000E+00  0.00000000000E+00  0.45593999997E+02  0.45594000000E+02  0.51100000000E-03 0.  1.
         11   -1    0    0    0    0 -0.00000000000E+00 -0.00000000000E+00 -0.45593999997E+02  0.45594000000E+02  0.51100000000E-03 0. -1.
    9900012    2    1    2    0    0 -0.22787069585E+01 -0.17855576039E+02  0.51635338621E+01  0.72461650035E+02  0.70000103877E+02 0.  0.
         12    1    1    2    0    0  0.22787069585E+01  0.17855576039E+02 -0.51635338621E+01  0.18726349965E+02  0.00000000000E+00 0. -1.
         11    1    3    3    0    0 -0.23862549668E+02 -0.57034382424E+01 -0.99297614797E+01  0.26467917329E+02  0.51100000000E-03 0. -1.
        -11    1    3    3    0    0  0.21524581915E+02 -0.19008639046E+02 -0.75430130513E+00  0.28726380832E+02  0.51100000000E-03 0.  1.
        -12    1    3    3    0    0  0.59260794374E-01  0.68565012492E+01  0.15847596647E+02  0.17267351873E+02  0.00000000000E+00 0.  1.
</event>
<event>
 7    1  0.1283194E-013  0.7246148E+02  0.7816164E-02  0.1226708E+00
        -11   -1    0    0    0    0  0.00000000000E+00  0.00000000000E+00  0.45593999997E+02  0.45594000000E+02  0.51100000000E-03 0. -1.
         11   -1    0    0    0    0 -0.00000000000E+00 -0.00000000000E+00 -0.45593999997E+02  0.45594000000E+02  0.51100000000E-03 0.  1.
    9900012    2    1    2    0    0 -0.54866796323E+01 -0.76325095496E+01 -0.16196414178E+02  0.72461476360E+02  0.69999877633E+02 0.  0.
         12    1    1    2    0    0  0.54866796323E+01  0.76325095496E+01  0.16196414178E+02  0.18726523640E+02  0.00000000000E+00 0. -1.
         11    1    3    3    0    0  0.16601740957E+02 -0.43837792772E+01 -0.32708892022E+02  0.36941940138E+02  0.51100000000E-03 0. -1.
        -11    1    3    3    0    0 -0.15980792776E+02  0.78093432727E+01  0.14009017525E+02  0.22641204746E+02  0.51100000000E-03 0.  1.
        -12    1    3    3    0    0 -0.61076278136E+01 -0.11058073545E+02  0.25034603198E+01  0.12878331476E+02  0.00000000000E+00 0.  1.
</event>
<event>
 7    1  0.1283194E-013  0.7246155E+02  0.7816164E-02  0.1226708E+00
        -11   -1    0    0    0    0  0.00000000000E+00  0.00000000000E+00  0.45593999997E+02  0.45594000000E+02  0.51100000000E-03 0. -1.
         11   -1    0    0    0    0 -0.00000000000E+00 -0.00000000000E+00 -0.45593999997E+02  0.45594000000E+02  0.51100000000E-03 0.  1.
    9900012    2    1    2    0    0 -0.85986604359E+01 -0.15801811057E+02  0.52005380605E+01  0.72461553725E+02  0.69999978416E+02 0.  0.
         12    1    1    2    0    0  0.85986604359E+01  0.15801811057E+02 -0.52005380605E+01  0.18726446275E+02  0.00000000000E+00 0. -1.
         11    1    3    3    0    0 -0.82063222242E+01  0.13225819035E+02  0.12979647960E+02  0.20266654263E+02  0.51100000000E-03 0. -1.
        -11    1    3    3    0    0 -0.12890727006E+02 -0.15151037267E+02 -0.21295499712E+02  0.29141432382E+02  0.51100000000E-03 0.  1.
         12    1    3    3    0    0  0.12498388794E+02 -0.13876592825E+02  0.13516389813E+02  0.23053467081E+02  0.00000000000E+00 0. -1.
</event>
<event>
 7    1  0.1283194E-013  0.7246159E+02  0.7816164E-02  0.1226708E+00
        -11   -1    0    0    0    0  0.00000000000E+00  0.00000000000E+00  0.45593999997E+02  0.45594000000E+02  0.51100000000E-03 0. -1.
         11   -1    0    0    0    0 -0.00000000000E+00 -0.00000000000E+00 -0.45593999997E+02  0.45594000000E+02  0.51100000000E-03 0.  1.
    9900012    2    1    2    0    0  0.68016518719E+01 -0.60308157496E+01 -0.16372087984E+02  0.72461588925E+02  0.70000024270E+02 0.  0.
         12    1    1    2    0    0 -0.68016518719E+01  0.60308157496E+01  0.16372087984E+02  0.18726411075E+02  0.00000000000E+00 0. -1.
         11    1    3    3    0    0  0.29053292044E+02 -0.94112328986E+01 -0.63632395067E+00  0.30546194390E+02  0.51100000000E-03 0. -1.
        -11    1    3    3    0    0 -0.21739547069E+02  0.15502283009E+02 -0.10257236234E+02  0.28603139350E+02  0.51100000000E-03 0.  1.
        -12    1    3    3    0    0 -0.51209310273E+00 -0.12121865860E+02 -0.54785277998E+01  0.13312255185E+02  0.00000000000E+00 0.  1.
</event>
<event>
 7    1  0.1283194E-013  0.7246153E+02  0.7816164E-02  0.1226708E+00
        -11   -1    0    0    0    0  0.00000000000E+00  0.00000000000E+00  0.45593999997E+02  0.45594000000E+02  0.51100000000E-03 0. -1.
         11   -1    0    0    0    0 -0.00000000000E+00 -0.00000000000E+00 -0.45593999997E+02  0.45594000000E+02  0.51100000000E-03 0.  1.
    9900012    2    1    2    0    0  0.39192240363E+01 -0.40549142230E+01 -0.17857158046E+02  0.72461528365E+02  0.69999945379E+02 0.  0.
         12    1    1    2    0    0 -0.39192240363E+01  0.40549142230E+01  0.17857158046E+02  0.18726471635E+02  0.00000000000E+00 0. -1.
         11    1    3    3    0    0 -0.19711144006E+02  0.32803835907E+01  0.68390623203E+01  0.21120200951E+02  0.51100000000E-03 0. -1.
        -11    1    3    3    0    0 -0.48381962021E+01 -0.14877179885E+01 -0.21517780712E+02  0.22105120093E+02  0.51100000000E-03 0.  1.
         12    1    3    3    0    0  0.28468564244E+02 -0.58475798251E+01 -0.31784396549E+01  0.29236207322E+02  0.00000000000E+00 0. -1.
</event>
<event>
 7    1  0.1283194E-013  0.7246150E+02  0.7816164E-02  0.1226708E+00
        -11   -1    0    0    0    0  0.00000000000E+00  0.00000000000E+00  0.45593999997E+02  0.45594000000E+02  0.51100000000E-03 0.  1.
         11   -1    0    0    0    0 -0.00000000000E+00 -0.00000000000E+00 -0.45593999997E+02  0.45594000000E+02  0.51100000000E-03 0. -1.
    9900012    2    1    2    0    0 -0.13576623425E+02 -0.10186330641E+02  0.79117584653E+01  0.72461495853E+02  0.69999903026E+02 0.  0.
         12    1    1    2    0    0  0.13576623425E+02  0.10186330641E+02 -0.79117584653E+01  0.18726504147E+02  0.00000000000E+00 0. -1.
         11    1    3    3    0    0 -0.30473497002E+02 -0.17341321639E+01  0.15660942619E+02  0.34306068820E+02  0.51100000000E-03 0. -1.
        -11    1    3    3    0    0  0.76426784062E+01  0.71895751814E+01  0.87092054930E+01  0.13636377271E+02  0.51100000000E-03 0.  1.
         12    1    3    3    0    0  0.92541951706E+01 -0.15641773659E+02 -0.16458389646E+02  0.24519049761E+02  0.00000000000E+00 0. -1.
</event>
<event>
 7    1  0.1283194E-013  0.7246127E+02  0.7816164E-02  0.1226709E+00
        -11   -1    0    0    0    0  0.00000000000E+00  0.00000000000E+00  0.45593999997E+02  0.45594000000E+02  0.51100000000E-03 0. -1.
         11   -1    0    0    0    0 -0.00000000000E+00 -0.00000000000E+00 -0.45593999997E+02  0.45594000000E+02  0.51100000000E-03 0.  1.
    9900012    2    1    2    0    0 -0.79870654565E+01 -0.66742471266E+00 -0.16924882098E+02  0.72461272994E+02  0.69999612710E+02 0.  0.
         12    1    1    2    0    0  0.79870654565E+01  0.66742471266E+00  0.16924882098E+02  0.18726727006E+02  0.00000000000E+00 0. -1.
         11    1    3    3    0    0 -0.94016578679E+01 -0.81682813117E+01 -0.29105403223E+02  0.31658118821E+02  0.51100000000E-03 0.  1.
        -11    1    3    3    0    0  0.15992220721E+02  0.14716762743E+02  0.11344311198E+02  0.24515864783E+02  0.51100000000E-03 0. -1.
        -12    1    3    3    0    0 -0.14577628310E+02 -0.72159061436E+01  0.83620992820E+00  0.16287289390E+02  0.00000000000E+00 0.  1.
</event>
<event>
 7    1  0.1283194E-013  0.7246158E+02  0.7816164E-02  0.1226708E+00
        -11   -1    0    0    0    0  0.00000000000E+00  0.00000000000E+00  0.45593999997E+02  0.45594000000E+02  0.51100000000E-03 0.  1.
         11   -1    0    0    0    0 -0.00000000000E+00 -0.00000000000E+00 -0.45593999997E+02  0.45594000000E+02  0.51100000000E-03 0. -1.
    9900012    2    1    2    0    0  0.80784250786E+01  0.87305530820E+01  0.14463583740E+02  0.72461581136E+02  0.70000014124E+02 0.  0.
         12    1    1    2    0    0 -0.80784250786E+01 -0.87305530820E+01 -0.14463583740E+02  0.18726418864E+02  0.00000000000E+00 0. -1.
         11    1    3    3    0    0  0.14458400474E+02 -0.18015219219E+02  0.13083641362E+02  0.26547601386E+02  0.51100000000E-03 0.  1.
        -11    1    3    3    0    0 -0.45483634144E+01  0.10318947163E+02 -0.17501568993E+02  0.20820019159E+02  0.51100000000E-03 0. -1.
        -12    1    3    3    0    0 -0.18316119812E+01  0.16426825138E+02  0.18881511370E+02  0.25093960592E+02  0.00000000000E+00 0.  1.
</event>
<event>
 7    1  0.1283194E-013  0.7246158E+02  0.7816164E-02  0.1226708E+00
        -11   -1    0    0    0    0  0.00000000000E+00  0.00000000000E+00  0.45593999997E+02  0.45594000000E+02  0.51100000000E-03 0.  1.
         11   -1    0    0    0    0 -0.00000000000E+00 -0.00000000000E+00 -0.45593999997E+02  0.45594000000E+02  0.51100000000E-03 0. -1.
    9900012    2    1    2    0    0  0.12590622634E+02 -0.13752573576E+02  0.17383570717E+01  0.72461576327E+02  0.70000007858E+02 0.  0.
         12    1    1    2    0    0 -0.12590622634E+02  0.13752573576E+02 -0.17383570717E+01  0.18726423673E+02  0.00000000000E+00 0. -1.
         11    1    3    3    0    0 -0.16690447376E+01  0.61681869689E+01 -0.22064526361E+02  0.22971189882E+02  0.51100000000E-03 0. -1.
        -11    1    3    3    0    0  0.13812840755E+02  0.13563013348E+01  0.24543163423E+02  0.28195761989E+02  0.51100000000E-03 0.  1.
        -12    1    3    3    0    0  0.44682661668E+00 -0.21277061880E+02 -0.74027999103E+00  0.21294624456E+02  0.00000000000E+00 0.  1.
</event>
<event>
 7    1  0.1283194E-013  0.7246157E+02  0.7816164E-02  0.1226708E+00
        -11   -1    0    0    0    0  0.00000000000E+00  0.00000000000E+00  0.45593999997E+02  0.45594000000E+02  0.51100000000E-03 0.  1.
         11   -1    0    0    0    0 -0.00000000000E+00 -0.00000000000E+00 -0.45593999997E+02  0.45594000000E+02  0.51100000000E-03 0. -1.
    9900012    2    1    2    0    0 -0.15757067409E+02  0.52991445094E+01 -0.86204945893E+01  0.72461573944E+02  0.70000004755E+02 0.  0.
         12    1    1    2    0    0  0.15757067409E+02 -0.52991445094E+01  0.86204945893E+01  0.18726426056E+02  0.00000000000E+00 0. -1.
         11    1    3    3    0    0  0.36833090938E+01 -0.82954165392E+01 -0.21781328369E+02  0.23596757557E+02  0.51100000000E-03 0. -1.
        -11    1    3    3    0    0 -0.29843999010E+02  0.19293160528E+01  0.26384147619E+01  0.30022454431E+02  0.51100000000E-03 0.  1.
        -12    1    3    3    0    0  0.10403622507E+02  0.11665244996E+02  0.10522419018E+02  0.18842361956E+02  0.00000000000E+00 0.  1.
</event>
<event>
 7    1  0.1283194E-013  0.7246157E+02  0.7816164E-02  0.1226708E+00
        -11   -1    0    0    0    0  0.00000000000E+00  0.00000000000E+00  0.45593999997E+02  0.45594000000E+02  0.51100000000E-03 0.  1.
         11   -1    0    0    0    0 -0.00000000000E+00 -0.00000000000E+00 -0.45593999997E+02  0.45594000000E+02  0.51100000000E-03 0. -1.
    9900012    2    1    2    0    0  0.92485090634E+01 -0.11448997319E+02  0.11578635824E+02  0.72461567690E+02  0.69999996607E+02 0.  0.
         12    1    1    2    0    0 -0.92485090634E+01  0.11448997319E+02 -0.11578635824E+02  0.18726432310E+02  0.00000000000E+00 0. -1.
         11    1    3    3    0    0 -0.17129623310E+02 -0.32622865416E+02  0.68677522548E+01  0.37481213481E+02  0.51100000000E-03 0. -1.
        -11    1    3    3    0    0  0.77246862742E+01  0.38883276224E+01  0.40278104714E+01  0.95400800410E+01  0.51100000000E-03 0.  1.
         12    1    3    3    0    0  0.18653446099E+02  0.17285540474E+02  0.68307309784E+00  0.25440274168E+02  0.00000000000E+00 0. -1.
</event>
<event>
 7    1  0.1283194E-013  0.7246163E+02  0.7816164E-02  0.1226708E+00
        -11   -1    0    0    0    0  0.00000000000E+00  0.00000000000E+00  0.45593999997E+02  0.45594000000E+02  0.51100000000E-03 0.  1.
         11   -1    0    0    0    0 -0.00000000000E+00 -0.00000000000E+00 -0.45593999997E+02  0.45594000000E+02  0.51100000000E-03 0. -1.
    9900012    2    1    2    0    0  0.29919549166E+01  0.70115116569E+01  0.17104496784E+02  0.72461630887E+02  0.70000078933E+02 0.  0.
         12    1    1    2    0    0 -0.29919549166E+01 -0.70115116569E+01 -0.17104496784E+02  0.18726369113E+02  0.00000000000E+00 0. -1.
         11    1    3    3    0    0  0.17764565622E+02  0.28599581371E+02 -0.25308291493E+01  0.33762715276E+02  0.51100000000E-03 0. -1.
        -11    1    3    3    0    0 -0.13904169589E+02 -0.53205025324E+01  0.16290411234E+02  0.22068329742E+02  0.51100000000E-03 0.  1.
         12    1    3    3    0    0 -0.86844111617E+00 -0.16267567182E+02  0.33449146986E+01  0.16630585869E+02  0.00000000000E+00 0. -1.
</event>
<event>
 7    1  0.1283194E-013  0.7246162E+02  0.7816164E-02  0.1226708E+00
        -11   -1    0    0    0    0  0.00000000000E+00  0.00000000000E+00  0.45593999997E+02  0.45594000000E+02  0.51100000000E-03 0. -1.
         11   -1    0    0    0    0 -0.00000000000E+00 -0.00000000000E+00 -0.45593999997E+02  0.45594000000E+02  0.51100000000E-03 0.  1.
    9900012    2    1    2    0    0 -0.33627294897E+01 -0.57029460704E+01 -0.17517014853E+02  0.72461618800E+02  0.70000063187E+02 0.  0.
         12    1    1    2    0    0  0.33627294897E+01  0.57029460704E+01  0.17517014853E+02  0.18726381200E+02  0.00000000000E+00 0. -1.
         11    1    3    3    0    0  0.75238237985E+01 -0.15316043386E+02 -0.23303690203E+02  0.28883405043E+02  0.51100000000E-03 0. -1.
        -11    1    3    3    0    0 -0.44827042470E+01 -0.49872199742E+01  0.20692842146E+02  0.21752257740E+02  0.51100000000E-03 0.  1.
        -12    1    3    3    0    0 -0.64038490412E+01  0.14600317290E+02 -0.14906166795E+02  0.21825956017E+02  0.00000000000E+00 0.  1.
</event>
<event>
 7    1  0.1283194E-013  0.7246159E+02  0.7816164E-02  0.1226708E+00
        -11   -1    0    0    0    0  0.00000000000E+00  0.00000000000E+00  0.45593999997E+02  0.45594000000E+02  0.51100000000E-03 0.  1.
         11   -1    0    0    0    0 -0.00000000000E+00 -0.00000000000E+00 -0.45593999997E+02  0.45594000000E+02  0.51100000000E-03 0. -1.
    9900012    2    1    2    0    0  0.68969180571E+01  0.44534617560E+01  0.16830852000E+02  0.72461591393E+02  0.70000027484E+02 0.  0.
         12    1    1    2    0    0 -0.68969180571E+01 -0.44534617560E+01 -0.16830852000E+02  0.18726408607E+02  0.00000000000E+00 0. -1.
         11    1    3    3    0    0 -0.89694145326E+01  0.61082879406E+00  0.12151588405E+02  0.15115707390E+02  0.51100000000E-03 0. -1.
        -11    1    3    3    0    0  0.25005576152E+02 -0.15780851916E+02 -0.99736722141E+01  0.31205580648E+02  0.51100000000E-03 0.  1.
        -12    1    3    3    0    0 -0.91392435626E+01  0.19623484878E+02  0.14652935808E+02  0.26140303354E+02  0.00000000000E+00 0.  1.
</event>
<event>
 7    1  0.1283194E-013  0.7246092E+02  0.7816164E-02  0.1226710E+00
        -11   -1    0    0    0    0  0.00000000000E+00  0.00000000000E+00  0.45593999997E+02  0.45594000000E+02  0.51100000000E-03 0. -1.
         11   -1    0    0    0    0 -0.00000000000E+00 -0.00000000000E+00 -0.45593999997E+02  0.45594000000E+02  0.51100000000E-03 0.  1.
    9900012    2    1    2    0    0 -0.35067720226E+01  0.14631948489E+02 -0.11149528257E+02  0.72460924762E+02  0.69999159069E+02 0.  0.
         12    1    1    2    0    0  0.35067720226E+01 -0.14631948489E+02  0.11149528257E+02  0.18727075238E+02  0.00000000000E+00 0. -1.
         11    1    3    3    0    0 -0.71480393608E+01  0.23973511552E+02  0.15324399700E+02  0.29337023524E+02  0.51100000000E-03 0. -1.
        -11    1    3    3    0    0  0.17200881546E+02 -0.56440256458E-01 -0.16851807961E+02  0.24080218921E+02  0.51100000000E-03 0.  1.
        -12    1    3    3    0    0 -0.13559614208E+02 -0.92851228058E+01 -0.96221199955E+01  0.19043682317E+02  0.00000000000E+00 0.  1.
</event>
<event>
 7    1  0.1283194E-013  0.7246160E+02  0.7816164E-02  0.1226708E+00
        -11   -1    0    0    0    0  0.00000000000E+00  0.00000000000E+00  0.45593999997E+02  0.45594000000E+02  0.51100000000E-03 0.  1.
         11   -1    0    0    0    0 -0.00000000000E+00 -0.00000000000E+00 -0.45593999997E+02  0.45594000000E+02  0.51100000000E-03 0. -1.
    9900012    2    1    2    0    0  0.17038669324E+02  0.69885345268E+01  0.33944246224E+01  0.72461601904E+02  0.70000041177E+02 0.  0.
         12    1    1    2    0    0 -0.17038669324E+02 -0.69885345268E+01 -0.33944246224E+01  0.18726398096E+02  0.00000000000E+00 0. -1.
         11    1    3    3    0    0 -0.16638839728E+02  0.33511140783E+01 -0.21294892648E+02  0.27231478222E+02  0.51100000000E-03 0. -1.
        -11    1    3    3    0    0  0.23666138191E+02 -0.54221638661E+01  0.14149922198E+02  0.28101712694E+02  0.51100000000E-03 0.  1.
         12    1    3    3    0    0  0.10011370860E+02  0.90595843146E+01  0.10539395072E+02  0.17128410987E+02  0.00000000000E+00 0. -1.
</event>
<event>
 7    1  0.1283194E-013  0.7246159E+02  0.7816164E-02  0.1226708E+00
        -11   -1    0    0    0    0  0.00000000000E+00  0.00000000000E+00  0.45593999997E+02  0.45594000000E+02  0.51100000000E-03 0.  1.
         11   -1    0    0    0    0 -0.00000000000E+00 -0.00000000000E+00 -0.45593999997E+02  0.45594000000E+02  0.51100000000E-03 0. -1.
    9900012    2    1    2    0    0  0.90514555040E+01  0.11639169511E+02 -0.11544667719E+02  0.72461589068E+02  0.70000024456E+02 0.  0.
         12    1    1    2    0    0 -0.90514555040E+01 -0.11639169511E+02  0.11544667719E+02  0.18726410932E+02  0.00000000000E+00 0. -1.
         11    1    3    3    0    0 -0.64831902980E+01 -0.25975713437E+02 -0.26174172705E+01  0.26900191791E+02  0.51100000000E-03 0. -1.
        -11    1    3    3    0    0  0.17406541246E+02  0.26176526281E+02 -0.11871894555E+02  0.33602679757E+02  0.51100000000E-03 0.  1.
        -12    1    3    3    0    0 -0.18718954445E+01  0.11438356667E+02  0.29446441061E+01  0.11958717519E+02  0.00000000000E+00 0.  1.
</event>
<event>
 7    1  0.1283194E-013  0.7246162E+02  0.7816164E-02  0.1226708E+00
        -11   -1    0    0    0    0  0.00000000000E+00  0.00000000000E+00  0.45593999997E+02  0.45594000000E+02  0.51100000000E-03 0. -1.
         11   -1    0    0    0    0 -0.00000000000E+00 -0.00000000000E+00 -0.45593999997E+02  0.45594000000E+02  0.51100000000E-03 0.  1.
    9900012    2    1    2    0    0 -0.12912853055E+02  0.13559540541E+02  0.27274438755E+00  0.72461620126E+02  0.70000064914E+02 0.  0.
         12    1    1    2    0    0  0.12912853055E+02 -0.13559540541E+02 -0.27274438755E+00  0.18726379874E+02  0.00000000000E+00 0. -1.
         11    1    3    3    0    0  0.14686955156E+01 -0.21467674014E+02 -0.16606258426E+02  0.27180616499E+02  0.51100000000E-03 0. -1.
        -11    1    3    3    0    0 -0.15194566945E+02  0.15636196644E+02  0.13318862445E+02  0.25549121457E+02  0.51100000000E-03 0.  1.
         12    1    3    3    0    0  0.81301837462E+00  0.19391017911E+02  0.35601403681E+01  0.19731882170E+02  0.00000000000E+00 0. -1.
</event>
<event>
 7    1  0.1283194E-013  0.7246157E+02  0.7816164E-02  0.1226708E+00
        -11   -1    0    0    0    0  0.00000000000E+00  0.00000000000E+00  0.45593999997E+02  0.45594000000E+02  0.51100000000E-03 0.  1.
         11   -1    0    0    0    0 -0.00000000000E+00 -0.00000000000E+00 -0.45593999997E+02  0.45594000000E+02  0.51100000000E-03 0. -1.
    9900012    2    1    2    0    0 -0.16163352914E+02  0.93396684210E+01  0.14818189545E+01  0.72461570253E+02  0.69999999947E+02 0.  0.
         12    1    1    2    0    0  0.16163352914E+02 -0.93396684210E+01 -0.14818189545E+01  0.18726429747E+02  0.00000000000E+00 0. -1.
         11    1    3    3    0    0  0.17316433460E+02  0.60322880970E+01 -0.56407933622E+01  0.19185044110E+02  0.51100000000E-03 0. -1.
        -11    1    3    3    0    0 -0.10457256636E+01  0.14643795055E+00  0.18672663954E+02  0.18702496241E+02  0.51100000000E-03 0.  1.
         12    1    3    3    0    0 -0.32434060711E+02  0.31609423734E+01 -0.11550051637E+02  0.34574029903E+02  0.00000000000E+00 0. -1.
</event>
<event>
 7    1  0.1283194E-013  0.7246163E+02  0.7816164E-02  0.1226708E+00
        -11   -1    0    0    0    0  0.00000000000E+00  0.00000000000E+00  0.45593999997E+02  0.45594000000E+02  0.51100000000E-03 0.  1.
         11   -1    0    0    0    0 -0.00000000000E+00 -0.00000000000E+00 -0.45593999997E+02  0.45594000000E+02  0.51100000000E-03 0. -1.
    9900012    2    1    2    0    0  0.11053897076E+01  0.80717605009E+01  0.16861254577E+02  0.72461625286E+02  0.70000071637E+02 0.  0.
         12    1    1    2    0    0 -0.11053897076E+01 -0.80717605009E+01 -0.16861254577E+02  0.18726374714E+02  0.00000000000E+00 0. -1.
         11    1    3    3    0    0 -0.12416536981E+02 -0.15509967413E+02 -0.13382459822E+02  0.23954534246E+02  0.51100000000E-03 0. -1.
        -11    1    3    3    0    0  0.46144231803E+01  0.11498031971E+02  0.31093654356E+02  0.33471076797E+02  0.51100000000E-03 0.  1.
         12    1    3    3    0    0  0.89075035088E+01  0.12083695943E+02 -0.84993995588E+00  0.15036014244E+02  0.00000000000E+00 0. -1.
</event>
<event>
 7    1  0.1283194E-013  0.7246150E+02  0.7816164E-02  0.1226708E+00
        -11   -1    0    0    0    0  0.00000000000E+00  0.00000000000E+00  0.45593999997E+02  0.45594000000E+02  0.51100000000E-03 0.  1.
         11   -1    0    0    0    0 -0.00000000000E+00 -0.00000000000E+00 -0.45593999997E+02  0.45594000000E+02  0.51100000000E-03 0. -1.
    9900012    2    1    2    0    0 -0.10432772032E+02 -0.15087235935E+02  0.37701882217E+01  0.72461501671E+02  0.69999910605E+02 0.  0.
         12    1    1    2    0    0  0.10432772032E+02  0.15087235935E+02 -0.37701882217E+01  0.18726498329E+02  0.00000000000E+00 0. -1.
         11    1    3    3    0    0  0.25952745390E+02 -0.20530199303E+02 -0.60284212513E+01  0.33635932271E+02  0.51100000000E-03 0. -1.
        -11    1    3    3    0    0 -0.31806554654E+01  0.22030078495E+00  0.33027632228E+01  0.45905715105E+01  0.51100000000E-03 0.  1.
         12    1    3    3    0    0 -0.33204861956E+02  0.52226625828E+01  0.64958462501E+01  0.34234997889E+02  0.00000000000E+00 0. -1.
</event>
<event>
 7    1  0.1283194E-013  0.7246163E+02  0.7816164E-02  0.1226708E+00
        -11   -1    0    0    0    0  0.00000000000E+00  0.00000000000E+00  0.45593999997E+02  0.45594000000E+02  0.51100000000E-03 0.  1.
         11   -1    0    0    0    0 -0.00000000000E+00 -0.00000000000E+00 -0.45593999997E+02  0.45594000000E+02  0.51100000000E-03 0. -1.
    9900012    2    1    2    0    0  0.21931094098E+01 -0.12774098677E+02  0.13516266640E+02  0.72461633834E+02  0.70000082773E+02 0.  0.
         12    1    1    2    0    0 -0.21931094098E+01  0.12774098677E+02 -0.13516266640E+02  0.18726366166E+02  0.00000000000E+00 0. -1.
         11    1    3    3    0    0  0.23651184504E+02 -0.26168855659E+02  0.76421916663E+01  0.36091420430E+02  0.51100000000E-03 0. -1.
        -11    1    3    3    0    0 -0.70943868924E+00  0.14277777384E+02  0.62438983101E+01  0.15599503090E+02  0.51100000000E-03 0.  1.
         12    1    3    3    0    0 -0.20748636405E+02 -0.88302040219E+00 -0.36982333686E+00  0.20770710315E+02  0.00000000000E+00 0. -1.
</event>
<event>
 7    1  0.1283194E-013  0.7246152E+02  0.7816164E-02  0.1226708E+00
        -11   -1    0    0    0    0  0.00000000000E+00  0.00000000000E+00  0.45593999997E+02  0.45594000000E+02  0.51100000000E-03 0. -1.
         11   -1    0    0    0    0 -0.00000000000E+00 -0.00000000000E+00 -0.45593999997E+02  0.45594000000E+02  0.51100000000E-03 0.  1.
    9900012    2    1    2    0    0 -0.93538390168E+01  0.12456298689E+02 -0.10393619470E+02  0.72461521231E+02  0.69999936086E+02 0.  0.
         12    1    1    2    0    0  0.93538390168E+01 -0.12456298689E+02  0.10393619470E+02  0.18726478769E+02  0.00000000000E+00 0. -1.
         11    1    3    3    0    0  0.22247042299E+02  0.16988749806E+02  0.43821800918E+01  0.28332878669E+02  0.51100000000E-03 0. -1.
        -11    1    3    3    0    0 -0.26308702031E+02  0.80047880121E+01 -0.66985735883E+01  0.28303627366E+02  0.51100000000E-03 0.  1.
         12    1    3    3    0    0 -0.52921792844E+01 -0.12537239129E+02 -0.80772259736E+01  0.15825015197E+02  0.00000000000E+00 0. -1.
</event>
<event>
 7    1  0.1283194E-013  0.7246159E+02  0.7816164E-02  0.1226708E+00
        -11   -1    0    0    0    0  0.00000000000E+00  0.00000000000E+00  0.45593999997E+02  0.45594000000E+02  0.51100000000E-03 0.  1.
         11   -1    0    0    0    0 -0.00000000000E+00 -0.00000000000E+00 -0.45593999997E+02  0.45594000000E+02  0.51100000000E-03 0. -1.
    9900012    2    1    2    0    0 -0.17470953328E+02 -0.49130209542E+00 -0.67233102135E+01  0.72461588487E+02  0.70000023699E+02 0.  0.
         12    1    1    2    0    0  0.17470953328E+02  0.49130209542E+00  0.67233102135E+01  0.18726411513E+02  0.00000000000E+00 0. -1.
         11    1    3    3    0    0 -0.10263624926E+02  0.10171319420E+02 -0.84253943734E+01  0.16726775122E+02  0.51100000000E-03 0. -1.
        -11    1    3    3    0    0  0.23690222065E+02 -0.58677465803E+01 -0.23867330722E+00  0.24407253771E+02  0.51100000000E-03 0.  1.
        -12    1    3    3    0    0 -0.30897550468E+02 -0.47948749355E+01  0.19407574671E+01  0.31327559594E+02  0.00000000000E+00 0.  1.
</event>
<event>
 7    1  0.1283194E-013  0.7246144E+02  0.7816164E-02  0.1226708E+00
        -11   -1    0    0    0    0  0.00000000000E+00  0.00000000000E+00  0.45593999997E+02  0.45594000000E+02  0.51100000000E-03 0.  1.
         11   -1    0    0    0    0 -0.00000000000E+00 -0.00000000000E+00 -0.45593999997E+02  0.45594000000E+02  0.51100000000E-03 0. -1.
    9900012    2    1    2    0    0  0.18272443231E+02 -0.40276552598E+01 -0.76149125250E+00  0.72461439786E+02  0.69999829988E+02 0.  0.
         12    1    1    2    0    0 -0.18272443231E+02  0.40276552598E+01  0.76149125250E+00  0.18726560214E+02  0.00000000000E+00 0. -1.
         11    1    3    3    0    0  0.14857195765E+01  0.53582103291E+01 -0.58271846978E+01  0.80544312247E+01  0.51100000000E-03 0. -1.
        -11    1    3    3    0    0  0.30315918065E+02 -0.27548322185E+02 -0.95031225842E+00  0.40973992203E+02  0.51100000000E-03 0.  1.
        -12    1    3    3    0    0 -0.13529194411E+02  0.18162456596E+02  0.60160057037E+01  0.23433016358E+02  0.00000000000E+00 0.  1.
</event>
<event>
 7    1  0.1283194E-013  0.7246146E+02  0.7816164E-02  0.1226708E+00
        -11   -1    0    0    0    0  0.00000000000E+00  0.00000000000E+00  0.45593999997E+02  0.45594000000E+02  0.51100000000E-03 0.  1.
         11   -1    0    0    0    0 -0.00000000000E+00 -0.00000000000E+00 -0.45593999997E+02  0.45594000000E+02  0.51100000000E-03 0. -1.
    9900012    2    1    2    0    0  0.14455443929E+02  0.96607690278E+01 -0.69565180245E+01  0.72461455727E+02  0.69999850754E+02 0.  0.
         12    1    1    2    0    0 -0.14455443929E+02 -0.96607690278E+01  0.69565180245E+01  0.18726544273E+02  0.00000000000E+00 0. -1.
         11    1    3    3    0    0  0.15799748255E+01  0.30521357894E+02  0.82886833283E+01  0.31666257747E+02  0.51100000000E-03 0. -1.
        -11    1    3    3    0    0  0.12692670276E+02 -0.10820794168E+02  0.56519054243E+01  0.17610721176E+02  0.51100000000E-03 0.  1.
         12    1    3    3    0    0  0.18279882776E+00 -0.10039794698E+02 -0.20897106777E+02  0.23184476803E+02  0.00000000000E+00 0. -1.
</event>
<event>
 7    1  0.1283194E-013  0.7246156E+02  0.7816164E-02  0.1226708E+00
        -11   -1    0    0    0    0  0.00000000000E+00  0.00000000000E+00  0.45593999997E+02  0.45594000000E+02  0.51100000000E-03 0. -1.
         11   -1    0    0    0    0 -0.00000000000E+00 -0.00000000000E+00 -0.45593999997E+02  0.45594000000E+02  0.51100000000E-03 0.  1.
    9900012    2    1    2    0    0  0.92177576471E+01  0.16295688133E+02 -0.40396589384E+00  0.72461556232E+02  0.69999981681E+02 0.  0.
         12    1    1    2    0    0 -0.92177576471E+01 -0.16295688133E+02  0.40396589384E+00  0.18726443768E+02  0.00000000000E+00 0. -1.
         11    1    3    3    0    0 -0.35875965615E+00  0.23629169440E+02  0.14668595707E+02  0.27814277938E+02  0.51100000000E-03 0. -1.
        -11    1    3    3    0    0  0.21588618745E+02 -0.76942897730E+01 -0.21144691342E+02  0.31182824224E+02  0.51100000000E-03 0.  1.
         12    1    3    3    0    0 -0.12012101442E+02  0.36080846570E+00  0.60721297405E+01  0.13464454069E+02  0.00000000000E+00 0. -1.
</event>
<event>
 7    1  0.1283194E-013  0.7246168E+02  0.7816164E-02  0.1226708E+00
        -11   -1    0    0    0    0  0.00000000000E+00  0.00000000000E+00  0.45593999997E+02  0.45594000000E+02  0.51100000000E-03 0. -1.
         11   -1    0    0    0    0 -0.00000000000E+00 -0.00000000000E+00 -0.45593999997E+02  0.45594000000E+02  0.51100000000E-03 0.  1.
    9900012    2    1    2    0    0 -0.86186459746E+01  0.14794740536E+02 -0.75835027029E+01  0.72461683779E+02  0.70000147834E+02 0.  0.
         12    1    1    2    0    0  0.86186459746E+01 -0.14794740536E+02  0.75835027029E+01  0.18726316221E+02  0.00000000000E+00 0. -1.
         11    1    3    3    0    0 -0.22670277338E+02  0.16059680125E+01 -0.50331827294E+00  0.22732662347E+02  0.51100000000E-03 0.  1.
        -11    1    3    3    0    0  0.20037942439E+02 -0.10823456706E+02  0.30717557966E+01  0.22980470756E+02  0.51100000000E-03 0. -1.
         12    1    3    3    0    0 -0.59863110752E+01  0.24012229230E+02 -0.10151940227E+02  0.26748550675E+02  0.00000000000E+00 0. -1.
</event>
<event>
 7    1  0.1283194E-013  0.7246158E+02  0.7816164E-02  0.1226708E+00
        -11   -1    0    0    0    0  0.00000000000E+00  0.00000000000E+00  0.45593999997E+02  0.45594000000E+02  0.51100000000E-03 0.  1.
         11   -1    0    0    0    0 -0.00000000000E+00 -0.00000000000E+00 -0.45593999997E+02  0.45594000000E+02  0.51100000000E-03 0. -1.
    9900012    2    1    2    0    0 -0.12250002879E+02 -0.13808180481E+02 -0.31544027412E+01  0.72461583487E+02  0.70000017186E+02 0.  0.
         12    1    1    2    0    0  0.12250002879E+02  0.13808180481E+02  0.31544027412E+01  0.18726416513E+02  0.00000000000E+00 0. -1.
         11    1    3    3    0    0  0.14625987063E+02 -0.30322168509E+02 -0.11224936864E+02  0.35487358433E+02  0.51100000000E-03 0. -1.
        -11    1    3    3    0    0 -0.25574137030E+02  0.15813338341E+02  0.13559243438E+01  0.30098782125E+02  0.51100000000E-03 0.  1.
         12    1    3    3    0    0 -0.13018529116E+01  0.70064968751E+00  0.67146097794E+01  0.68754429296E+01  0.00000000000E+00 0. -1.
</event>
<event>
 7    1  0.1283194E-013  0.7246156E+02  0.7816164E-02  0.1226708E+00
        -11   -1    0    0    0    0  0.00000000000E+00  0.00000000000E+00  0.45593999997E+02  0.45594000000E+02  0.51100000000E-03 0. -1.
         11   -1    0    0    0    0 -0.00000000000E+00 -0.00000000000E+00 -0.45593999997E+02  0.45594000000E+02  0.51100000000E-03 0.  1.
    9900012    2    1    2    0    0 -0.11927706081E+02  0.14077413226E+02  0.31993598792E+01  0.72461557756E+02  0.69999983666E+02 0.  0.
         12    1    1    2    0    0  0.11927706081E+02 -0.14077413226E+02 -0.31993598792E+01  0.18726442244E+02  0.00000000000E+00 0. -1.
         11    1    3    3    0    0 -0.30783381076E+01 -0.15669889541E+02  0.22658260717E+01  0.16129338851E+02  0.51100000000E-03 0. -1.
        -11    1    3    3    0    0  0.10032006132E+02  0.15145531200E+02 -0.18219547133E+02  0.25728975113E+02  0.51100000000E-03 0.  1.
        -12    1    3    3    0    0 -0.18881374106E+02  0.14601771567E+02  0.19153080941E+02  0.30603243791E+02  0.00000000000E+00 0.  1.
</event>
<event>
 7    1  0.1283194E-013  0.7246158E+02  0.7816164E-02  0.1226708E+00
        -11   -1    0    0    0    0  0.00000000000E+00  0.00000000000E+00  0.45593999997E+02  0.45594000000E+02  0.51100000000E-03 0. -1.
         11   -1    0    0    0    0 -0.00000000000E+00 -0.00000000000E+00 -0.45593999997E+02  0.45594000000E+02  0.51100000000E-03 0.  1.
    9900012    2    1    2    0    0 -0.81952171283E+01  0.12731808992E+02  0.11018992092E+02  0.72461582011E+02  0.70000015263E+02 0.  0.
         12    1    1    2    0    0  0.81952171283E+01 -0.12731808992E+02 -0.11018992092E+02  0.18726417989E+02  0.00000000000E+00 0. -1.
         11    1    3    3    0    0  0.10720267510E+02  0.59295966185E+01  0.11653103735E+02  0.16907959027E+02  0.51100000000E-03 0. -1.
        -11    1    3    3    0    0 -0.27398841286E+02 -0.10600385214E+01  0.18583676340E+02  0.33123605058E+02  0.51100000000E-03 0.  1.
        -12    1    3    3    0    0  0.84833566481E+01  0.78622508949E+01 -0.19217787984E+02  0.22430017925E+02  0.00000000000E+00 0.  1.
</event>
<event>
 7    1  0.1283194E-013  0.7246155E+02  0.7816164E-02  0.1226708E+00
        -11   -1    0    0    0    0  0.00000000000E+00  0.00000000000E+00  0.45593999997E+02  0.45594000000E+02  0.51100000000E-03 0.  1.
         11   -1    0    0    0    0 -0.00000000000E+00 -0.00000000000E+00 -0.45593999997E+02  0.45594000000E+02  0.51100000000E-03 0. -1.
    9900012    2    1    2    0    0  0.17566956234E+02  0.62088700581E+01  0.18793166761E+01  0.72461552128E+02  0.69999976335E+02 0.  0.
         12    1    1    2    0    0 -0.17566956234E+02 -0.62088700581E+01 -0.18793166761E+01  0.18726447872E+02  0.00000000000E+00 0. -1.
         11    1    3    3    0    0 -0.15068958897E+02  0.18910538260E+02 -0.17395502828E+02  0.29787337887E+02  0.51100000000E-03 0. -1.
        -11    1    3    3    0    0  0.19128642553E+02 -0.61698551451E+01  0.19014746617E+02  0.27668261016E+02  0.51100000000E-03 0.  1.
         12    1    3    3    0    0  0.13507272578E+02 -0.65318130566E+01  0.26007288626E+00  0.15005953225E+02  0.00000000000E+00 0. -1.
</event>
<event>
 7    1  0.1283194E-013  0.7246160E+02  0.7816164E-02  0.1226708E+00
        -11   -1    0    0    0    0  0.00000000000E+00  0.00000000000E+00  0.45593999997E+02  0.45594000000E+02  0.51100000000E-03 0. -1.
         11   -1    0    0    0    0 -0.00000000000E+00 -0.00000000000E+00 -0.45593999997E+02  0.45594000000E+02  0.51100000000E-03 0.  1.
    9900012    2    1    2    0    0  0.31318841807E+01 -0.17726582241E+02  0.51611708258E+01  0.72461598830E+02  0.70000037173E+02 0.  0.
         12    1    1    2    0    0 -0.31318841807E+01  0.17726582241E+02 -0.51611708258E+01  0.18726401170E+02  0.00000000000E+00 0. -1.
         11    1    3    3    0    0  0.20367548704E+02 -0.28206293333E+02  0.23692536574E+01  0.34871842322E+02  0.51100000000E-03 0. -1.
        -11    1    3    3    0    0 -0.14247692118E+02  0.95206220467E+01 -0.12987390927E+02  0.21501425493E+02  0.51100000000E-03 0.  1.
         12    1    3    3    0    0 -0.29879724054E+01  0.95908904476E+00  0.15779308096E+02  0.16088331016E+02  0.00000000000E+00 0. -1.
</event>
<event>
 7    1  0.1283194E-013  0.7246145E+02  0.7816164E-02  0.1226708E+00
        -11   -1    0    0    0    0  0.00000000000E+00  0.00000000000E+00  0.45593999997E+02  0.45594000000E+02  0.51100000000E-03 0. -1.
         11   -1    0    0    0    0 -0.00000000000E+00 -0.00000000000E+00 -0.45593999997E+02  0.45594000000E+02  0.51100000000E-03 0.  1.
    9900012    2    1    2    0    0 -0.17601795742E+02  0.56379344506E+00 -0.63673015144E+01  0.72461451867E+02  0.69999845727E+02 0.  0.
         12    1    1    2    0    0  0.17601795742E+02 -0.56379344506E+00  0.63673015144E+01  0.18726548133E+02  0.00000000000E+00 0. -1.
         11    1    3    3    0    0 -0.12891896797E+00  0.21805715098E+02 -0.31712730429E-01  0.21806119256E+02  0.51100000000E-03 0. -1.
        -11    1    3    3    0    0 -0.11693592485E+02 -0.26554992358E+02  0.11466479263E+02  0.31199164593E+02  0.51100000000E-03 0.  1.
         12    1    3    3    0    0 -0.57792842888E+01  0.53130707052E+01 -0.17802068047E+02  0.19456168018E+02  0.00000000000E+00 0. -1.
</event>
<event>
 7    1  0.1283194E-013  0.7246158E+02  0.7816164E-02  0.1226708E+00
        -11   -1    0    0    0    0  0.00000000000E+00  0.00000000000E+00  0.45593999997E+02  0.45594000000E+02  0.51100000000E-03 0.  1.
         11   -1    0    0    0    0 -0.00000000000E+00 -0.00000000000E+00 -0.45593999997E+02  0.45594000000E+02  0.51100000000E-03 0. -1.
    9900012    2    1    2    0    0  0.79388010579E+01 -0.15868103458E+02  0.59881081214E+01  0.72461582605E+02  0.70000016037E+02 0.  0.
         12    1    1    2    0    0 -0.79388010579E+01  0.15868103458E+02 -0.59881081214E+01  0.18726417395E+02  0.00000000000E+00 0. -1.
         11    1    3    3    0    0  0.78932891026E+01  0.51878407018E+01 -0.72330480600E+01  0.11896835231E+02  0.51100000000E-03 0. -1.
        -11    1    3    3    0    0  0.17283318813E+02 -0.31890170196E+02  0.16661699661E+02  0.39916266110E+02  0.51100000000E-03 0.  1.
        -12    1    3    3    0    0 -0.17237806857E+02  0.10834226037E+02 -0.34405434797E+01  0.20648481264E+02  0.00000000000E+00 0.  1.
</event>
<event>
 7    1  0.1283194E-013  0.7246149E+02  0.7816164E-02  0.1226708E+00
        -11   -1    0    0    0    0  0.00000000000E+00  0.00000000000E+00  0.45593999997E+02  0.45594000000E+02  0.51100000000E-03 0.  1.
         11   -1    0    0    0    0 -0.00000000000E+00 -0.00000000000E+00 -0.45593999997E+02  0.45594000000E+02  0.51100000000E-03 0. -1.
    9900012    2    1    2    0    0  0.12473034822E+01  0.16999087897E+02  0.77561147777E+01  0.72461492805E+02  0.69999899055E+02 0.  0.
         12    1    1    2    0    0 -0.12473034822E+01 -0.16999087897E+02 -0.77561147777E+01  0.18726507195E+02  0.00000000000E+00 0. -1.
         11    1    3    3    0    0 -0.21136790169E+02  0.37030390616E+01  0.24269610039E+02  0.32395838755E+02  0.51100000000E-03 0. -1.
        -11    1    3    3    0    0  0.25824108719E+02  0.36196287220E+01 -0.13494858279E+02  0.29361496955E+02  0.51100000000E-03 0.  1.
         12    1    3    3    0    0 -0.34400150680E+01  0.96764201131E+01 -0.30186369827E+01  0.10704157095E+02  0.00000000000E+00 0. -1.
</event>
<event>
 7    1  0.1283194E-013  0.7246184E+02  0.7816164E-02  0.1226707E+00
        -11   -1    0    0    0    0  0.00000000000E+00  0.00000000000E+00  0.45593999997E+02  0.45594000000E+02  0.51100000000E-03 0. -1.
         11   -1    0    0    0    0 -0.00000000000E+00 -0.00000000000E+00 -0.45593999997E+02  0.45594000000E+02  0.51100000000E-03 0.  1.
    9900012    2    1    2    0    0 -0.92339319700E+01  0.15713554647E+02 -0.42997562540E+01  0.72461836401E+02  0.70000346653E+02 0.  0.
         12    1    1    2    0    0  0.92339319700E+01 -0.15713554647E+02  0.42997562540E+01  0.18726163599E+02  0.00000000000E+00 0. -1.
         11    1    3    3    0    0 -0.30345552448E+02  0.13715637676E+02  0.70592708365E+01  0.34041218768E+02  0.51100000000E-03 0. -1.
        -11    1    3    3    0    0  0.17371119563E+01  0.68050441517E+01 -0.16392624939E+02  0.17833797591E+02  0.51100000000E-03 0.  1.
         12    1    3    3    0    0  0.19374508521E+02 -0.48071271799E+01  0.50335978486E+01  0.20586820043E+02  0.00000000000E+00 0. -1.
</event>
<event>
 7    1  0.1283194E-013  0.7246160E+02  0.7816164E-02  0.1226708E+00
        -11   -1    0    0    0    0  0.00000000000E+00  0.00000000000E+00  0.45593999997E+02  0.45594000000E+02  0.51100000000E-03 0. -1.
         11   -1    0    0    0    0 -0.00000000000E+00 -0.00000000000E+00 -0.45593999997E+02  0.45594000000E+02  0.51100000000E-03 0.  1.
    9900012    2    1    2    0    0  0.70338382330E-01  0.11088360330E+02 -0.15090444993E+02  0.72461595850E+02  0.70000033291E+02 0.  0.
         12    1    1    2    0    0 -0.70338382330E-01 -0.11088360330E+02  0.15090444993E+02  0.18726404150E+02  0.00000000000E+00 0. -1.
         11    1    3    3    0    0  0.12266146172E+02  0.95198452740E+01 -0.26567455736E+01  0.15752590049E+02  0.51100000000E-03 0. -1.
        -11    1    3    3    0    0 -0.32718674960E+02  0.54698136559E+01 -0.13445758908E+02  0.35794119426E+02  0.51100000000E-03 0.  1.
        -12    1    3    3    0    0  0.20522867171E+02 -0.39012986002E+01  0.10120594879E+01  0.20914886375E+02  0.00000000000E+00 0.  1.
</event>
<event>
 7    1  0.1283194E-013  0.7246150E+02  0.7816164E-02  0.1226708E+00
        -11   -1    0    0    0    0  0.00000000000E+00  0.00000000000E+00  0.45593999997E+02  0.45594000000E+02  0.51100000000E-03 0.  1.
         11   -1    0    0    0    0 -0.00000000000E+00 -0.00000000000E+00 -0.45593999997E+02  0.45594000000E+02  0.51100000000E-03 0. -1.
    9900012    2    1    2    0    0  0.92899070052E+00  0.10714464220E+02  0.15330330298E+02  0.72461500213E+02  0.69999908706E+02 0.  0.
         12    1    1    2    0    0 -0.92899070052E+00 -0.10714464220E+02 -0.15330330298E+02  0.18726499787E+02  0.00000000000E+00 0. -1.
         11    1    3    3    0    0 -0.12816150602E+02  0.11171937422E+02  0.11334220651E+02  0.20433562098E+02  0.51100000000E-03 0. -1.
        -11    1    3    3    0    0 -0.75003878467E+01 -0.44787034723E+01 -0.18724971420E+02  0.20662506082E+02  0.51100000000E-03 0.  1.
        -12    1    3    3    0    0  0.21245529150E+02  0.40212302704E+01  0.22721081067E+02  0.31365432033E+02  0.00000000000E+00 0.  1.
</event>
<event>
 7    1  0.1283194E-013  0.7246151E+02  0.7816164E-02  0.1226708E+00
        -11   -1    0    0    0    0  0.00000000000E+00  0.00000000000E+00  0.45593999997E+02  0.45594000000E+02  0.51100000000E-03 0.  1.
         11   -1    0    0    0    0 -0.00000000000E+00 -0.00000000000E+00 -0.45593999997E+02  0.45594000000E+02  0.51100000000E-03 0. -1.
    9900012    2    1    2    0    0 -0.13623681792E+02 -0.67010985208E+01  0.10962293368E+02  0.72461513335E+02  0.69999925799E+02 0.  0.
         12    1    1    2    0    0  0.13623681792E+02  0.67010985208E+01 -0.10962293368E+02  0.18726486665E+02  0.00000000000E+00 0. -1.
         11    1    3    3    0    0 -0.12708073210E+02  0.23460547738E+02 -0.16232219721E+02  0.31231032359E+02  0.51100000000E-03 0. -1.
        -11    1    3    3    0    0  0.10658521078E+01 -0.38697604535E+01  0.11634282577E+01  0.41790731335E+01  0.51100000000E-03 0.  1.
         12    1    3    3    0    0 -0.19814606890E+01 -0.26291885805E+02  0.26031084831E+02  0.37051407842E+02  0.00000000000E+00 0. -1.
</event>
<event>
 7    1  0.1283194E-013  0.7246158E+02  0.7816164E-02  0.1226708E+00
        -11   -1    0    0    0    0  0.00000000000E+00  0.00000000000E+00  0.45593999997E+02  0.45594000000E+02  0.51100000000E-03 0.  1.
         11   -1    0    0    0    0 -0.00000000000E+00 -0.00000000000E+00 -0.45593999997E+02  0.45594000000E+02  0.51100000000E-03 0. -1.
    9900012    2    1    2    0    0 -0.13520921767E+02  0.55313968193E+00  0.12944407131E+02  0.72461575758E+02  0.70000007117E+02 0.  0.
         12    1    1    2    0    0  0.13520921767E+02 -0.55313968193E+00 -0.12944407131E+02  0.18726424242E+02  0.00000000000E+00 0. -1.
         11    1    3    3    0    0  0.10072417138E+02 -0.12516846861E+02 -0.46616681224E+01  0.16728902901E+02  0.51100000000E-03 0. -1.
        -11    1    3    3    0    0 -0.19945516230E+02  0.29881483791E+01  0.31975272436E+02  0.37804374034E+02  0.51100000000E-03 0.  1.
        -12    1    3    3    0    0 -0.36478226738E+01  0.10081838163E+02 -0.14369197183E+02  0.17928298823E+02  0.00000000000E+00 0.  1.
</event>
<event>
 7    1  0.1283194E-013  0.7246153E+02  0.7816164E-02  0.1226708E+00
        -11   -1    0    0    0    0  0.00000000000E+00  0.00000000000E+00  0.45593999997E+02  0.45594000000E+02  0.51100000000E-03 0.  1.
         11   -1    0    0    0    0 -0.00000000000E+00 -0.00000000000E+00 -0.45593999997E+02  0.45594000000E+02  0.51100000000E-03 0. -1.
    9900012    2    1    2    0    0 -0.11570197528E+02  0.99162170938E+01  0.10884838912E+02  0.72461533424E+02  0.69999951969E+02 0.  0.
         12    1    1    2    0    0  0.11570197528E+02 -0.99162170938E+01 -0.10884838912E+02  0.18726466576E+02  0.00000000000E+00 0. -1.
         11    1    3    3    0    0 -0.15282852293E+02  0.19879470542E+02 -0.13845087434E+02  0.28643417561E+02  0.51100000000E-03 0. -1.
        -11    1    3    3    0    0 -0.12259657140E+02 -0.14491327770E+02  0.92349640379E+01  0.21108821255E+02  0.51100000000E-03 0.  1.
         12    1    3    3    0    0  0.15972311905E+02  0.45280743212E+01  0.15494962309E+02  0.22709294608E+02  0.00000000000E+00 0. -1.
</event>
<event>
 7    1  0.1283194E-013  0.7246160E+02  0.7816164E-02  0.1226708E+00
        -11   -1    0    0    0    0  0.00000000000E+00  0.00000000000E+00  0.45593999997E+02  0.45594000000E+02  0.51100000000E-03 0.  1.
         11   -1    0    0    0    0 -0.00000000000E+00 -0.00000000000E+00 -0.45593999997E+02  0.45594000000E+02  0.51100000000E-03 0. -1.
    9900012    2    1    2    0    0  0.51823361936E+00  0.15247270818E+02  0.10859568738E+02  0.72461599741E+02  0.70000038359E+02 0.  0.
         12    1    1    2    0    0 -0.51823361936E+00 -0.15247270818E+02 -0.10859568738E+02  0.18726400259E+02  0.00000000000E+00 0. -1.
         11    1    3    3    0    0 -0.31039016743E+02  0.23198417933E+01  0.13673878104E+02  0.33996722915E+02  0.51100000000E-03 0.  1.
        -11    1    3    3    0    0  0.19345733301E+02  0.13158086618E+02 -0.86299235401E+01  0.24937285757E+02  0.51100000000E-03 0. -1.
        -12    1    3    3    0    0  0.12211517062E+02 -0.23065759262E+00  0.58156141746E+01  0.13527591068E+02  0.00000000000E+00 0.  1.
</event>
<event>
 7    1  0.1283194E-013  0.7246160E+02  0.7816164E-02  0.1226708E+00
        -11   -1    0    0    0    0  0.00000000000E+00  0.00000000000E+00  0.45593999997E+02  0.45594000000E+02  0.51100000000E-03 0. -1.
         11   -1    0    0    0    0 -0.00000000000E+00 -0.00000000000E+00 -0.45593999997E+02  0.45594000000E+02  0.51100000000E-03 0.  1.
    9900012    2    1    2    0    0 -0.68490703500E+01 -0.86320223132E+01 -0.15141217847E+02  0.72461600139E+02  0.70000038878E+02 0.  0.
         12    1    1    2    0    0  0.68490703500E+01  0.86320223132E+01  0.15141217847E+02  0.18726399861E+02  0.00000000000E+00 0. -1.
         11    1    3    3    0    0 -0.22646845375E+02  0.12549418043E+02 -0.17812306661E+02  0.31426831967E+02  0.51100000000E-03 0. -1.
        -11    1    3    3    0    0  0.17073839763E+02 -0.27189311216E+02  0.77924597986E+01  0.33037812860E+02  0.51100000000E-03 0.  1.
         12    1    3    3    0    0 -0.12760647379E+01  0.60078708595E+01 -0.51213709849E+01  0.79969553109E+01  0.00000000000E+00 0. -1.
</event>
<event>
 7    1  0.1283194E-013  0.7246146E+02  0.7816164E-02  0.1226708E+00
        -11   -1    0    0    0    0  0.00000000000E+00  0.00000000000E+00  0.45593999997E+02  0.45594000000E+02  0.51100000000E-03 0. -1.
         11   -1    0    0    0    0 -0.00000000000E+00 -0.00000000000E+00 -0.45593999997E+02  0.45594000000E+02  0.51100000000E-03 0.  1.
    9900012    2    1    2    0    0  0.97336681725E+01 -0.13421091708E+02 -0.87070875357E+01  0.72461458085E+02  0.69999853827E+02 0.  0.
         12    1    1    2    0    0 -0.97336681725E+01  0.13421091708E+02  0.87070875357E+01  0.18726541915E+02  0.00000000000E+00 0. -1.
         11    1    3    3    0    0 -0.21344034788E+01  0.55268452471E+01 -0.23872528395E+00  0.59294760829E+01  0.51100000000E-03 0. -1.
        -11    1    3    3    0    0 -0.43931543079E+01 -0.38053076093E+02 -0.14101248036E+02  0.40818887801E+02  0.51100000000E-03 0.  1.
        -12    1    3    3    0    0  0.16261225959E+02  0.19105139138E+02  0.56328857841E+01  0.25713094202E+02  0.00000000000E+00 0.  1.
</event>
<event>
 7    1  0.1283194E-013  0.7246155E+02  0.7816164E-02  0.1226708E+00
        -11   -1    0    0    0    0  0.00000000000E+00  0.00000000000E+00  0.45593999997E+02  0.45594000000E+02  0.51100000000E-03 0. -1.
         11   -1    0    0    0    0 -0.00000000000E+00 -0.00000000000E+00 -0.45593999997E+02  0.45594000000E+02  0.51100000000E-03 0.  1.
    9900012    2    1    2    0    0  0.13140158221E+02 -0.11634808334E+02  0.65304946712E+01  0.72461551226E+02  0.69999975160E+02 0.  0.
         12    1    1    2    0    0 -0.13140158221E+02  0.11634808334E+02 -0.65304946712E+01  0.18726448774E+02  0.00000000000E+00 0. -1.
         11    1    3    3    0    0 -0.20080658401E+02 -0.16559519044E+02  0.21259473134E+01  0.26114558488E+02  0.51100000000E-03 0. -1.
        -11    1    3    3    0    0  0.21863496772E+02  0.16724137540E+02  0.96203304946E+01  0.29159218553E+02  0.51100000000E-03 0.  1.
        -12    1    3    3    0    0  0.11357319850E+02 -0.11799426830E+02 -0.52157831367E+01  0.17187774185E+02  0.00000000000E+00 0.  1.
</event>
<event>
 7    1  0.1283194E-013  0.7246154E+02  0.7816164E-02  0.1226708E+00
        -11   -1    0    0    0    0  0.00000000000E+00  0.00000000000E+00  0.45593999997E+02  0.45594000000E+02  0.51100000000E-03 0.  1.
         11   -1    0    0    0    0 -0.00000000000E+00 -0.00000000000E+00 -0.45593999997E+02  0.45594000000E+02  0.51100000000E-03 0. -1.
    9900012    2    1    2    0    0  0.76869909352E+01 -0.16338735985E+02  0.49634777488E+01  0.72461541857E+02  0.69999962955E+02 0.  0.
         12    1    1    2    0    0 -0.76869909352E+01  0.16338735985E+02 -0.49634777488E+01  0.18726458143E+02  0.00000000000E+00 0. -1.
         11    1    3    3    0    0 -0.18870393265E+02  0.61588131006E+01 -0.11284567987E+01  0.19882055623E+02  0.51100000000E-03 0. -1.
        -11    1    3    3    0    0  0.42042954555E-01 -0.12318454263E+02  0.17975640039E+02  0.21791505641E+02  0.51100000000E-03 0.  1.
         12    1    3    3    0    0  0.26515341246E+02 -0.10179094823E+02 -0.11883705491E+02  0.30787980593E+02  0.00000000000E+00 0. -1.
</event>
<event>
 7    1  0.1283194E-013  0.7246157E+02  0.7816164E-02  0.1226708E+00
        -11   -1    0    0    0    0  0.00000000000E+00  0.00000000000E+00  0.45593999997E+02  0.45594000000E+02  0.51100000000E-03 0. -1.
         11   -1    0    0    0    0 -0.00000000000E+00 -0.00000000000E+00 -0.45593999997E+02  0.45594000000E+02  0.51100000000E-03 0.  1.
    9900012    2    1    2    0    0  0.44881659888E+00  0.16981992256E+02 -0.78797016316E+01  0.72461569611E+02  0.69999999109E+02 0.  0.
         12    1    1    2    0    0 -0.44881659888E+00 -0.16981992256E+02  0.78797016316E+01  0.18726430389E+02  0.00000000000E+00 0. -1.
         11    1    3    3    0    0 -0.10241200266E+01  0.11472996873E+02  0.16155942920E+02  0.19841697785E+02  0.51100000000E-03 0. -1.
        -11    1    3    3    0    0  0.22045958245E+02 -0.59306264393E+01 -0.15436748774E+02  0.27558842825E+02  0.51100000000E-03 0.  1.
         12    1    3    3    0    0 -0.20573021619E+02  0.11439621822E+02 -0.85988957779E+01  0.25061029001E+02  0.00000000000E+00 0. -1.
</event>
<event>
 7    1  0.1283194E-013  0.7246159E+02  0.7816164E-02  0.1226708E+00
        -11   -1    0    0    0    0  0.00000000000E+00  0.00000000000E+00  0.45593999997E+02  0.45594000000E+02  0.51100000000E-03 0.  1.
         11   -1    0    0    0    0 -0.00000000000E+00 -0.00000000000E+00 -0.45593999997E+02  0.45594000000E+02  0.51100000000E-03 0. -1.
    9900012    2    1    2    0    0 -0.76241604870E+01  0.62784480819E+01  0.15910115152E+02  0.72461588235E+02  0.70000023371E+02 0.  0.
         12    1    1    2    0    0  0.76241604870E+01 -0.62784480819E+01 -0.15910115152E+02  0.18726411765E+02  0.00000000000E+00 0. -1.
         11    1    3    3    0    0 -0.17639240153E+01  0.16357298533E+02  0.29732739190E+02  0.33981000916E+02  0.51100000000E-03 0. -1.
        -11    1    3    3    0    0 -0.18067372607E+02 -0.14118453398E+02 -0.10380026180E+02  0.25169537601E+02  0.51100000000E-03 0.  1.
         12    1    3    3    0    0  0.12207136135E+02  0.40396029475E+01 -0.34425978581E+01  0.13311049718E+02  0.00000000000E+00 0. -1.
</event>
<event>
 7    1  0.1283194E-013  0.7246159E+02  0.7816164E-02  0.1226708E+00
        -11   -1    0    0    0    0  0.00000000000E+00  0.00000000000E+00  0.45593999997E+02  0.45594000000E+02  0.51100000000E-03 0.  1.
         11   -1    0    0    0    0 -0.00000000000E+00 -0.00000000000E+00 -0.45593999997E+02  0.45594000000E+02  0.51100000000E-03 0. -1.
    9900012    2    1    2    0    0  0.10660393576E+02  0.57267518648E+01  0.14291218784E+02  0.72461585169E+02  0.70000019377E+02 0.  0.
         12    1    1    2    0    0 -0.10660393576E+02 -0.57267518648E+01 -0.14291218784E+02  0.18726414831E+02  0.00000000000E+00 0. -1.
         11    1    3    3    0    0 -0.55330341865E+01  0.19420732981E+02 -0.79281347645E+01  0.21694115745E+02  0.51100000000E-03 0. -1.
        -11    1    3    3    0    0 -0.36387751771E+01 -0.21662261399E+02  0.19215304694E+02  0.29184279817E+02  0.51100000000E-03 0.  1.
         12    1    3    3    0    0  0.19832202939E+02  0.79682802820E+01  0.30040488541E+01  0.21583189607E+02  0.00000000000E+00 0. -1.
</event>
<event>
 7    1  0.1283194E-013  0.7246155E+02  0.7816164E-02  0.1226708E+00
        -11   -1    0    0    0    0  0.00000000000E+00  0.00000000000E+00  0.45593999997E+02  0.45594000000E+02  0.51100000000E-03 0.  1.
         11   -1    0    0    0    0 -0.00000000000E+00 -0.00000000000E+00 -0.45593999997E+02  0.45594000000E+02  0.51100000000E-03 0. -1.
    9900012    2    1    2    0    0  0.35603913959E+01  0.15358966134E+02  0.10104741589E+02  0.72461547314E+02  0.69999970064E+02 0.  0.
         12    1    1    2    0    0 -0.35603913959E+01 -0.15358966134E+02 -0.10104741589E+02  0.18726452686E+02  0.00000000000E+00 0. -1.
         11    1    3    3    0    0  0.16367170111E+02  0.31652322064E+02  0.89393759118E+01  0.36737803302E+02  0.51100000000E-03 0.  1.
        -11    1    3    3    0    0 -0.26882786001E+01 -0.18240194144E+02  0.11008588359E+02  0.21473717474E+02  0.51100000000E-03 0. -1.
         12    1    3    3    0    0 -0.10118500115E+02  0.19468382136E+01 -0.98432226811E+01  0.14250026538E+02  0.00000000000E+00 0. -1.
</event>
<event>
 7    1  0.1283194E-013  0.7246159E+02  0.7816164E-02  0.1226708E+00
        -11   -1    0    0    0    0  0.00000000000E+00  0.00000000000E+00  0.45593999997E+02  0.45594000000E+02  0.51100000000E-03 0. -1.
         11   -1    0    0    0    0 -0.00000000000E+00 -0.00000000000E+00 -0.45593999997E+02  0.45594000000E+02  0.51100000000E-03 0.  1.
    9900012    2    1    2    0    0 -0.11589463936E+02 -0.10150413976E+02 -0.10645734815E+02  0.72461594900E+02  0.70000032054E+02 0.  0.
         12    1    1    2    0    0  0.11589463936E+02  0.10150413976E+02  0.10645734815E+02  0.18726405100E+02  0.00000000000E+00 0. -1.
         11    1    3    3    0    0  0.69896422163E+01  0.32554832314E+01  0.68637212716E+01  0.10322981126E+02  0.51100000000E-03 0. -1.
        -11    1    3    3    0    0 -0.24799130048E+02 -0.28931220020E+02 -0.25150413218E+00  0.38106109714E+02  0.51100000000E-03 0.  1.
        -12    1    3    3    0    0  0.62200238957E+01  0.15525322813E+02 -0.17257951955E+02  0.24032504060E+02  0.00000000000E+00 0.  1.
</event>
<event>
 7    1  0.1283194E-013  0.7246157E+02  0.7816164E-02  0.1226708E+00
        -11   -1    0    0    0    0  0.00000000000E+00  0.00000000000E+00  0.45593999997E+02  0.45594000000E+02  0.51100000000E-03 0.  1.
         11   -1    0    0    0    0 -0.00000000000E+00 -0.00000000000E+00 -0.45593999997E+02  0.45594000000E+02  0.51100000000E-03 0. -1.
    9900012    2    1    2    0    0 -0.68955365596E+01  0.95474890592E+01  0.14559406273E+02  0.72461567269E+02  0.69999996060E+02 0.  0.
         12    1    1    2    0    0  0.68955365596E+01 -0.95474890592E+01 -0.14559406273E+02  0.18726432731E+02  0.00000000000E+00 0. -1.
         11    1    3    3    0    0 -0.51506155719E+01 -0.26641758992E+02 -0.78068908009E+00  0.27146300644E+02  0.51100000000E-03 0. -1.
        -11    1    3    3    0    0 -0.11133234353E+02  0.21097887743E+02  0.13593465685E+02  0.27456366911E+02  0.51100000000E-03 0.  1.
         12    1    3    3    0    0  0.93883133655E+01  0.15091360308E+02  0.17466296683E+01  0.17858899714E+02  0.00000000000E+00 0. -1.
</event>
<event>
 7    1  0.1283194E-013  0.7246155E+02  0.7816164E-02  0.1226708E+00
        -11   -1    0    0    0    0  0.00000000000E+00  0.00000000000E+00  0.45593999997E+02  0.45594000000E+02  0.51100000000E-03 0.  1.
         11   -1    0    0    0    0 -0.00000000000E+00 -0.00000000000E+00 -0.45593999997E+02  0.45594000000E+02  0.51100000000E-03 0. -1.
    9900012    2    1    2    0    0  0.70593335484E+00 -0.50698970207E+01  0.18013267484E+02  0.72461548036E+02  0.69999971005E+02 0.  0.
         12    1    1    2    0    0 -0.70593335484E+00  0.50698970207E+01 -0.18013267484E+02  0.18726451964E+02  0.00000000000E+00 0. -1.
         11    1    3    3    0    0 -0.81047814145E+01  0.55011283741E+01 -0.18245553483E+02  0.20708696660E+02  0.51100000000E-03 0. -1.
        -11    1    3    3    0    0  0.85361813039E+01  0.11067064923E+02  0.21186333343E+02  0.25381233974E+02  0.51100000000E-03 0.  1.
         12    1    3    3    0    0  0.27453346546E+00 -0.21638090318E+02  0.15072487624E+02  0.26371617403E+02  0.00000000000E+00 0. -1.
</event>
<event>
 7    1  0.1283194E-013  0.7246174E+02  0.7816164E-02  0.1226708E+00
        -11   -1    0    0    0    0  0.00000000000E+00  0.00000000000E+00  0.45593999997E+02  0.45594000000E+02  0.51100000000E-03 0. -1.
         11   -1    0    0    0    0 -0.00000000000E+00 -0.00000000000E+00 -0.45593999997E+02  0.45594000000E+02  0.51100000000E-03 0.  1.
    9900012    2    1    2    0    0  0.13739767910E+02  0.12669619462E+02 -0.11715006995E+01  0.72461737868E+02  0.70000218296E+02 0.  0.
         12    1    1    2    0    0 -0.13739767910E+02 -0.12669619462E+02  0.11715006995E+01  0.18726262132E+02  0.00000000000E+00 0. -1.
         11    1    3    3    0    0 -0.11908414423E+02  0.18822180657E+02  0.25443179784E+01  0.22417813743E+02  0.51100000000E-03 0. -1.
        -11    1    3    3    0    0  0.29590746433E+02 -0.66016746725E+01 -0.17972768990E+02  0.35245067859E+02  0.51100000000E-03 0.  1.
        -12    1    3    3    0    0 -0.39425640995E+01  0.44911347752E+00  0.14256950312E+02  0.14798856267E+02  0.00000000000E+00 0.  1.
</event>
<event>
 7    1  0.1283194E-013  0.7246157E+02  0.7816164E-02  0.1226708E+00
        -11   -1    0    0    0    0  0.00000000000E+00  0.00000000000E+00  0.45593999997E+02  0.45594000000E+02  0.51100000000E-03 0. -1.
         11   -1    0    0    0    0 -0.00000000000E+00 -0.00000000000E+00 -0.45593999997E+02  0.45594000000E+02  0.51100000000E-03 0.  1.
    9900012    2    1    2    0    0  0.96724420172E+01  0.87350466271E+01  0.13447006026E+02  0.72461570943E+02  0.70000000845E+02 0.  0.
         12    1    1    2    0    0 -0.96724420172E+01 -0.87350466271E+01 -0.13447006026E+02  0.18726429057E+02  0.00000000000E+00 0. -1.
         11    1    3    3    0    0  0.22699648264E+02  0.19051881798E+01  0.11253443513E+02  0.25407553296E+02  0.51100000000E-03 0. -1.
        -11    1    3    3    0    0 -0.11995055821E+02  0.14529161837E+02  0.20091160562E+02  0.27543286674E+02  0.51100000000E-03 0.  1.
        -12    1    3    3    0    0 -0.10321504258E+01 -0.76993033893E+01 -0.17897598049E+02  0.19510730973E+02  0.00000000000E+00 0.  1.
</event>
<event>
 7    1  0.1283194E-013  0.7246160E+02  0.7816164E-02  0.1226708E+00
        -11   -1    0    0    0    0  0.00000000000E+00  0.00000000000E+00  0.45593999997E+02  0.45594000000E+02  0.51100000000E-03 0. -1.
         11   -1    0    0    0    0 -0.00000000000E+00 -0.00000000000E+00 -0.45593999997E+02  0.45594000000E+02  0.51100000000E-03 0.  1.
    9900012    2    1    2    0    0 -0.16452256571E+02 -0.84196297245E+01 -0.30184649005E+01  0.72461600417E+02  0.70000039240E+02 0.  0.
         12    1    1    2    0    0  0.16452256571E+02  0.84196297245E+01  0.30184649005E+01  0.18726399583E+02  0.00000000000E+00 0. -1.
         11    1    3    3    0    0  0.41679469155E+01 -0.27881365474E+00  0.20397629544E+02  0.20820970434E+02  0.51100000000E-03 0. -1.
        -11    1    3    3    0    0 -0.24342073930E+02 -0.21027087570E+02 -0.19711039802E+02  0.37725323925E+02  0.51100000000E-03 0.  1.
         12    1    3    3    0    0  0.37218704433E+01  0.12886271500E+02 -0.37050546425E+01  0.13915306058E+02  0.00000000000E+00 0. -1.
</event>
<event>
 7    1  0.1283194E-013  0.7246168E+02  0.7816164E-02  0.1226708E+00
        -11   -1    0    0    0    0  0.00000000000E+00  0.00000000000E+00  0.45593999997E+02  0.45594000000E+02  0.51100000000E-03 0. -1.
         11   -1    0    0    0    0 -0.00000000000E+00 -0.00000000000E+00 -0.45593999997E+02  0.45594000000E+02  0.51100000000E-03 0.  1.
    9900012    2    1    2    0    0  0.36776941376E+01  0.15081929042E+02 -0.10473054947E+02  0.72461684353E+02  0.70000148582E+02 0.  0.
         12    1    1    2    0    0 -0.36776941376E+01 -0.15081929042E+02  0.10473054947E+02  0.18726315647E+02  0.00000000000E+00 0. -1.
         11    1    3    3    0    0 -0.11750597024E+02  0.13876866550E+02  0.18291880946E+02  0.25792186113E+02  0.51100000000E-03 0. -1.
        -11    1    3    3    0    0  0.15468588414E+02  0.92584853132E+01 -0.32975537006E+02  0.37581681960E+02  0.51100000000E-03 0.  1.
         12    1    3    3    0    0 -0.40297252008E-01 -0.80534228215E+01  0.42106011130E+01  0.90878162802E+01  0.00000000000E+00 0. -1.
</event>
<event>
 7    1  0.1283194E-013  0.7246159E+02  0.7816164E-02  0.1226708E+00
        -11   -1    0    0    0    0  0.00000000000E+00  0.00000000000E+00  0.45593999997E+02  0.45594000000E+02  0.51100000000E-03 0.  1.
         11   -1    0    0    0    0 -0.00000000000E+00 -0.00000000000E+00 -0.45593999997E+02  0.45594000000E+02  0.51100000000E-03 0. -1.
    9900012    2    1    2    0    0 -0.15636677706E+02  0.58672038637E+01  0.84704484791E+01  0.72461594357E+02  0.70000031346E+02 0.  0.
         12    1    1    2    0    0  0.15636677706E+02 -0.58672038637E+01 -0.84704484791E+01  0.18726405643E+02  0.00000000000E+00 0. -1.
         11    1    3    3    0    0  0.14434285248E+02 -0.14530561933E+02  0.66267949133E+01  0.21526732957E+02  0.51100000000E-03 0. -1.
        -11    1    3    3    0    0 -0.24124998465E+02 -0.29589240988E+01 -0.69487159411E+01  0.25279545807E+02  0.51100000000E-03 0.  1.
         12    1    3    3    0    0 -0.59459644897E+01  0.23356689896E+02  0.87923695068E+01  0.25655315592E+02  0.00000000000E+00 0. -1.
</event>
<event>
 7    1  0.1283194E-013  0.7246153E+02  0.7816164E-02  0.1226708E+00
        -11   -1    0    0    0    0  0.00000000000E+00  0.00000000000E+00  0.45593999997E+02  0.45594000000E+02  0.51100000000E-03 0.  1.
         11   -1    0    0    0    0 -0.00000000000E+00 -0.00000000000E+00 -0.45593999997E+02  0.45594000000E+02  0.51100000000E-03 0. -1.
    9900012    2    1    2    0    0 -0.73827482559E+01  0.17209713730E+02  0.37345361598E-01  0.72461531749E+02  0.69999949788E+02 0.  0.
         12    1    1    2    0    0  0.73827482559E+01 -0.17209713730E+02 -0.37345361598E-01  0.18726468251E+02  0.00000000000E+00 0. -1.
         11    1    3    3    0    0 -0.13720935176E+01 -0.91451463276E+01 -0.46146624417E+01  0.10334962588E+02  0.51100000000E-03 0. -1.
        -11    1    3    3    0    0  0.88667549733E+01  0.31203505589E+01  0.25738785438E+02  0.27401478199E+02  0.51100000000E-03 0.  1.
        -12    1    3    3    0    0 -0.14877409712E+02  0.23234509498E+02 -0.21086777635E+02  0.34725090963E+02  0.00000000000E+00 0.  1.
</event>
<event>
 7    1  0.1283194E-013  0.7246155E+02  0.7816164E-02  0.1226708E+00
        -11   -1    0    0    0    0  0.00000000000E+00  0.00000000000E+00  0.45593999997E+02  0.45594000000E+02  0.51100000000E-03 0.  1.
         11   -1    0    0    0    0 -0.00000000000E+00 -0.00000000000E+00 -0.45593999997E+02  0.45594000000E+02  0.51100000000E-03 0. -1.
    9900012    2    1    2    0    0  0.13225329538E+02 -0.74032479046E+01 -0.10998296329E+02  0.72461549640E+02  0.69999973094E+02 0.  0.
         12    1    1    2    0    0 -0.13225329538E+02  0.74032479046E+01  0.10998296329E+02  0.18726450360E+02  0.00000000000E+00 0. -1.
         11    1    3    3    0    0 -0.23950026648E+01  0.99452382583E+01 -0.25228293946E+01  0.10536055723E+02  0.51100000000E-03 0. -1.
        -11    1    3    3    0    0  0.31508957057E+02 -0.20089690535E+02  0.86999629467E+01  0.38367947510E+02  0.51100000000E-03 0.  1.
        -12    1    3    3    0    0 -0.15888624854E+02  0.27412043719E+01 -0.17175429881E+02  0.23557546408E+02  0.00000000000E+00 0.  1.
</event>
<event>
 7    1  0.1283194E-013  0.7246202E+02  0.7816164E-02  0.1226707E+00
        -11   -1    0    0    0    0  0.00000000000E+00  0.00000000000E+00  0.45593999997E+02  0.45594000000E+02  0.51100000000E-03 0. -1.
         11   -1    0    0    0    0 -0.00000000000E+00 -0.00000000000E+00 -0.45593999997E+02  0.45594000000E+02  0.51100000000E-03 0.  1.
    9900012    2    1    2    0    0  0.11904779203E+02 -0.10332911015E+02 -0.10107889351E+02  0.72462022187E+02  0.70000588672E+02 0.  0.
         12    1    1    2    0    0 -0.11904779203E+02  0.10332911015E+02  0.10107889351E+02  0.18725977813E+02  0.00000000000E+00 0. -1.
         11    1    3    3    0    0 -0.24071613185E+02  0.26506430037E+01 -0.13608679262E+02  0.27778852049E+02  0.51100000000E-03 0. -1.
        -11    1    3    3    0    0  0.10083271448E+02 -0.10865486442E+02 -0.73296119824E+01  0.16536455811E+02  0.51100000000E-03 0.  1.
         12    1    3    3    0    0  0.25893120940E+02 -0.21180675773E+01  0.10830401893E+02  0.28146714327E+02  0.00000000000E+00 0. -1.
</event>
<event>
 7    1  0.1283194E-013  0.7246157E+02  0.7816164E-02  0.1226708E+00
        -11   -1    0    0    0    0  0.00000000000E+00  0.00000000000E+00  0.45593999997E+02  0.45594000000E+02  0.51100000000E-03 0. -1.
         11   -1    0    0    0    0 -0.00000000000E+00 -0.00000000000E+00 -0.45593999997E+02  0.45594000000E+02  0.51100000000E-03 0.  1.
    9900012    2    1    2    0    0  0.12541357663E+02  0.63038348337E+01 -0.12395774265E+02  0.72461569340E+02  0.69999998757E+02 0.  0.
         12    1    1    2    0    0 -0.12541357663E+02 -0.63038348337E+01  0.12395774265E+02  0.18726430660E+02  0.00000000000E+00 0. -1.
         11    1    3    3    0    0  0.11719232714E+02  0.23059203493E+01  0.25834478607E+01  0.12220142682E+02  0.51100000000E-03 0. -1.
        -11    1    3    3    0    0 -0.25030366331E+02  0.13999245192E+01 -0.21970692569E+02  0.33334522038E+02  0.51100000000E-03 0.  1.
        -12    1    3    3    0    0  0.25852491280E+02  0.25979899652E+01  0.69914704433E+01  0.26906904619E+02  0.00000000000E+00 0.  1.
</event>
<event>
 7    1  0.1283194E-013  0.7246153E+02  0.7816164E-02  0.1226708E+00
        -11   -1    0    0    0    0  0.00000000000E+00  0.00000000000E+00  0.45593999997E+02  0.45594000000E+02  0.51100000000E-03 0. -1.
         11   -1    0    0    0    0 -0.00000000000E+00 -0.00000000000E+00 -0.45593999997E+02  0.45594000000E+02  0.51100000000E-03 0.  1.
    9900012    2    1    2    0    0 -0.87840963075E+01  0.96042994290E+00 -0.16510541165E+02  0.72461528277E+02  0.69999945265E+02 0.  0.
         12    1    1    2    0    0  0.87840963075E+01 -0.96042994290E+00  0.16510541165E+02  0.18726471723E+02  0.00000000000E+00 0. -1.
         11    1    3    3    0    0  0.12057357082E+02  0.29721905551E-01  0.20308508883E+02  0.23618134484E+02  0.51100000000E-03 0. -1.
        -11    1    3    3    0    0 -0.23099112787E+02  0.32911439743E+01 -0.17283145239E+02  0.29036317773E+02  0.51100000000E-03 0.  1.
        -12    1    3    3    0    0  0.22576593980E+01 -0.23604359369E+01 -0.19535904809E+02  0.19807076021E+02  0.00000000000E+00 0.  1.
</event>
<event>
 7    1  0.1283194E-013  0.7246145E+02  0.7816164E-02  0.1226708E+00
        -11   -1    0    0    0    0  0.00000000000E+00  0.00000000000E+00  0.45593999997E+02  0.45594000000E+02  0.51100000000E-03 0. -1.
         11   -1    0    0    0    0 -0.00000000000E+00 -0.00000000000E+00 -0.45593999997E+02  0.45594000000E+02  0.51100000000E-03 0.  1.
    9900012    2    1    2    0    0 -0.39026525112E+01  0.11349341959E+02 -0.14375172425E+02  0.72461445545E+02  0.69999837490E+02 0.  0.
         12    1    1    2    0    0  0.39026525112E+01 -0.11349341959E+02  0.14375172425E+02  0.18726554455E+02  0.00000000000E+00 0. -1.
         11    1    3    3    0    0 -0.28517737348E+02  0.94839928556E+01 -0.12371378539E+02  0.32500130325E+02  0.51100000000E-03 0. -1.
        -11    1    3    3    0    0  0.14621045096E+02  0.16569235860E+02 -0.19350216343E+01  0.22182399457E+02  0.51100000000E-03 0.  1.
        -12    1    3    3    0    0  0.99940397408E+01 -0.14703886757E+02 -0.68772251805E-01  0.17778915763E+02  0.00000000000E+00 0.  1.
</event>
<event>
 7    1  0.1283194E-013  0.7246156E+02  0.7816164E-02  0.1226708E+00
        -11   -1    0    0    0    0  0.00000000000E+00  0.00000000000E+00  0.45593999997E+02  0.45594000000E+02  0.51100000000E-03 0.  1.
         11   -1    0    0    0    0 -0.00000000000E+00 -0.00000000000E+00 -0.45593999997E+02  0.45594000000E+02  0.51100000000E-03 0. -1.
    9900012    2    1    2    0    0 -0.35284237954E+01  0.10809543715E+02  0.14878962350E+02  0.72461560658E+02  0.69999987447E+02 0.  0.
         12    1    1    2    0    0  0.35284237954E+01 -0.10809543715E+02 -0.14878962350E+02  0.18726439342E+02  0.00000000000E+00 0. -1.
         11    1    3    3    0    0 -0.21420962344E+02  0.44194429041E+01 -0.76431426948E+01  0.23169090052E+02  0.51100000000E-03 0. -1.
        -11    1    3    3    0    0  0.10842790805E+02 -0.10068868259E+02  0.27041976647E+02  0.30825585505E+02  0.51100000000E-03 0.  1.
        -12    1    3    3    0    0  0.70497477430E+01  0.16458969069E+02 -0.45198716024E+01  0.18466885102E+02  0.00000000000E+00 0.  1.
</event>
<event>
 7    1  0.1283194E-013  0.7246167E+02  0.7816164E-02  0.1226708E+00
        -11   -1    0    0    0    0  0.00000000000E+00  0.00000000000E+00  0.45593999997E+02  0.45594000000E+02  0.51100000000E-03 0.  1.
         11   -1    0    0    0    0 -0.00000000000E+00 -0.00000000000E+00 -0.45593999997E+02  0.45594000000E+02  0.51100000000E-03 0. -1.
    9900012    2    1    2    0    0 -0.55350708645E+01  0.17811825283E+02  0.16665045021E+01  0.72461671833E+02  0.70000132272E+02 0.  0.
         12    1    1    2    0    0  0.55350708645E+01 -0.17811825283E+02 -0.16665045021E+01  0.18726328167E+02  0.00000000000E+00 0. -1.
         11    1    3    3    0    0 -0.76574407106E+01 -0.11808675167E+02 -0.78023385281E+01  0.16092162509E+02  0.51100000000E-03 0. -1.
        -11    1    3    3    0    0 -0.29682936845E+01  0.39925803033E+02  0.16040046309E+02  0.43129613968E+02  0.51100000000E-03 0.  1.
        -12    1    3    3    0    0  0.50906635305E+01 -0.10305302582E+02 -0.65712032785E+01  0.13239895355E+02  0.00000000000E+00 0.  1.
</event>
<event>
 7    1  0.1283194E-013  0.7246159E+02  0.7816164E-02  0.1226708E+00
        -11   -1    0    0    0    0  0.00000000000E+00  0.00000000000E+00  0.45593999997E+02  0.45594000000E+02  0.51100000000E-03 0.  1.
         11   -1    0    0    0    0 -0.00000000000E+00 -0.00000000000E+00 -0.45593999997E+02  0.45594000000E+02  0.51100000000E-03 0. -1.
    9900012    2    1    2    0    0  0.58544318535E+01 -0.48563603444E+01  0.17111978233E+02  0.72461590650E+02  0.70000026517E+02 0.  0.
         12    1    1    2    0    0 -0.58544318535E+01  0.48563603444E+01 -0.17111978233E+02  0.18726409350E+02  0.00000000000E+00 0. -1.
         11    1    3    3    0    0 -0.12205645906E+02 -0.29147136454E+02  0.88103098829E+01  0.32804800197E+02  0.51100000000E-03 0. -1.
        -11    1    3    3    0    0  0.17086934797E+01  0.21476127593E+02  0.82365747871E+01  0.23064796862E+02  0.51100000000E-03 0.  1.
        -12    1    3    3    0    0  0.16351384280E+02  0.28146485161E+01  0.65093562445E-01  0.16591993591E+02  0.00000000000E+00 0.  1.
</event>
<event>
 7    1  0.1283194E-013  0.7246161E+02  0.7816164E-02  0.1226708E+00
        -11   -1    0    0    0    0  0.00000000000E+00  0.00000000000E+00  0.45593999997E+02  0.45594000000E+02  0.51100000000E-03 0. -1.
         11   -1    0    0    0    0 -0.00000000000E+00 -0.00000000000E+00 -0.45593999997E+02  0.45594000000E+02  0.51100000000E-03 0.  1.
    9900012    2    1    2    0    0  0.13015228632E+02  0.11109308718E+02 -0.76068904950E+01  0.72461609543E+02  0.70000051129E+02 0.  0.
         12    1    1    2    0    0 -0.13015228632E+02 -0.11109308718E+02  0.76068904950E+01  0.18726390457E+02  0.00000000000E+00 0. -1.
         11    1    3    3    0    0  0.75457389668E+01 -0.15377210650E+02 -0.24794650821E+01  0.17307354832E+02  0.51100000000E-03 0. -1.
        -11    1    3    3    0    0  0.12349158232E+02  0.18685088515E+02  0.18685858488E+02  0.29168399846E+02  0.51100000000E-03 0.  1.
        -12    1    3    3    0    0 -0.68796685663E+01  0.78014308528E+01 -0.23813283901E+02  0.25985854866E+02  0.00000000000E+00 0.  1.
</event>
<event>
 7    1  0.1283194E-013  0.7246152E+02  0.7816164E-02  0.1226708E+00
        -11   -1    0    0    0    0  0.00000000000E+00  0.00000000000E+00  0.45593999997E+02  0.45594000000E+02  0.51100000000E-03 0.  1.
         11   -1    0    0    0    0 -0.00000000000E+00 -0.00000000000E+00 -0.45593999997E+02  0.45594000000E+02  0.51100000000E-03 0. -1.
    9900012    2    1    2    0    0  0.87773148813E+01  0.16531651349E+02  0.58684347343E+00  0.72461517733E+02  0.69999931529E+02 0.  0.
         12    1    1    2    0    0 -0.87773148813E+01 -0.16531651349E+02 -0.58684347343E+00  0.18726482267E+02  0.00000000000E+00 0. -1.
         11    1    3    3    0    0  0.20178167348E+01 -0.11263299919E+02 -0.50878593115E+00  0.11453923905E+02  0.51100000000E-03 0. -1.
        -11    1    3    3    0    0 -0.40588944029E+00  0.26685931536E+02  0.24669397154E+02  0.36343951965E+02  0.51100000000E-03 0.  1.
        -12    1    3    3    0    0  0.71653875868E+01  0.11090197312E+01 -0.23573767750E+02  0.24663641863E+02  0.00000000000E+00 0.  1.
</event>
<event>
 8    1  0.1283194E-013  0.7246155E+02  0.7816164E-02  0.1226708E+00
        -11   -1    0    0    0    0  0.00000000000E+00  0.00000000000E+00  0.45593999997E+02  0.45594000000E+02  0.51100000000E-03 0. -1.
         11   -1    0    0    0    0 -0.00000000000E+00 -0.00000000000E+00 -0.45593999997E+02  0.45594000000E+02  0.51100000000E-03 0.  1.
    9900012    2    1    2    0    0  0.31495297497E+01 -0.38658066089E+01 -0.18050367823E+02  0.72461554077E+02  0.69999978873E+02 0.  0.
         24    2    3    3    0    0 -0.71627328750E+01  0.35231850341E+01 -0.20719511583E+02  0.59497593007E+02  0.55199165196E+02 0.  0.
         12    1    1    2    0    0 -0.31495297497E+01  0.38658066089E+01  0.18050367823E+02  0.18726445923E+02  0.00000000000E+00 0. -1.
         11    1    3    3    0    0  0.10312262625E+02 -0.73889916430E+01  0.26691437601E+01  0.12963961070E+02  0.51100000000E-03 0. -1.
        -11    1    4    4    0    0 -0.53952526177E+01  0.49743676220E-01 -0.39728499010E+02  0.40093202155E+02  0.51100000000E-03 0.  1.
         12    1    4    4    0    0 -0.17674802573E+01  0.34734413579E+01  0.19008987427E+02  0.19404390852E+02  0.00000000000E+00 0. -1.
</event>
<event>
 7    1  0.1283194E-013  0.7246155E+02  0.7816164E-02  0.1226708E+00
        -11   -1    0    0    0    0  0.00000000000E+00  0.00000000000E+00  0.45593999997E+02  0.45594000000E+02  0.51100000000E-03 0. -1.
         11   -1    0    0    0    0 -0.00000000000E+00 -0.00000000000E+00 -0.45593999997E+02  0.45594000000E+02  0.51100000000E-03 0.  1.
    9900012    2    1    2    0    0 -0.79210354648E+01 -0.10785769364E+02 -0.13099781074E+02  0.72461551116E+02  0.69999975016E+02 0.  0.
         12    1    1    2    0    0  0.79210354648E+01  0.10785769364E+02  0.13099781074E+02  0.18726448884E+02  0.00000000000E+00 0. -1.
         11    1    3    3    0    0 -0.19032893459E+02  0.22497483018E+02 -0.23957737087E+01  0.29565647422E+02  0.51100000000E-03 0. -1.
        -11    1    3    3    0    0  0.14202454456E+02 -0.30585159906E+02 -0.26114265791E+01  0.33822792139E+02  0.51100000000E-03 0.  1.
        -12    1    3    3    0    0 -0.30905964616E+01 -0.26980924767E+01 -0.80925807864E+01  0.90731115548E+01  0.00000000000E+00 0.  1.
</event>
<event>
 7    1  0.1283194E-013  0.7246159E+02  0.7816164E-02  0.1226708E+00
        -11   -1    0    0    0    0  0.00000000000E+00  0.00000000000E+00  0.45593999997E+02  0.45594000000E+02  0.51100000000E-03 0.  1.
         11   -1    0    0    0    0 -0.00000000000E+00 -0.00000000000E+00 -0.45593999997E+02  0.45594000000E+02  0.51100000000E-03 0. -1.
    9900012    2    1    2    0    0 -0.12370673021E+02 -0.12978038806E+02  0.54051212792E+01  0.72461591421E+02  0.70000027522E+02 0.  0.
         12    1    1    2    0    0  0.12370673021E+02  0.12978038806E+02 -0.54051212792E+01  0.18726408579E+02  0.00000000000E+00 0. -1.
         11    1    3    3    0    0 -0.26149108396E+01 -0.12562088976E+02  0.30143372563E+02  0.32760750112E+02  0.51100000000E-03 0.  1.
        -11    1    3    3    0    0 -0.94133086729E+01  0.12374600852E+02 -0.52944634951E+01  0.16424751760E+02  0.51100000000E-03 0. -1.
         12    1    3    3    0    0 -0.34245350803E+00 -0.12790550681E+02 -0.19443787789E+02  0.23276089549E+02  0.00000000000E+00 0. -1.
</event>
<event>
 7    1  0.1283194E-013  0.7246151E+02  0.7816164E-02  0.1226708E+00
        -11   -1    0    0    0    0  0.00000000000E+00  0.00000000000E+00  0.45593999997E+02  0.45594000000E+02  0.51100000000E-03 0. -1.
         11   -1    0    0    0    0 -0.00000000000E+00 -0.00000000000E+00 -0.45593999997E+02  0.45594000000E+02  0.51100000000E-03 0.  1.
    9900012    2    1    2    0    0  0.56151702700E+01  0.15206404178E+02 -0.93763749101E+01  0.72461514167E+02  0.69999926884E+02 0.  0.
         12    1    1    2    0    0 -0.56151702700E+01 -0.15206404178E+02  0.93763749101E+01  0.18726485833E+02  0.00000000000E+00 0. -1.
         11    1    3    3    0    0 -0.70438515004E+01 -0.18030106264E+02  0.15746557634E+02  0.24953048981E+02  0.51100000000E-03 0. -1.
        -11    1    3    3    0    0  0.62695080182E+01  0.27386192927E+02 -0.95236120645E+01  0.29664953748E+02  0.51100000000E-03 0.  1.
        -12    1    3    3    0    0  0.63895137522E+01  0.58503175156E+01 -0.15599320480E+02  0.17843511438E+02  0.00000000000E+00 0.  1.
</event>
<event>
 7    1  0.1283194E-013  0.7246153E+02  0.7816164E-02  0.1226708E+00
        -11   -1    0    0    0    0  0.00000000000E+00  0.00000000000E+00  0.45593999997E+02  0.45594000000E+02  0.51100000000E-03 0. -1.
         11   -1    0    0    0    0 -0.00000000000E+00 -0.00000000000E+00 -0.45593999997E+02  0.45594000000E+02  0.51100000000E-03 0.  1.
    9900012    2    1    2    0    0  0.12903581463E+01 -0.16747195019E+02 -0.82793289122E+01  0.72461525361E+02  0.69999941466E+02 0.  0.
         12    1    1    2    0    0 -0.12903581463E+01  0.16747195019E+02  0.82793289122E+01  0.18726474639E+02  0.00000000000E+00 0. -1.
         11    1    3    3    0    0  0.20433125970E+02  0.45262039796E+01  0.51737709443E+01  0.21558456935E+02  0.51100000000E-03 0. -1.
        -11    1    3    3    0    0 -0.15051801618E+02 -0.22251079377E+02 -0.26172913069E+02  0.37505848133E+02  0.51100000000E-03 0.  1.
        -12    1    3    3    0    0 -0.40909662061E+01  0.97768037862E+00  0.12719813213E+02  0.13397220293E+02  0.00000000000E+00 0.  1.
</event>
<event>
 7    1  0.1283194E-013  0.7246161E+02  0.7816164E-02  0.1226708E+00
        -11   -1    0    0    0    0  0.00000000000E+00  0.00000000000E+00  0.45593999997E+02  0.45594000000E+02  0.51100000000E-03 0. -1.
         11   -1    0    0    0    0 -0.00000000000E+00 -0.00000000000E+00 -0.45593999997E+02  0.45594000000E+02  0.51100000000E-03 0.  1.
    9900012    2    1    2    0    0 -0.18253091458E+02  0.35088271983E+01 -0.22782903610E+01  0.72461606246E+02  0.70000046833E+02 0.  0.
         12    1    1    2    0    0  0.18253091458E+02 -0.35088271983E+01  0.22782903610E+01  0.18726393754E+02  0.00000000000E+00 0. -1.
         11    1    3    3    0    0 -0.32613719155E+02 -0.17099371740E+02 -0.75994301113E+01  0.37600459163E+02  0.51100000000E-03 0.  1.
        -11    1    3    3    0    0  0.79351674147E+01  0.17809492600E+02 -0.69754339213E+01  0.20707524894E+02  0.51100000000E-03 0. -1.
        -12    1    3    3    0    0  0.64254602823E+01  0.27987063383E+01  0.12296573672E+02  0.14153622189E+02  0.00000000000E+00 0.  1.
</event>
<event>
 7    1  0.1283194E-013  0.7246151E+02  0.7816164E-02  0.1226708E+00
        -11   -1    0    0    0    0  0.00000000000E+00  0.00000000000E+00  0.45593999997E+02  0.45594000000E+02  0.51100000000E-03 0.  1.
         11   -1    0    0    0    0 -0.00000000000E+00 -0.00000000000E+00 -0.45593999997E+02  0.45594000000E+02  0.51100000000E-03 0. -1.
    9900012    2    1    2    0    0 -0.59670791802E+01 -0.11958751859E+02  0.13117296731E+02  0.72461514652E+02  0.69999927515E+02 0.  0.
         12    1    1    2    0    0  0.59670791802E+01  0.11958751859E+02 -0.13117296731E+02  0.18726485348E+02  0.00000000000E+00 0. -1.
         11    1    3    3    0    0 -0.28818174278E+02 -0.17076998816E+02  0.22338752776E+02  0.40263270274E+02  0.51100000000E-03 0.  1.
        -11    1    3    3    0    0  0.26462716800E+02  0.37310244181E+01 -0.66077246602E+01  0.27529219914E+02  0.51100000000E-03 0. -1.
        -12    1    3    3    0    0 -0.36116217016E+01  0.13872225387E+01 -0.26137313853E+01  0.46690244636E+01  0.00000000000E+00 0.  1.
</event>
<event>
 7    1  0.1283194E-013  0.7246158E+02  0.7816164E-02  0.1226708E+00
        -11   -1    0    0    0    0  0.00000000000E+00  0.00000000000E+00  0.45593999997E+02  0.45594000000E+02  0.51100000000E-03 0. -1.
         11   -1    0    0    0    0 -0.00000000000E+00 -0.00000000000E+00 -0.45593999997E+02  0.45594000000E+02  0.51100000000E-03 0.  1.
    9900012    2    1    2    0    0 -0.17952521097E+02 -0.40428066760E+00 -0.53124776126E+01  0.72461578159E+02  0.70000010245E+02 0.  0.
         12    1    1    2    0    0  0.17952521097E+02  0.40428066760E+00  0.53124776126E+01  0.18726421841E+02  0.00000000000E+00 0. -1.
         11    1    3    3    0    0 -0.30177991657E+02  0.18630887259E+02 -0.23350898832E+02  0.42462755646E+02  0.51100000000E-03 0. -1.
        -11    1    3    3    0    0  0.52131176198E+01 -0.20759253550E+01  0.39282931073E+01  0.68496385595E+01  0.51100000000E-03 0.  1.
         12    1    3    3    0    0  0.70123529406E+01 -0.16959242572E+02  0.14110128112E+02  0.23149183953E+02  0.00000000000E+00 0. -1.
</event>
<event>
 7    1  0.1283194E-013  0.7246155E+02  0.7816164E-02  0.1226708E+00
        -11   -1    0    0    0    0  0.00000000000E+00  0.00000000000E+00  0.45593999997E+02  0.45594000000E+02  0.51100000000E-03 0.  1.
         11   -1    0    0    0    0 -0.00000000000E+00 -0.00000000000E+00 -0.45593999997E+02  0.45594000000E+02  0.51100000000E-03 0. -1.
    9900012    2    1    2    0    0  0.87182371113E+01  0.78889112826E-01  0.16573052633E+02  0.72461549312E+02  0.69999972666E+02 0.  0.
         12    1    1    2    0    0 -0.87182371113E+01 -0.78889112826E-01 -0.16573052633E+02  0.18726450688E+02  0.00000000000E+00 0. -1.
         11    1    3    3    0    0  0.10946816455E+02 -0.23477134846E+02  0.27534462790E+02  0.37804170306E+02  0.51100000000E-03 0.  1.
        -11    1    3    3    0    0 -0.81422767756E+01  0.22651867898E+02 -0.14105309828E+02  0.27899167657E+02  0.51100000000E-03 0. -1.
         12    1    3    3    0    0  0.59136974321E+01  0.90415606051E+00  0.31438996697E+01  0.67582113487E+01  0.00000000000E+00 0. -1.
</event>
<event>
 7    1  0.1283194E-013  0.7246154E+02  0.7816164E-02  0.1226708E+00
        -11   -1    0    0    0    0  0.00000000000E+00  0.00000000000E+00  0.45593999997E+02  0.45594000000E+02  0.51100000000E-03 0. -1.
         11   -1    0    0    0    0 -0.00000000000E+00 -0.00000000000E+00 -0.45593999997E+02  0.45594000000E+02  0.51100000000E-03 0.  1.
    9900012    2    1    2    0    0 -0.11219543744E+01 -0.56973872080E+01 -0.17803404262E+02  0.72461542622E+02  0.69999963952E+02 0.  0.
         12    1    1    2    0    0  0.11219543744E+01  0.56973872080E+01  0.17803404262E+02  0.18726457378E+02  0.00000000000E+00 0. -1.
         11    1    3    3    0    0  0.43365807774E+01 -0.93705236647E+01  0.33642103225E+01  0.10859583691E+02  0.51100000000E-03 0. -1.
        -11    1    3    3    0    0 -0.28447830062E+02  0.50684619875E+01  0.19602301665E+01  0.28962231349E+02  0.51100000000E-03 0.  1.
        -12    1    3    3    0    0  0.22989294910E+02 -0.13953255309E+01 -0.23127844751E+02  0.32639727582E+02  0.00000000000E+00 0.  1.
</event>
<event>
 7    1  0.1283194E-013  0.7246159E+02  0.7816164E-02  0.1226708E+00
        -11   -1    0    0    0    0  0.00000000000E+00  0.00000000000E+00  0.45593999997E+02  0.45594000000E+02  0.51100000000E-03 0.  1.
         11   -1    0    0    0    0 -0.00000000000E+00 -0.00000000000E+00 -0.45593999997E+02  0.45594000000E+02  0.51100000000E-03 0. -1.
    9900012    2    1    2    0    0 -0.11352018681E+02  0.56117570790E+01 -0.13795595546E+02  0.72461585444E+02  0.70000019735E+02 0.  0.
         12    1    1    2    0    0  0.11352018681E+02 -0.56117570790E+01  0.13795595546E+02  0.18726414556E+02  0.00000000000E+00 0. -1.
         11    1    3    3    0    0  0.18800271081E+02  0.10352392088E+02  0.37114727193E+01  0.21780662173E+02  0.51100000000E-03 0.  1.
        -11    1    3    3    0    0 -0.30947251654E+02 -0.15058307478E+02 -0.55387268151E+01  0.34859181058E+02  0.51100000000E-03 0. -1.
         12    1    3    3    0    0  0.79496189243E+00  0.10317672468E+02 -0.11968341451E+02  0.15821742213E+02  0.00000000000E+00 0. -1.
</event>
<event>
 7    1  0.1283194E-013  0.7246156E+02  0.7816164E-02  0.1226708E+00
        -11   -1    0    0    0    0  0.00000000000E+00  0.00000000000E+00  0.45593999997E+02  0.45594000000E+02  0.51100000000E-03 0.  1.
         11   -1    0    0    0    0 -0.00000000000E+00 -0.00000000000E+00 -0.45593999997E+02  0.45594000000E+02  0.51100000000E-03 0. -1.
    9900012    2    1    2    0    0 -0.15242614178E+02 -0.10625595800E+02  0.23321476328E+01  0.72461561854E+02  0.69999989004E+02 0.  0.
         12    1    1    2    0    0  0.15242614178E+02  0.10625595800E+02 -0.23321476328E+01  0.18726438146E+02  0.00000000000E+00 0. -1.
         11    1    3    3    0    0  0.39793696282E+01  0.68417067245E+01 -0.17629182111E+02  0.19324398974E+02  0.51100000000E-03 0. -1.
        -11    1    3    3    0    0 -0.97428106664E+01 -0.30914112412E+02  0.16307790919E+02  0.36284276910E+02  0.51100000000E-03 0.  1.
         12    1    3    3    0    0 -0.94791731396E+01  0.13446809888E+02  0.36535388245E+01  0.16852885970E+02  0.00000000000E+00 0. -1.
</event>
<event>
 7    1  0.1283194E-013  0.7246159E+02  0.7816164E-02  0.1226708E+00
        -11   -1    0    0    0    0  0.00000000000E+00  0.00000000000E+00  0.45593999997E+02  0.45594000000E+02  0.51100000000E-03 0. -1.
         11   -1    0    0    0    0 -0.00000000000E+00 -0.00000000000E+00 -0.45593999997E+02  0.45594000000E+02  0.51100000000E-03 0.  1.
    9900012    2    1    2    0    0 -0.88090205831E+01  0.57921948027E+01 -0.15476760310E+02  0.72461588866E+02  0.70000024193E+02 0.  0.
         12    1    1    2    0    0  0.88090205831E+01 -0.57921948027E+01  0.15476760310E+02  0.18726411134E+02  0.00000000000E+00 0. -1.
         11    1    3    3    0    0  0.12850344700E+02 -0.18756154224E+02 -0.93179226064E+01  0.24571291422E+02  0.51100000000E-03 0. -1.
        -11    1    3    3    0    0 -0.16034534732E+00  0.25879879925E+02 -0.20476077877E+01  0.25961251770E+02  0.51100000000E-03 0.  1.
         12    1    3    3    0    0 -0.21499019936E+02 -0.13315308988E+01 -0.41112299160E+01  0.21929045674E+02  0.00000000000E+00 0. -1.
</event>
<event>
 7    1  0.1283194E-013  0.7246156E+02  0.7816164E-02  0.1226708E+00
        -11   -1    0    0    0    0  0.00000000000E+00  0.00000000000E+00  0.45593999997E+02  0.45594000000E+02  0.51100000000E-03 0.  1.
         11   -1    0    0    0    0 -0.00000000000E+00 -0.00000000000E+00 -0.45593999997E+02  0.45594000000E+02  0.51100000000E-03 0. -1.
    9900012    2    1    2    0    0  0.10561977454E+02 -0.15035361519E+02  0.36141597050E+01  0.72461558424E+02  0.69999984537E+02 0.  0.
         12    1    1    2    0    0 -0.10561977454E+02  0.15035361519E+02 -0.36141597050E+01  0.18726441576E+02  0.00000000000E+00 0. -1.
         11    1    3    3    0    0  0.12326309921E+01  0.23342115120E+02 -0.22920107043E+01  0.23486741596E+02  0.51100000000E-03 0. -1.
        -11    1    3    3    0    0  0.13061303096E+02 -0.32684044385E+02  0.14452229613E+02  0.38048802044E+02  0.51100000000E-03 0.  1.
         12    1    3    3    0    0 -0.37319566345E+01 -0.56934322541E+01 -0.85460592039E+01  0.10926014784E+02  0.00000000000E+00 0. -1.
</event>
<event>
 7    1  0.1283194E-013  0.7246156E+02  0.7816164E-02  0.1226708E+00
        -11   -1    0    0    0    0  0.00000000000E+00  0.00000000000E+00  0.45593999997E+02  0.45594000000E+02  0.51100000000E-03 0.  1.
         11   -1    0    0    0    0 -0.00000000000E+00 -0.00000000000E+00 -0.45593999997E+02  0.45594000000E+02  0.51100000000E-03 0. -1.
    9900012    2    1    2    0    0  0.14452501512E+02 -0.11354518246E+02 -0.35888185757E+01  0.72461561382E+02  0.69999988390E+02 0.  0.
         12    1    1    2    0    0 -0.14452501512E+02  0.11354518246E+02  0.35888185757E+01  0.18726438618E+02  0.00000000000E+00 0. -1.
         11    1    3    3    0    0 -0.29050610093E+00 -0.54766357989E+01 -0.21862919858E+02  0.22540301650E+02  0.51100000000E-03 0. -1.
        -11    1    3    3    0    0  0.32922300091E+01 -0.24260764008E+02  0.12588236248E+02  0.27529750104E+02  0.51100000000E-03 0.  1.
        -12    1    3    3    0    0  0.11450777604E+02  0.18382881561E+02  0.56858650349E+01  0.22391509628E+02  0.00000000000E+00 0.  1.
</event>
<event>
 7    1  0.1283194E-013  0.7246159E+02  0.7816164E-02  0.1226708E+00
        -11   -1    0    0    0    0  0.00000000000E+00  0.00000000000E+00  0.45593999997E+02  0.45594000000E+02  0.51100000000E-03 0. -1.
         11   -1    0    0    0    0 -0.00000000000E+00 -0.00000000000E+00 -0.45593999997E+02  0.45594000000E+02  0.51100000000E-03 0.  1.
    9900012    2    1    2    0    0  0.66789186987E+01 -0.11513466203E+01 -0.17456945426E+02  0.72461588234E+02  0.70000023370E+02 0.  0.
         12    1    1    2    0    0 -0.66789186987E+01  0.11513466203E+01  0.17456945426E+02  0.18726411766E+02  0.00000000000E+00 0. -1.
         11    1    3    3    0    0  0.42271594541E+01 -0.59973355203E+01  0.42217013446E+01  0.84652036536E+01  0.51100000000E-03 0. -1.
        -11    1    3    3    0    0 -0.23814792372E+02 -0.56159103776E+01 -0.25646338122E+02  0.35445979242E+02  0.51100000000E-03 0.  1.
        -12    1    3    3    0    0  0.26266551617E+02  0.10461899278E+02  0.39676913514E+01  0.28550405338E+02  0.00000000000E+00 0.  1.
</event>
<event>
 7    1  0.1283194E-013  0.7246157E+02  0.7816164E-02  0.1226708E+00
        -11   -1    0    0    0    0  0.00000000000E+00  0.00000000000E+00  0.45593999997E+02  0.45594000000E+02  0.51100000000E-03 0.  1.
         11   -1    0    0    0    0 -0.00000000000E+00 -0.00000000000E+00 -0.45593999997E+02  0.45594000000E+02  0.51100000000E-03 0. -1.
    9900012    2    1    2    0    0 -0.72909208490E+01  0.16105794973E+02  0.61745468095E+01  0.72461569832E+02  0.69999999398E+02 0.  0.
         12    1    1    2    0    0  0.72909208490E+01 -0.16105794973E+02 -0.61745468095E+01  0.18726430168E+02  0.00000000000E+00 0. -1.
         11    1    3    3    0    0  0.23855193335E+02  0.26429507148E+02  0.87017065873E+01  0.36651177265E+02  0.51100000000E-03 0. -1.
        -11    1    3    3    0    0 -0.22839480892E+02 -0.78078606063E+00 -0.35086361703E+01  0.23120597794E+02  0.51100000000E-03 0.  1.
         12    1    3    3    0    0 -0.83066332920E+01 -0.95429261145E+01  0.98147639258E+00  0.12689794773E+02  0.00000000000E+00 0. -1.
</event>
<event>
 7    1  0.1283194E-013  0.7246158E+02  0.7816164E-02  0.1226708E+00
        -11   -1    0    0    0    0  0.00000000000E+00  0.00000000000E+00  0.45593999997E+02  0.45594000000E+02  0.51100000000E-03 0.  1.
         11   -1    0    0    0    0 -0.00000000000E+00 -0.00000000000E+00 -0.45593999997E+02  0.45594000000E+02  0.51100000000E-03 0. -1.
    9900012    2    1    2    0    0  0.29801946580E+01  0.16624205656E+02  0.80890693863E+01  0.72461579695E+02  0.70000012246E+02 0.  0.
         12    1    1    2    0    0 -0.29801946580E+01 -0.16624205656E+02 -0.80890693863E+01  0.18726420305E+02  0.00000000000E+00 0. -1.
         11    1    3    3    0    0  0.17934008042E+01  0.37681109007E+02 -0.12098280686E+02  0.39616292839E+02  0.51100000000E-03 0. -1.
        -11    1    3    3    0    0 -0.55564626579E+01 -0.16454398574E+02  0.16238350519E+02  0.23776154809E+02  0.51100000000E-03 0.  1.
         12    1    3    3    0    0  0.67432565117E+01 -0.46025047772E+01  0.39489995536E+01  0.90691320468E+01  0.00000000000E+00 0. -1.
</event>
<event>
 7    1  0.1283194E-013  0.7246157E+02  0.7816164E-02  0.1226708E+00
        -11   -1    0    0    0    0  0.00000000000E+00  0.00000000000E+00  0.45593999997E+02  0.45594000000E+02  0.51100000000E-03 0.  1.
         11   -1    0    0    0    0 -0.00000000000E+00 -0.00000000000E+00 -0.45593999997E+02  0.45594000000E+02  0.51100000000E-03 0. -1.
    9900012    2    1    2    0    0  0.60232054181E+01  0.13099751112E+02  0.11949754463E+02  0.72461571765E+02  0.70000001916E+02 0.  0.
         12    1    1    2    0    0 -0.60232054181E+01 -0.13099751112E+02 -0.11949754463E+02  0.18726428235E+02  0.00000000000E+00 0. -1.
         11    1    3    3    0    0  0.61977053275E+01  0.40686871894E+02  0.40524791430E+01  0.41355237677E+02  0.51100000000E-03 0. -1.
        -11    1    3    3    0    0  0.18985405824E+01 -0.12217359522E+02  0.93903585588E+01  0.15525693677E+02  0.51100000000E-03 0.  1.
         12    1    3    3    0    0 -0.20730404918E+01 -0.15369761260E+02 -0.14930832384E+01  0.15580640411E+02  0.00000000000E+00 0. -1.
</event>
<event>
 7    1  0.1283194E-013  0.7246167E+02  0.7816164E-02  0.1226708E+00
        -11   -1    0    0    0    0  0.00000000000E+00  0.00000000000E+00  0.45593999997E+02  0.45594000000E+02  0.51100000000E-03 0.  1.
         11   -1    0    0    0    0 -0.00000000000E+00 -0.00000000000E+00 -0.45593999997E+02  0.45594000000E+02  0.51100000000E-03 0. -1.
    9900012    2    1    2    0    0  0.18095508052E+02  0.26193330144E+01  0.40456080684E+01  0.72461674633E+02  0.70000135920E+02 0.  0.
         12    1    1    2    0    0 -0.18095508052E+02 -0.26193330144E+01 -0.40456080684E+01  0.18726325367E+02  0.00000000000E+00 0. -1.
         11    1    3    3    0    0 -0.21389556604E+02 -0.29469515935E+01 -0.12215168735E+02  0.24807418304E+02  0.51100000000E-03 0.  1.
        -11    1    3    3    0    0  0.35295871674E+02  0.48094380043E+01  0.54513016525E+01  0.36036730445E+02  0.51100000000E-03 0. -1.
        -12    1    3    3    0    0  0.41891929824E+01  0.75684660364E+00  0.10809475151E+02  0.11617525884E+02  0.00000000000E+00 0.  1.
</event>
<event>
 7    1  0.1283194E-013  0.7246162E+02  0.7816164E-02  0.1226708E+00
        -11   -1    0    0    0    0  0.00000000000E+00  0.00000000000E+00  0.45593999997E+02  0.45594000000E+02  0.51100000000E-03 0.  1.
         11   -1    0    0    0    0 -0.00000000000E+00 -0.00000000000E+00 -0.45593999997E+02  0.45594000000E+02  0.51100000000E-03 0. -1.
    9900012    2    1    2    0    0 -0.16090906045E+02 -0.23414352770E+01  0.92885828322E+01  0.72461618942E+02  0.70000063372E+02 0.  0.
         12    1    1    2    0    0  0.16090906045E+02  0.23414352770E+01 -0.92885828322E+01  0.18726381058E+02  0.00000000000E+00 0. -1.
         11    1    3    3    0    0 -0.14473012965E+02 -0.15630394698E+02 -0.17416040388E+02  0.27515373989E+02  0.51100000000E-03 0. -1.
        -11    1    3    3    0    0 -0.16392723815E+02  0.12515143650E+02  0.11015674471E+02  0.23381516182E+02  0.51100000000E-03 0.  1.
         12    1    3    3    0    0  0.14774830735E+02  0.77381577073E+00  0.15688948749E+02  0.21564728771E+02  0.00000000000E+00 0. -1.
</event>
<event>
 7    1  0.1283194E-013  0.7246167E+02  0.7816164E-02  0.1226708E+00
        -11   -1    0    0    0    0  0.00000000000E+00  0.00000000000E+00  0.45593999997E+02  0.45594000000E+02  0.51100000000E-03 0.  1.
         11   -1    0    0    0    0 -0.00000000000E+00 -0.00000000000E+00 -0.45593999997E+02  0.45594000000E+02  0.51100000000E-03 0. -1.
    9900012    2    1    2    0    0  0.15428993990E+02 -0.52902121939E+01 -0.91997339261E+01  0.72461673481E+02  0.70000134420E+02 0.  0.
         12    1    1    2    0    0 -0.15428993990E+02  0.52902121939E+01  0.91997339261E+01  0.18726326519E+02  0.00000000000E+00 0. -1.
         11    1    3    3    0    0  0.32049198517E+02  0.18136759585E+02 -0.19538463291E+02  0.41687464805E+02  0.51100000000E-03 0. -1.
        -11    1    3    3    0    0 -0.11673780347E+01 -0.32457526447E+01  0.21734568370E+01  0.40769592333E+01  0.51100000000E-03 0.  1.
         12    1    3    3    0    0 -0.15452826492E+02 -0.20181219135E+02  0.81652725278E+01  0.26697249443E+02  0.00000000000E+00 0. -1.
</event>
<event>
 7    1  0.1283194E-013  0.7246160E+02  0.7816164E-02  0.1226708E+00
        -11   -1    0    0    0    0  0.00000000000E+00  0.00000000000E+00  0.45593999997E+02  0.45594000000E+02  0.51100000000E-03 0. -1.
         11   -1    0    0    0    0 -0.00000000000E+00 -0.00000000000E+00 -0.45593999997E+02  0.45594000000E+02  0.51100000000E-03 0.  1.
    9900012    2    1    2    0    0  0.20302058147E+01 -0.10004850336E+02 -0.15699018916E+02  0.72461602567E+02  0.70000042041E+02 0.  0.
         12    1    1    2    0    0 -0.20302058147E+01  0.10004850336E+02  0.15699018916E+02  0.18726397433E+02  0.00000000000E+00 0. -1.
         11    1    3    3    0    0  0.21167888573E+02 -0.21656855472E+02  0.16383357088E+01  0.30327925081E+02  0.51100000000E-03 0. -1.
        -11    1    3    3    0    0 -0.10268925933E+02  0.14452330007E+02  0.45916031640E+01  0.18314024744E+02  0.51100000000E-03 0.  1.
        -12    1    3    3    0    0 -0.88687568255E+01 -0.28003248715E+01 -0.21928957789E+02  0.23819652742E+02  0.00000000000E+00 0.  1.
</event>
<event>
 7    1  0.1283194E-013  0.7246140E+02  0.7816164E-02  0.1226708E+00
        -11   -1    0    0    0    0  0.00000000000E+00  0.00000000000E+00  0.45593999997E+02  0.45594000000E+02  0.51100000000E-03 0. -1.
         11   -1    0    0    0    0 -0.00000000000E+00 -0.00000000000E+00 -0.45593999997E+02  0.45594000000E+02  0.51100000000E-03 0.  1.
    9900012    2    1    2    0    0 -0.73839870669E+01  0.15377571857E+02 -0.77261021860E+01  0.72461397633E+02  0.69999775076E+02 0.  0.
         12    1    1    2    0    0  0.73839870669E+01 -0.15377571857E+02  0.77261021860E+01  0.18726602367E+02  0.00000000000E+00 0. -1.
         11    1    3    3    0    0 -0.20229543360E+01  0.17208074049E+02  0.76017891113E+01  0.18920818024E+02  0.51100000000E-03 0. -1.
        -11    1    3    3    0    0 -0.23861496880E+02 -0.59572410521E+01 -0.22442206717E+02  0.33294329801E+02  0.51100000000E-03 0.  1.
        -12    1    3    3    0    0  0.18500464150E+02  0.41267388600E+01  0.71143154200E+01  0.20246249807E+02  0.00000000000E+00 0.  1.
</event>
<event>
 8    1  0.1283194E-013  0.7246154E+02  0.7816164E-02  0.1226708E+00
        -11   -1    0    0    0    0  0.00000000000E+00  0.00000000000E+00  0.45593999997E+02  0.45594000000E+02  0.51100000000E-03 0. -1.
         11   -1    0    0    0    0 -0.00000000000E+00 -0.00000000000E+00 -0.45593999997E+02  0.45594000000E+02  0.51100000000E-03 0.  1.
    9900012    2    1    2    0    0 -0.20314202217E+01 -0.12740882739E+02  0.13572898502E+02  0.72461539180E+02  0.69999959468E+02 0.  0.
         24    2    3    3    0    0  0.25612062373E+01 -0.21491250015E+02  0.18356879586E+02  0.61482121139E+02  0.54540284075E+02 0.  0.
         12    1    1    2    0    0  0.20314202217E+01  0.12740882739E+02 -0.13572898502E+02  0.18726460820E+02  0.00000000000E+00 0. -1.
         11    1    3    3    0    0 -0.45926264590E+01  0.87503672760E+01 -0.47839810841E+01  0.10979418042E+02  0.51100000000E-03 0. -1.
        -11    1    4    4    0    0 -0.16249161225E+02 -0.32808576642E+02  0.13315539391E+02  0.38958202362E+02  0.51100000000E-03 0.  1.
         12    1    4    4    0    0  0.18810367463E+02  0.11317326627E+02  0.50413401958E+01  0.22523918776E+02  0.00000000000E+00 0. -1.
</event>
<event>
 7    1  0.1283194E-013  0.7246157E+02  0.7816164E-02  0.1226708E+00
        -11   -1    0    0    0    0  0.00000000000E+00  0.00000000000E+00  0.45593999997E+02  0.45594000000E+02  0.51100000000E-03 0.  1.
         11   -1    0    0    0    0 -0.00000000000E+00 -0.00000000000E+00 -0.45593999997E+02  0.45594000000E+02  0.51100000000E-03 0. -1.
    9900012    2    1    2    0    0  0.65819439385E+01  0.59778254157E+01  0.16480981610E+02  0.72461571149E+02  0.70000001113E+02 0.  0.
         12    1    1    2    0    0 -0.65819439385E+01 -0.59778254157E+01 -0.16480981610E+02  0.18726428851E+02  0.00000000000E+00 0. -1.
         11    1    3    3    0    0 -0.26388606977E+02  0.16686528905E+02  0.74406547645E+01  0.32096139467E+02  0.51100000000E-03 0. -1.
        -11    1    3    3    0    0  0.28565539180E+02 -0.73812235711E+01  0.14258919887E+02  0.32768724215E+02  0.51100000000E-03 0.  1.
         12    1    3    3    0    0  0.44050117360E+01 -0.33274799184E+01 -0.52185930418E+01  0.75967074668E+01  0.00000000000E+00 0. -1.
</event>
<event>
 7    1  0.1283194E-013  0.7246160E+02  0.7816164E-02  0.1226708E+00
        -11   -1    0    0    0    0  0.00000000000E+00  0.00000000000E+00  0.45593999997E+02  0.45594000000E+02  0.51100000000E-03 0.  1.
         11   -1    0    0    0    0 -0.00000000000E+00 -0.00000000000E+00 -0.45593999997E+02  0.45594000000E+02  0.51100000000E-03 0. -1.
    9900012    2    1    2    0    0 -0.37348135771E+01 -0.37857547067E+01  0.17955424354E+02  0.72461600590E+02  0.70000039465E+02 0.  0.
         12    1    1    2    0    0  0.37348135771E+01  0.37857547067E+01 -0.17955424354E+02  0.18726399410E+02  0.00000000000E+00 0. -1.
         11    1    3    3    0    0  0.70844050984E+01  0.40023265692E+00 -0.24017252643E+01  0.74911458592E+01  0.51100000000E-03 0. -1.
        -11    1    3    3    0    0 -0.34179383857E+02 -0.12911292350E+02  0.93591213237E+01  0.37716374471E+02  0.51100000000E-03 0.  1.
        -12    1    3    3    0    0  0.23360165182E+02  0.87253049867E+01  0.10998028294E+02  0.27254080260E+02  0.00000000000E+00 0.  1.
</event>
<event>
 7    1  0.1283194E-013  0.7246153E+02  0.7816164E-02  0.1226708E+00
        -11   -1    0    0    0    0  0.00000000000E+00  0.00000000000E+00  0.45593999997E+02  0.45594000000E+02  0.51100000000E-03 0. -1.
         11   -1    0    0    0    0 -0.00000000000E+00 -0.00000000000E+00 -0.45593999997E+02  0.45594000000E+02  0.51100000000E-03 0.  1.
    9900012    2    1    2    0    0  0.11607357341E+02  0.93219817632E+01 -0.11360045839E+02  0.72461528632E+02  0.69999945727E+02 0.  0.
         12    1    1    2    0    0 -0.11607357341E+02 -0.93219817632E+01  0.11360045839E+02  0.18726471368E+02  0.00000000000E+00 0. -1.
         11    1    3    3    0    0  0.18197685885E+02  0.64690520370E+01  0.57635831242E+01  0.20154981928E+02  0.51100000000E-03 0. -1.
        -11    1    3    3    0    0  0.20684687822E+00  0.51753142654E+01 -0.33776117287E+02  0.34170934471E+02  0.51100000000E-03 0.  1.
        -12    1    3    3    0    0 -0.67971754218E+01 -0.23223845393E+01  0.16652488324E+02  0.18135612233E+02  0.00000000000E+00 0.  1.
</event>
<event>
 7    1  0.1283194E-013  0.7246153E+02  0.7816164E-02  0.1226708E+00
        -11   -1    0    0    0    0  0.00000000000E+00  0.00000000000E+00  0.45593999997E+02  0.45594000000E+02  0.51100000000E-03 0. -1.
         11   -1    0    0    0    0 -0.00000000000E+00 -0.00000000000E+00 -0.45593999997E+02  0.45594000000E+02  0.51100000000E-03 0.  1.
    9900012    2    1    2    0    0 -0.16731003431E+01 -0.48023252619E+01 -0.18022738594E+02  0.72461529454E+02  0.69999946798E+02 0.  0.
         12    1    1    2    0    0  0.16731003431E+01  0.48023252619E+01  0.18022738594E+02  0.18726470546E+02  0.00000000000E+00 0. -1.
         11    1    3    3    0    0  0.67357218147E+01  0.58745464689E+01  0.47284974240E+01  0.10111326952E+02  0.51100000000E-03 0.  1.
        -11    1    3    3    0    0 -0.25449274591E+02 -0.24416141261E+02 -0.19260227447E+02  0.40184199542E+02  0.51100000000E-03 0. -1.
        -12    1    3    3    0    0  0.17040452434E+02  0.13739269530E+02 -0.34910085709E+01  0.22166002959E+02  0.00000000000E+00 0.  1.
</event>
<event>
 7    1  0.1283194E-013  0.7246158E+02  0.7816164E-02  0.1226708E+00
        -11   -1    0    0    0    0  0.00000000000E+00  0.00000000000E+00  0.45593999997E+02  0.45594000000E+02  0.51100000000E-03 0. -1.
         11   -1    0    0    0    0 -0.00000000000E+00 -0.00000000000E+00 -0.45593999997E+02  0.45594000000E+02  0.51100000000E-03 0.  1.
    9900012    2    1    2    0    0  0.16275475187E+02  0.24460501561E+01  0.89333403500E+01  0.72461579526E+02  0.70000012027E+02 0.  0.
         12    1    1    2    0    0 -0.16275475187E+02 -0.24460501561E+01 -0.89333403500E+01  0.18726420474E+02  0.00000000000E+00 0. -1.
         11    1    3    3    0    0 -0.12298860754E+01 -0.50761707693E+01  0.86843877446E+01  0.10134037705E+02  0.51100000000E-03 0. -1.
        -11    1    3    3    0    0  0.32415784865E+01  0.99284911878E+01 -0.28385917245E+02  0.30246372781E+02  0.51100000000E-03 0.  1.
        -12    1    3    3    0    0  0.14263782776E+02 -0.24062702624E+01  0.28634869850E+02  0.32081169040E+02  0.00000000000E+00 0.  1.
</event>
<event>
 7    1  0.1283194E-013  0.7246103E+02  0.7816164E-02  0.1226709E+00
        -11   -1    0    0    0    0  0.00000000000E+00  0.00000000000E+00  0.45593999997E+02  0.45594000000E+02  0.51100000000E-03 0.  1.
         11   -1    0    0    0    0 -0.00000000000E+00 -0.00000000000E+00 -0.45593999997E+02  0.45594000000E+02  0.51100000000E-03 0. -1.
    9900012    2    1    2    0    0  0.12058626891E+02 -0.91859045974E+01  0.10995827888E+02  0.72461025959E+02  0.69999290899E+02 0.  0.
         12    1    1    2    0    0 -0.12058626891E+02  0.91859045974E+01 -0.10995827888E+02  0.18726974041E+02  0.00000000000E+00 0. -1.
         11    1    3    3    0    0  0.25009716798E+02 -0.18334521002E+02 -0.19251048265E+02  0.36499910332E+02  0.51100000000E-03 0. -1.
        -11    1    3    3    0    0 -0.72555866304E+01  0.57861559212E+01  0.65510543401E+01  0.11359553289E+02  0.51100000000E-03 0.  1.
         12    1    3    3    0    0 -0.56955032770E+01  0.33624604829E+01  0.23695821813E+02  0.24601562338E+02  0.00000000000E+00 0. -1.
</event>
<event>
 7    1  0.1283194E-013  0.7246153E+02  0.7816164E-02  0.1226708E+00
        -11   -1    0    0    0    0  0.00000000000E+00  0.00000000000E+00  0.45593999997E+02  0.45594000000E+02  0.51100000000E-03 0. -1.
         11   -1    0    0    0    0 -0.00000000000E+00 -0.00000000000E+00 -0.45593999997E+02  0.45594000000E+02  0.51100000000E-03 0.  1.
    9900012    2    1    2    0    0  0.17312932822E+02 -0.37406087128E+01 -0.60787208676E+01  0.72461530931E+02  0.69999948721E+02 0.  0.
         12    1    1    2    0    0 -0.17312932822E+02  0.37406087128E+01  0.60787208676E+01  0.18726469069E+02  0.00000000000E+00 0. -1.
         11    1    3    3    0    0 -0.14089820457E+02  0.14381140837E+02 -0.48360936238E+01  0.20705749301E+02  0.51100000000E-03 0. -1.
        -11    1    3    3    0    0  0.36102851544E+01 -0.10356917180E+02 -0.15957793002E+02  0.19363652810E+02  0.51100000000E-03 0.  1.
         12    1    3    3    0    0  0.27792468124E+02 -0.77648323704E+01  0.14715165759E+02  0.32392128820E+02  0.00000000000E+00 0. -1.
</event>
<event>
 7    1  0.1283194E-013  0.7246153E+02  0.7816164E-02  0.1226708E+00
        -11   -1    0    0    0    0  0.00000000000E+00  0.00000000000E+00  0.45593999997E+02  0.45594000000E+02  0.51100000000E-03 0. -1.
         11   -1    0    0    0    0 -0.00000000000E+00 -0.00000000000E+00 -0.45593999997E+02  0.45594000000E+02  0.51100000000E-03 0.  1.
    9900012    2    1    2    0    0 -0.74316011599E+01 -0.81428907793E+01 -0.15137544812E+02  0.72461531326E+02  0.69999949237E+02 0.  0.
         12    1    1    2    0    0  0.74316011599E+01  0.81428907793E+01  0.15137544812E+02  0.18726468674E+02  0.00000000000E+00 0. -1.
         11    1    3    3    0    0  0.23765058809E+02 -0.16191608776E+02 -0.10394918490E+02  0.30577778625E+02  0.51100000000E-03 0. -1.
        -11    1    3    3    0    0 -0.19048919834E+02  0.85747580909E+01 -0.15209383157E+02  0.25840146273E+02  0.51100000000E-03 0.  1.
         12    1    3    3    0    0 -0.12147740135E+02 -0.52604009401E+00  0.10466756835E+02  0.16043606428E+02  0.00000000000E+00 0. -1.
</event>
<event>
 7    1  0.1283194E-013  0.7246164E+02  0.7816164E-02  0.1226708E+00
        -11   -1    0    0    0    0  0.00000000000E+00  0.00000000000E+00  0.45593999997E+02  0.45594000000E+02  0.51100000000E-03 0. -1.
         11   -1    0    0    0    0 -0.00000000000E+00 -0.00000000000E+00 -0.45593999997E+02  0.45594000000E+02  0.51100000000E-03 0.  1.
    9900012    2    1    2    0    0  0.98703978928E+01 -0.13900753418E+02 -0.77473183279E+01  0.72461637796E+02  0.70000087933E+02 0.  0.
         12    1    1    2    0    0 -0.98703978928E+01  0.13900753418E+02  0.77473183279E+01  0.18726362204E+02  0.00000000000E+00 0. -1.
         11    1    3    3    0    0  0.81126664788E+01  0.60564885598E+01  0.18320238707E+02  0.20931496784E+02  0.51100000000E-03 0. -1.
        -11    1    3    3    0    0  0.12301740969E+02 -0.25586937156E+02 -0.27458404023E+02  0.39496685122E+02  0.51100000000E-03 0.  1.
         12    1    3    3    0    0 -0.10544009555E+02  0.56296951790E+01  0.13908469882E+01  0.12033455890E+02  0.00000000000E+00 0. -1.
</event>
<event>
 7    1  0.1283194E-013  0.7246154E+02  0.7816164E-02  0.1226708E+00
        -11   -1    0    0    0    0  0.00000000000E+00  0.00000000000E+00  0.45593999997E+02  0.45594000000E+02  0.51100000000E-03 0. -1.
         11   -1    0    0    0    0 -0.00000000000E+00 -0.00000000000E+00 -0.45593999997E+02  0.45594000000E+02  0.51100000000E-03 0.  1.
    9900012    2    1    2    0    0 -0.50273338418E+01 -0.11820984010E+02 -0.13626094405E+02  0.72461542854E+02  0.69999964254E+02 0.  0.
         12    1    1    2    0    0  0.50273338418E+01  0.11820984010E+02  0.13626094405E+02  0.18726457146E+02  0.00000000000E+00 0. -1.
         11    1    3    3    0    0 -0.10618053247E+02  0.24808526771E+02 -0.68257563447E+00  0.26993924595E+02  0.51100000000E-03 0. -1.
        -11    1    3    3    0    0  0.91882855703E+01 -0.16444973918E+02 -0.16028639457E+02  0.24734167501E+02  0.51100000000E-03 0.  1.
        -12    1    3    3    0    0 -0.35975661649E+01 -0.20184536862E+02  0.30851206861E+01  0.20733450757E+02  0.00000000000E+00 0.  1.
</event>
<event>
 7    1  0.1283194E-013  0.7246163E+02  0.7816164E-02  0.1226708E+00
        -11   -1    0    0    0    0  0.00000000000E+00  0.00000000000E+00  0.45593999997E+02  0.45594000000E+02  0.51100000000E-03 0.  1.
         11   -1    0    0    0    0 -0.00000000000E+00 -0.00000000000E+00 -0.45593999997E+02  0.45594000000E+02  0.51100000000E-03 0. -1.
    9900012    2    1    2    0    0 -0.49770115279E+01  0.39570326092E+01  0.17613866049E+02  0.72461627473E+02  0.70000074486E+02 0.  0.
         12    1    1    2    0    0  0.49770115279E+01 -0.39570326092E+01 -0.17613866049E+02  0.18726372527E+02  0.00000000000E+00 0. -1.
         11    1    3    3    0    0  0.14235314806E+02 -0.14011213914E+02  0.35947172905E+01  0.20294834210E+02  0.51100000000E-03 0. -1.
        -11    1    3    3    0    0 -0.25230292863E+02 -0.32794640279E+01  0.15901836476E+02  0.30003182595E+02  0.51100000000E-03 0.  1.
         12    1    3    3    0    0  0.60179665290E+01  0.21247710551E+02 -0.18826877178E+01  0.22163610668E+02  0.00000000000E+00 0. -1.
</event>
<event>
 7    1  0.1283194E-013  0.7246152E+02  0.7816164E-02  0.1226708E+00
        -11   -1    0    0    0    0  0.00000000000E+00  0.00000000000E+00  0.45593999997E+02  0.45594000000E+02  0.51100000000E-03 0.  1.
         11   -1    0    0    0    0 -0.00000000000E+00 -0.00000000000E+00 -0.45593999997E+02  0.45594000000E+02  0.51100000000E-03 0. -1.
    9900012    2    1    2    0    0  0.15191700762E+02 -0.98404406246E+01 -0.48019930835E+01  0.72461516579E+02  0.69999930026E+02 0.  0.
         12    1    1    2    0    0 -0.15191700762E+02  0.98404406246E+01  0.48019930835E+01  0.18726483421E+02  0.00000000000E+00 0. -1.
         11    1    3    3    0    0  0.16688761789E+02  0.13759530354E+02 -0.18108553961E+02  0.28209203683E+02  0.51100000000E-03 0. -1.
        -11    1    3    3    0    0  0.14598754094E+02 -0.21465947035E+02  0.86008928207E+01  0.27347501911E+02  0.51100000000E-03 0.  1.
        -12    1    3    3    0    0 -0.16095815121E+02 -0.21340239429E+01  0.47056680568E+01  0.16904810985E+02  0.00000000000E+00 0.  1.
</event>
<event>
 7    1  0.1283194E-013  0.7246151E+02  0.7816164E-02  0.1226708E+00
        -11   -1    0    0    0    0  0.00000000000E+00  0.00000000000E+00  0.45593999997E+02  0.45594000000E+02  0.51100000000E-03 0. -1.
         11   -1    0    0    0    0 -0.00000000000E+00 -0.00000000000E+00 -0.45593999997E+02  0.45594000000E+02  0.51100000000E-03 0.  1.
    9900012    2    1    2    0    0 -0.56998873664E+01 -0.34277808056E+01 -0.17505516152E+02  0.72461508257E+02  0.69999919185E+02 0.  0.
         12    1    1    2    0    0  0.56998873664E+01  0.34277808056E+01  0.17505516152E+02  0.18726491743E+02  0.00000000000E+00 0. -1.
         11    1    3    3    0    0 -0.17728657263E+02  0.44662479266E+01  0.51853542966E+01  0.19003698544E+02  0.51100000000E-03 0. -1.
        -11    1    3    3    0    0  0.28238763218E+02 -0.12327996562E+02 -0.99856023510E+01  0.32390114262E+02  0.51100000000E-03 0.  1.
         12    1    3    3    0    0 -0.16209993321E+02  0.44339678300E+01 -0.12705268098E+02  0.21067695451E+02  0.00000000000E+00 0. -1.
</event>
<event>
 7    1  0.1283194E-013  0.7246168E+02  0.7816164E-02  0.1226708E+00
        -11   -1    0    0    0    0  0.00000000000E+00  0.00000000000E+00  0.45593999997E+02  0.45594000000E+02  0.51100000000E-03 0.  1.
         11   -1    0    0    0    0 -0.00000000000E+00 -0.00000000000E+00 -0.45593999997E+02  0.45594000000E+02  0.51100000000E-03 0. -1.
    9900012    2    1    2    0    0  0.15843152269E+02  0.79313006345E+01 -0.60633258527E+01  0.72461683652E+02  0.70000147669E+02 0.  0.
         12    1    1    2    0    0 -0.15843152269E+02 -0.79313006345E+01  0.60633258527E+01  0.18726316348E+02  0.00000000000E+00 0. -1.
         11    1    3    3    0    0  0.23267167488E+02 -0.22419738961E+02  0.54820596583E+00  0.32315728493E+02  0.51100000000E-03 0. -1.
        -11    1    3    3    0    0  0.73483238502E+01  0.17165898234E+02 -0.79618994904E+01  0.20299206126E+02  0.51100000000E-03 0.  1.
         12    1    3    3    0    0 -0.14772339070E+02  0.13185141361E+02  0.13503676719E+01  0.19846749032E+02  0.00000000000E+00 0. -1.
</event>
<event>
 7    1  0.1283194E-013  0.7246155E+02  0.7816164E-02  0.1226708E+00
        -11   -1    0    0    0    0  0.00000000000E+00  0.00000000000E+00  0.45593999997E+02  0.45594000000E+02  0.51100000000E-03 0. -1.
         11   -1    0    0    0    0 -0.00000000000E+00 -0.00000000000E+00 -0.45593999997E+02  0.45594000000E+02  0.51100000000E-03 0.  1.
    9900012    2    1    2    0    0  0.40153633085E-02 -0.14772705887E+02 -0.11508565791E+02  0.72461549672E+02  0.69999973135E+02 0.  0.
         12    1    1    2    0    0 -0.40153633085E-02  0.14772705887E+02  0.11508565791E+02  0.18726450328E+02  0.00000000000E+00 0. -1.
         11    1    3    3    0    0  0.20878531730E+02 -0.61714531856E+00  0.21342626637E+02  0.29863048532E+02  0.51100000000E-03 0.  1.
        -11    1    3    3    0    0 -0.18349230062E+02 -0.87984125065E+01 -0.20419600540E+02  0.28828222161E+02  0.51100000000E-03 0. -1.
        -12    1    3    3    0    0 -0.25252863050E+01 -0.53571480620E+01 -0.12431591888E+02  0.13770278979E+02  0.00000000000E+00 0.  1.
</event>
<event>
 7    1  0.1283194E-013  0.7246158E+02  0.7816164E-02  0.1226708E+00
        -11   -1    0    0    0    0  0.00000000000E+00  0.00000000000E+00  0.45593999997E+02  0.45594000000E+02  0.51100000000E-03 0.  1.
         11   -1    0    0    0    0 -0.00000000000E+00 -0.00000000000E+00 -0.45593999997E+02  0.45594000000E+02  0.51100000000E-03 0. -1.
    9900012    2    1    2    0    0  0.17121486978E+02  0.65059318837E+01  0.38995428421E+01  0.72461577480E+02  0.70000009361E+02 0.  0.
         12    1    1    2    0    0 -0.17121486978E+02 -0.65059318837E+01 -0.38995428421E+01  0.18726422520E+02  0.00000000000E+00 0. -1.
         11    1    3    3    0    0  0.87339367446E+00  0.20446686961E+02 -0.11201993069E+02  0.23330548068E+02  0.51100000000E-03 0. -1.
        -11    1    3    3    0    0  0.20340199966E+02 -0.10360782807E+02  0.27412839279E+02  0.35672584888E+02  0.51100000000E-03 0.  1.
        -12    1    3    3    0    0 -0.40921066628E+01 -0.35799722700E+01 -0.12311303367E+02  0.13458444524E+02  0.00000000000E+00 0.  1.
</event>
<event>
 7    1  0.1283194E-013  0.7246126E+02  0.7816164E-02  0.1226709E+00
        -11   -1    0    0    0    0  0.00000000000E+00  0.00000000000E+00  0.45593999997E+02  0.45594000000E+02  0.51100000000E-03 0.  1.
         11   -1    0    0    0    0 -0.00000000000E+00 -0.00000000000E+00 -0.45593999997E+02  0.45594000000E+02  0.51100000000E-03 0. -1.
    9900012    2    1    2    0    0  0.14016625648E+02  0.12065282979E+02 -0.29417354114E+01  0.72461263628E+02  0.69999600508E+02 0.  0.
         12    1    1    2    0    0 -0.14016625648E+02 -0.12065282979E+02  0.29417354114E+01  0.18726736372E+02  0.00000000000E+00 0. -1.
         11    1    3    3    0    0  0.33682324202E+02  0.96317652499E+01  0.11686412254E+02  0.36930232833E+02  0.51100000000E-03 0. -1.
        -11    1    3    3    0    0 -0.18727764490E+02 -0.85086735262E+01 -0.13236680135E+02  0.24460915543E+02  0.51100000000E-03 0.  1.
        -12    1    3    3    0    0 -0.93793406349E+00  0.10942191256E+02 -0.13914675305E+01  0.11070115251E+02  0.00000000000E+00 0.  1.
</event>
<event>
 7    1  0.1283194E-013  0.7246154E+02  0.7816164E-02  0.1226708E+00
        -11   -1    0    0    0    0  0.00000000000E+00  0.00000000000E+00  0.45593999997E+02  0.45594000000E+02  0.51100000000E-03 0. -1.
         11   -1    0    0    0    0 -0.00000000000E+00 -0.00000000000E+00 -0.45593999997E+02  0.45594000000E+02  0.51100000000E-03 0.  1.
    9900012    2    1    2    0    0  0.83651767261E+01  0.15464509391E+02 -0.64461741841E+01  0.72461537601E+02  0.69999957411E+02 0.  0.
         12    1    1    2    0    0 -0.83651767261E+01 -0.15464509391E+02  0.64461741841E+01  0.18726462399E+02  0.00000000000E+00 0. -1.
         11    1    3    3    0    0  0.22548991502E+01 -0.21735580030E+01  0.24123273002E+02  0.24325731750E+02  0.51100000000E-03 0. -1.
        -11    1    3    3    0    0  0.29094419207E+01  0.23463104531E+02 -0.85600363311E+01  0.25144708166E+02  0.51100000000E-03 0.  1.
         12    1    3    3    0    0  0.32008356552E+01 -0.58250371367E+01 -0.22009410855E+02  0.22991097684E+02  0.00000000000E+00 0. -1.
</event>
<event>
 7    1  0.1283194E-013  0.7246156E+02  0.7816164E-02  0.1226708E+00
        -11   -1    0    0    0    0  0.00000000000E+00  0.00000000000E+00  0.45593999997E+02  0.45594000000E+02  0.51100000000E-03 0. -1.
         11   -1    0    0    0    0 -0.00000000000E+00 -0.00000000000E+00 -0.45593999997E+02  0.45594000000E+02  0.51100000000E-03 0.  1.
    9900012    2    1    2    0    0 -0.44606903324E+00  0.69402845265E+01 -0.17387146549E+02  0.72461564354E+02  0.69999992262E+02 0.  0.
         12    1    1    2    0    0  0.44606903324E+00 -0.69402845265E+01  0.17387146549E+02  0.18726435646E+02  0.00000000000E+00 0. -1.
         11    1    3    3    0    0  0.17042817686E+02 -0.20297506224E+02 -0.62883998590E+01  0.27239500118E+02  0.51100000000E-03 0. -1.
        -11    1    3    3    0    0 -0.63959959577E+01  0.57377737476E+00 -0.14774404891E+02  0.16109656263E+02  0.51100000000E-03 0.  1.
         12    1    3    3    0    0 -0.11092890762E+02  0.26664013376E+02  0.36756582018E+01  0.29112407973E+02  0.00000000000E+00 0. -1.
</event>
<event>
 7    1  0.1283194E-013  0.7246161E+02  0.7816164E-02  0.1226708E+00
        -11   -1    0    0    0    0  0.00000000000E+00  0.00000000000E+00  0.45593999997E+02  0.45594000000E+02  0.51100000000E-03 0.  1.
         11   -1    0    0    0    0 -0.00000000000E+00 -0.00000000000E+00 -0.45593999997E+02  0.45594000000E+02  0.51100000000E-03 0. -1.
    9900012    2    1    2    0    0  0.98174313636E+01 -0.15437467188E+01  0.15871756474E+02  0.72461607767E+02  0.70000048815E+02 0.  0.
         12    1    1    2    0    0 -0.98174313636E+01  0.15437467188E+01 -0.15871756474E+02  0.18726392233E+02  0.00000000000E+00 0. -1.
         11    1    3    3    0    0 -0.17082466184E+02  0.43705482515E+01  0.86649603322E+01  0.19646726973E+02  0.51100000000E-03 0. -1.
        -11    1    3    3    0    0  0.29410606151E+02 -0.75872918376E+01 -0.12524368349E+02  0.32854384097E+02  0.51100000000E-03 0.  1.
        -12    1    3    3    0    0 -0.25107086035E+01  0.16729968673E+01  0.19731164491E+02  0.19960496696E+02  0.00000000000E+00 0.  1.
</event>
<event>
 7    1  0.1283194E-013  0.7246159E+02  0.7816164E-02  0.1226708E+00
        -11   -1    0    0    0    0  0.00000000000E+00  0.00000000000E+00  0.45593999997E+02  0.45594000000E+02  0.51100000000E-03 0. -1.
         11   -1    0    0    0    0 -0.00000000000E+00 -0.00000000000E+00 -0.45593999997E+02  0.45594000000E+02  0.51100000000E-03 0.  1.
    9900012    2    1    2    0    0  0.17210931270E+00  0.13093375538E+01 -0.18679786892E+02  0.72461590179E+02  0.70000025903E+02 0.  0.
         12    1    1    2    0    0 -0.17210931270E+00 -0.13093375538E+01  0.18679786892E+02  0.18726409821E+02  0.00000000000E+00 0. -1.
         11    1    3    3    0    0 -0.18424919669E+01 -0.14180117162E+02 -0.33869768178E+02  0.36764544008E+02  0.51100000000E-03 0. -1.
        -11    1    3    3    0    0  0.32120306635E+01  0.20001509506E+02  0.47932131820E+00  0.20263446712E+02  0.51100000000E-03 0.  1.
         12    1    3    3    0    0 -0.11974293839E+01 -0.45120547894E+01  0.14710659968E+02  0.15433599458E+02  0.00000000000E+00 0. -1.
</event>
<event>
 7    1  0.1283194E-013  0.7246151E+02  0.7816164E-02  0.1226708E+00
        -11   -1    0    0    0    0  0.00000000000E+00  0.00000000000E+00  0.45593999997E+02  0.45594000000E+02  0.51100000000E-03 0. -1.
         11   -1    0    0    0    0 -0.00000000000E+00 -0.00000000000E+00 -0.45593999997E+02  0.45594000000E+02  0.51100000000E-03 0.  1.
    9900012    2    1    2    0    0  0.12550681472E+02  0.13199179059E+02 -0.43524109059E+01  0.72461510368E+02  0.69999921934E+02 0.  0.
         12    1    1    2    0    0 -0.12550681472E+02 -0.13199179059E+02  0.43524109059E+01  0.18726489632E+02  0.00000000000E+00 0. -1.
         11    1    3    3    0    0  0.23816967604E+02  0.13130921145E+02  0.24760811148E+02  0.36779978316E+02  0.51100000000E-03 0. -1.
        -11    1    3    3    0    0  0.53481856482E+00 -0.30723857505E+01 -0.20504545500E+02  0.20740346466E+02  0.51100000000E-03 0.  1.
        -12    1    3    3    0    0 -0.11801104697E+02  0.31406436648E+01 -0.86086765539E+01  0.14941185586E+02  0.00000000000E+00 0.  1.
</event>
<event>
 7    1  0.1283194E-013  0.7246156E+02  0.7816164E-02  0.1226708E+00
        -11   -1    0    0    0    0  0.00000000000E+00  0.00000000000E+00  0.45593999997E+02  0.45594000000E+02  0.51100000000E-03 0. -1.
         11   -1    0    0    0    0 -0.00000000000E+00 -0.00000000000E+00 -0.45593999997E+02  0.45594000000E+02  0.51100000000E-03 0.  1.
    9900012    2    1    2    0    0  0.54813740175E+01  0.31011660459E+01 -0.17635668612E+02  0.72461561488E+02  0.69999988528E+02 0.  0.
         12    1    1    2    0    0 -0.54813740175E+01 -0.31011660459E+01  0.17635668612E+02  0.18726438512E+02  0.00000000000E+00 0. -1.
         11    1    3    3    0    0 -0.11788474601E+02 -0.24767921679E+02 -0.45220328765E+00  0.27433967372E+02  0.51100000000E-03 0.  1.
        -11    1    3    3    0    0  0.20726182124E+02  0.16431243267E+02 -0.32119278869E+01  0.26643514441E+02  0.51100000000E-03 0. -1.
         12    1    3    3    0    0 -0.34563335062E+01  0.11437844457E+02 -0.13971537437E+02  0.18384079675E+02  0.00000000000E+00 0. -1.
</event>
<event>
 7    1  0.1283194E-013  0.7246157E+02  0.7816164E-02  0.1226708E+00
        -11   -1    0    0    0    0  0.00000000000E+00  0.00000000000E+00  0.45593999997E+02  0.45594000000E+02  0.51100000000E-03 0. -1.
         11   -1    0    0    0    0 -0.00000000000E+00 -0.00000000000E+00 -0.45593999997E+02  0.45594000000E+02  0.51100000000E-03 0.  1.
    9900012    2    1    2    0    0  0.86457504350E+01  0.16313295626E+02 -0.31315552649E+01  0.72461568062E+02  0.69999997091E+02 0.  0.
         12    1    1    2    0    0 -0.86457504350E+01 -0.16313295626E+02  0.31315552649E+01  0.18726431938E+02  0.00000000000E+00 0. -1.
         11    1    3    3    0    0  0.19411390763E+02  0.81601651809E+01  0.20228006564E+02  0.29198675261E+02  0.51100000000E-03 0. -1.
        -11    1    3    3    0    0  0.10882091376E+02  0.20487255688E+01 -0.16268779539E+02  0.19679694538E+02  0.51100000000E-03 0.  1.
         12    1    3    3    0    0 -0.21647731704E+02  0.61044048763E+01 -0.70907822900E+01  0.23583198263E+02  0.00000000000E+00 0. -1.
</event>
<event>
 7    1  0.1283194E-013  0.7246161E+02  0.7816164E-02  0.1226708E+00
        -11   -1    0    0    0    0  0.00000000000E+00  0.00000000000E+00  0.45593999997E+02  0.45594000000E+02  0.51100000000E-03 0.  1.
         11   -1    0    0    0    0 -0.00000000000E+00 -0.00000000000E+00 -0.45593999997E+02  0.45594000000E+02  0.51100000000E-03 0. -1.
    9900012    2    1    2    0    0 -0.71208298373E+01  0.15386092223E+02  0.79523236147E+01  0.72461614808E+02  0.70000057988E+02 0.  0.
         12    1    1    2    0    0  0.71208298373E+01 -0.15386092223E+02 -0.79523236147E+01  0.18726385192E+02  0.00000000000E+00 0. -1.
         11    1    3    3    0    0 -0.22767389253E+02  0.18573204175E+02 -0.35452851239E+01  0.29595387708E+02  0.51100000000E-03 0. -1.
        -11    1    3    3    0    0  0.13369736158E+02 -0.73146820432E+01  0.24601983125E+02  0.28939799451E+02  0.51100000000E-03 0.  1.
         12    1    3    3    0    0  0.22768232570E+01  0.41275700913E+01 -0.13104374386E+02  0.13926427649E+02  0.00000000000E+00 0. -1.
</event>
<event>
 7    1  0.1283194E-013  0.7246156E+02  0.7816164E-02  0.1226708E+00
        -11   -1    0    0    0    0  0.00000000000E+00  0.00000000000E+00  0.45593999997E+02  0.45594000000E+02  0.51100000000E-03 0. -1.
         11   -1    0    0    0    0 -0.00000000000E+00 -0.00000000000E+00 -0.45593999997E+02  0.45594000000E+02  0.51100000000E-03 0.  1.
    9900012    2    1    2    0    0  0.15972271285E+02 -0.91258155099E+01 -0.35050593140E+01  0.72461564154E+02  0.69999992001E+02 0.  0.
         12    1    1    2    0    0 -0.15972271285E+02  0.91258155099E+01  0.35050593140E+01  0.18726435846E+02  0.00000000000E+00 0. -1.
         11    1    3    3    0    0  0.13954014985E+02  0.14391022068E+02  0.10457235895E+02  0.22609065288E+02  0.51100000000E-03 0. -1.
        -11    1    3    3    0    0  0.27145700574E+01 -0.27801985639E+02  0.67103890539E+01  0.28728881245E+02  0.51100000000E-03 0.  1.
        -12    1    3    3    0    0 -0.69631375808E+00  0.42851480607E+01 -0.20672684263E+02  0.21123617621E+02  0.00000000000E+00 0.  1.
</event>
<event>
 7    1  0.1283194E-013  0.7246176E+02  0.7816164E-02  0.1226707E+00
        -11   -1    0    0    0    0  0.00000000000E+00  0.00000000000E+00  0.45593999997E+02  0.45594000000E+02  0.51100000000E-03 0. -1.
         11   -1    0    0    0    0 -0.00000000000E+00 -0.00000000000E+00 -0.45593999997E+02  0.45594000000E+02  0.51100000000E-03 0.  1.
    9900012    2    1    2    0    0 -0.18336995020E+02  0.36950798471E+01  0.87916751474E+00  0.72461763406E+02  0.70000251563E+02 0.  0.
         12    1    1    2    0    0  0.18336995020E+02 -0.36950798471E+01 -0.87916751474E+00  0.18726236594E+02  0.00000000000E+00 0. -1.
         11    1    3    3    0    0  0.10047088324E+02  0.20997799973E+02 -0.97937296724E+01  0.25254083406E+02  0.51100000000E-03 0.  1.
        -11    1    3    3    0    0 -0.20766819303E+02 -0.25141303980E+02  0.10193512117E+01  0.32624914206E+02  0.51100000000E-03 0. -1.
        -12    1    3    3    0    0 -0.76172640418E+01  0.78385838537E+01  0.96535459755E+01  0.14582765794E+02  0.00000000000E+00 0.  1.
</event>
<event>
 7    1  0.1283194E-013  0.7246184E+02  0.7816164E-02  0.1226707E+00
        -11   -1    0    0    0    0  0.00000000000E+00  0.00000000000E+00  0.45593999997E+02  0.45594000000E+02  0.51100000000E-03 0.  1.
         11   -1    0    0    0    0 -0.00000000000E+00 -0.00000000000E+00 -0.45593999997E+02  0.45594000000E+02  0.51100000000E-03 0. -1.
    9900012    2    1    2    0    0 -0.76092719081E+01  0.10302719839E+02  0.13660968245E+02  0.72461838929E+02  0.70000349946E+02 0.  0.
         12    1    1    2    0    0  0.76092719081E+01 -0.10302719839E+02 -0.13660968245E+02  0.18726161071E+02  0.00000000000E+00 0. -1.
         11    1    3    3    0    0 -0.16148129022E+02  0.88128252654E+01  0.25807700979E+02  0.31693301976E+02  0.51100000000E-03 0. -1.
        -11    1    3    3    0    0  0.21053184409E+02  0.75392169029E+01 -0.14526747703E+02  0.26666510165E+02  0.51100000000E-03 0.  1.
         12    1    3    3    0    0 -0.12514327295E+02 -0.60493223289E+01  0.23800149693E+01  0.14102026789E+02  0.00000000000E+00 0. -1.
</event>
<event>
 7    1  0.1283194E-013  0.7246164E+02  0.7816164E-02  0.1226708E+00
        -11   -1    0    0    0    0  0.00000000000E+00  0.00000000000E+00  0.45593999997E+02  0.45594000000E+02  0.51100000000E-03 0. -1.
         11   -1    0    0    0    0 -0.00000000000E+00 -0.00000000000E+00 -0.45593999997E+02  0.45594000000E+02  0.51100000000E-03 0.  1.
    9900012    2    1    2    0    0  0.79480188640E+01  0.16828200537E+02  0.20777956473E+01  0.72461639651E+02  0.70000090350E+02 0.  0.
         12    1    1    2    0    0 -0.79480188640E+01 -0.16828200537E+02 -0.20777956473E+01  0.18726360349E+02  0.00000000000E+00 0. -1.
         11    1    3    3    0    0 -0.19787924371E+02  0.50985073816E+01  0.26339455660E+02  0.33336521312E+02  0.51100000000E-03 0. -1.
        -11    1    3    3    0    0  0.10019136715E+02  0.29809518600E+01 -0.11801497654E+02  0.15765294848E+02  0.51100000000E-03 0.  1.
         12    1    3    3    0    0  0.17716806521E+02  0.87487412953E+01 -0.12460162358E+02  0.23359823491E+02  0.00000000000E+00 0. -1.
</event>
<event>
 7    1  0.1283194E-013  0.7246155E+02  0.7816164E-02  0.1226708E+00
        -11   -1    0    0    0    0  0.00000000000E+00  0.00000000000E+00  0.45593999997E+02  0.45594000000E+02  0.51100000000E-03 0. -1.
         11   -1    0    0    0    0 -0.00000000000E+00 -0.00000000000E+00 -0.45593999997E+02  0.45594000000E+02  0.51100000000E-03 0.  1.
    9900012    2    1    2    0    0 -0.19792094003E+01  0.10085253842E+02 -0.15654078377E+02  0.72461553868E+02  0.69999978601E+02 0.  0.
         12    1    1    2    0    0  0.19792094003E+01 -0.10085253842E+02  0.15654078377E+02  0.18726446132E+02  0.00000000000E+00 0. -1.
         11    1    3    3    0    0 -0.25965695589E+02  0.22027857975E+01  0.15462109449E+02  0.30300931364E+02  0.51100000000E-03 0. -1.
        -11    1    3    3    0    0  0.13850651870E+02 -0.16883549840E+01 -0.11422750038E+02  0.18032479543E+02  0.51100000000E-03 0.  1.
         12    1    3    3    0    0  0.10135834319E+02  0.95708230285E+01 -0.19693437788E+02  0.24128142960E+02  0.00000000000E+00 0. -1.
</event>
<event>
 7    1  0.1283194E-013  0.7246156E+02  0.7816164E-02  0.1226708E+00
        -11   -1    0    0    0    0  0.00000000000E+00  0.00000000000E+00  0.45593999997E+02  0.45594000000E+02  0.51100000000E-03 0. -1.
         11   -1    0    0    0    0 -0.00000000000E+00 -0.00000000000E+00 -0.45593999997E+02  0.45594000000E+02  0.51100000000E-03 0.  1.
    9900012    2    1    2    0    0  0.11008727925E+02 -0.20439196186E+01 -0.15010330434E+02  0.72461555658E+02  0.69999980934E+02 0.  0.
         12    1    1    2    0    0 -0.11008727925E+02  0.20439196186E+01  0.15010330434E+02  0.18726444342E+02  0.00000000000E+00 0. -1.
         11    1    3    3    0    0 -0.18226430298E+02  0.17449939949E+02 -0.20108697528E+01  0.25312976179E+02  0.51100000000E-03 0. -1.
        -11    1    3    3    0    0  0.62243924209E+01 -0.21186178560E+02 -0.83770230677E+01  0.23617191593E+02  0.51100000000E-03 0.  1.
         12    1    3    3    0    0  0.23010765802E+02  0.16923189930E+01 -0.46224376139E+01  0.23531387887E+02  0.00000000000E+00 0. -1.
</event>
<event>
 7    1  0.1283194E-013  0.7246158E+02  0.7816164E-02  0.1226708E+00
        -11   -1    0    0    0    0  0.00000000000E+00  0.00000000000E+00  0.45593999997E+02  0.45594000000E+02  0.51100000000E-03 0. -1.
         11   -1    0    0    0    0 -0.00000000000E+00 -0.00000000000E+00 -0.45593999997E+02  0.45594000000E+02  0.51100000000E-03 0.  1.
    9900012    2    1    2    0    0 -0.78925674930E+01 -0.46586640934E+01 -0.16330435792E+02  0.72461577333E+02  0.70000009169E+02 0.  0.
         12    1    1    2    0    0  0.78925674930E+01  0.46586640934E+01  0.16330435792E+02  0.18726422667E+02  0.00000000000E+00 0. -1.
         11    1    3    3    0    0  0.23488041028E+02  0.21625614540E+01  0.93566183421E+01  0.25375402469E+02  0.51100000000E-03 0. -1.
        -11    1    3    3    0    0 -0.14156992564E+02 -0.38945348898E+01  0.15109951600E+01  0.14760452130E+02  0.51100000000E-03 0.  1.
         12    1    3    3    0    0 -0.17223615957E+02 -0.29266906576E+01 -0.27198049294E+02  0.32325722734E+02  0.00000000000E+00 0. -1.
</event>
<event>
 7    1  0.1283194E-013  0.7246160E+02  0.7816164E-02  0.1226708E+00
        -11   -1    0    0    0    0  0.00000000000E+00  0.00000000000E+00  0.45593999997E+02  0.45594000000E+02  0.51100000000E-03 0. -1.
         11   -1    0    0    0    0 -0.00000000000E+00 -0.00000000000E+00 -0.45593999997E+02  0.45594000000E+02  0.51100000000E-03 0.  1.
    9900012    2    1    2    0    0  0.89535714069E+00  0.14530188026E+02 -0.11779213598E+02  0.72461604152E+02  0.70000044106E+02 0.  0.
         12    1    1    2    0    0 -0.89535714069E+00 -0.14530188026E+02  0.11779213598E+02  0.18726395848E+02  0.00000000000E+00 0. -1.
         11    1    3    3    0    0 -0.12174406541E+02  0.33812541397E+02 -0.31225453442E+01  0.36072904236E+02  0.51100000000E-03 0.  1.
        -11    1    3    3    0    0 -0.15708548948E+01 -0.20563086420E+02 -0.57211853619E+01  0.21401870722E+02  0.51100000000E-03 0. -1.
        -12    1    3    3    0    0  0.14640618577E+02  0.12807330486E+01 -0.29354828923E+01  0.14986829193E+02  0.00000000000E+00 0.  1.
</event>
<event>
 8    1  0.1283194E-013  0.7246154E+02  0.7816164E-02  0.1226708E+00
        -11   -1    0    0    0    0  0.00000000000E+00  0.00000000000E+00  0.45593999997E+02  0.45594000000E+02  0.51100000000E-03 0.  1.
         11   -1    0    0    0    0 -0.00000000000E+00 -0.00000000000E+00 -0.45593999997E+02  0.45594000000E+02  0.51100000000E-03 0. -1.
    9900012    2    1    2    0    0  0.18345987673E+02 -0.12087199026E+01  0.35558354613E+01  0.72461541890E+02  0.69999962998E+02 0.  0.
        -24    2    3    3    0    0  0.21251173694E+01 -0.11012876055E+02  0.83215293747E+01  0.52918002036E+02  0.51041821339E+02 0.  0.
         12    1    1    2    0    0 -0.18345987673E+02  0.12087199026E+01 -0.35558354613E+01  0.18726458110E+02  0.00000000000E+00 0. -1.
         11    1    4    4    0    0  0.70866989194E+01 -0.27119746998E+02 -0.83136210573E+01  0.29237275423E+02  0.51100000000E-03 0. -1.
        -11    1    3    3    0    0  0.16220870304E+02  0.98041561520E+01 -0.47656939134E+01  0.19543539854E+02  0.51100000000E-03 0.  1.
        -12    1    4    4    0    0 -0.49615815500E+01  0.16106870943E+02  0.16635150432E+02  0.23680726614E+02  0.00000000000E+00 0.  1.
</event>
<event>
 7    1  0.1283194E-013  0.7246157E+02  0.7816164E-02  0.1226708E+00
        -11   -1    0    0    0    0  0.00000000000E+00  0.00000000000E+00  0.45593999997E+02  0.45594000000E+02  0.51100000000E-03 0.  1.
         11   -1    0    0    0    0 -0.00000000000E+00 -0.00000000000E+00 -0.45593999997E+02  0.45594000000E+02  0.51100000000E-03 0. -1.
    9900012    2    1    2    0    0  0.39820618642E+01  0.15323649947E+02  0.10000415049E+02  0.72461565061E+02  0.69999993182E+02 0.  0.
         12    1    1    2    0    0 -0.39820618642E+01 -0.15323649947E+02 -0.10000415049E+02  0.18726434939E+02  0.00000000000E+00 0. -1.
         11    1    3    3    0    0 -0.70568110538E+01  0.35367998924E+02  0.99316008724E+00  0.36078806762E+02  0.51100000000E-03 0. -1.
        -11    1    3    3    0    0  0.60335579473E+01 -0.18615809501E+02 -0.60243167130E+01  0.20475462803E+02  0.51100000000E-03 0.  1.
         12    1    3    3    0    0  0.50053149707E+01 -0.14285394766E+01  0.15031571674E+02  0.15907295496E+02  0.00000000000E+00 0. -1.
</event>
<event>
 7    1  0.1283194E-013  0.7246157E+02  0.7816164E-02  0.1226708E+00
        -11   -1    0    0    0    0  0.00000000000E+00  0.00000000000E+00  0.45593999997E+02  0.45594000000E+02  0.51100000000E-03 0.  1.
         11   -1    0    0    0    0 -0.00000000000E+00 -0.00000000000E+00 -0.45593999997E+02  0.45594000000E+02  0.51100000000E-03 0. -1.
    9900012    2    1    2    0    0 -0.16029062089E+01  0.68580841339E+01  0.17351556833E+02  0.72461570793E+02  0.70000000650E+02 0.  0.
         12    1    1    2    0    0  0.16029062089E+01 -0.68580841339E+01 -0.17351556833E+02  0.18726429207E+02  0.00000000000E+00 0. -1.
         11    1    3    3    0    0  0.12084928143E+02 -0.10833839795E+02 -0.10737378370E+02  0.19460443660E+02  0.51100000000E-03 0. -1.
        -11    1    3    3    0    0  0.98815448847E+01  0.14460140788E+02  0.22589805600E+02  0.28583910129E+02  0.51100000000E-03 0.  1.
        -12    1    3    3    0    0 -0.23569379236E+02  0.32317831407E+01  0.54991296027E+01  0.24417217004E+02  0.00000000000E+00 0.  1.
</event>
<event>
 7    1  0.1283194E-013  0.7246169E+02  0.7816164E-02  0.1226708E+00
        -11   -1    0    0    0    0  0.00000000000E+00  0.00000000000E+00  0.45593999997E+02  0.45594000000E+02  0.51100000000E-03 0.  1.
         11   -1    0    0    0    0 -0.00000000000E+00 -0.00000000000E+00 -0.45593999997E+02  0.45594000000E+02  0.51100000000E-03 0. -1.
    9900012    2    1    2    0    0 -0.32114210810E+01 -0.10580420622E+02  0.15113438563E+02  0.72461693607E+02  0.70000160638E+02 0.  0.
         12    1    1    2    0    0  0.32114210810E+01  0.10580420622E+02 -0.15113438563E+02  0.18726306393E+02  0.00000000000E+00 0. -1.
         11    1    3    3    0    0  0.23125481894E+01  0.17085167300E+02  0.13263939953E+02  0.21752768195E+02  0.51100000000E-03 0. -1.
        -11    1    3    3    0    0  0.45969506523E+01 -0.33895498971E+02 -0.81658285571E+01  0.35166995351E+02  0.51100000000E-03 0.  1.
        -12    1    3    3    0    0 -0.10120919923E+02  0.62299110480E+01  0.10015327167E+02  0.15541930061E+02  0.00000000000E+00 0.  1.
</event>
<event>
 7    1  0.1283194E-013  0.7246161E+02  0.7816164E-02  0.1226708E+00
        -11   -1    0    0    0    0  0.00000000000E+00  0.00000000000E+00  0.45593999997E+02  0.45594000000E+02  0.51100000000E-03 0. -1.
         11   -1    0    0    0    0 -0.00000000000E+00 -0.00000000000E+00 -0.45593999997E+02  0.45594000000E+02  0.51100000000E-03 0.  1.
    9900012    2    1    2    0    0  0.79334197377E+01 -0.15917608934E+02  0.58624348890E+01  0.72461613115E+02  0.70000055782E+02 0.  0.
         12    1    1    2    0    0 -0.79334197377E+01  0.15917608934E+02 -0.58624348890E+01  0.18726386885E+02  0.00000000000E+00 0. -1.
         11    1    3    3    0    0 -0.43607660841E+00 -0.61178429166E+01  0.36710206434E+02  0.37219046488E+02  0.51100000000E-03 0. -1.
        -11    1    3    3    0    0  0.80230082293E+01 -0.40913596706E+01 -0.92886022199E+01  0.12937774788E+02  0.51100000000E-03 0.  1.
         12    1    3    3    0    0  0.34648811683E+00 -0.57084063471E+01 -0.21559169325E+02  0.22304791840E+02  0.00000000000E+00 0. -1.
</event>
<event>
 7    1  0.1283194E-013  0.7246158E+02  0.7816164E-02  0.1226708E+00
        -11   -1    0    0    0    0  0.00000000000E+00  0.00000000000E+00  0.45593999997E+02  0.45594000000E+02  0.51100000000E-03 0.  1.
         11   -1    0    0    0    0 -0.00000000000E+00 -0.00000000000E+00 -0.45593999997E+02  0.45594000000E+02  0.51100000000E-03 0. -1.
    9900012    2    1    2    0    0 -0.16423985021E+01  0.11441889103E+02  0.14733115211E+02  0.72461575277E+02  0.70000006491E+02 0.  0.
         12    1    1    2    0    0  0.16423985021E+01 -0.11441889103E+02 -0.14733115211E+02  0.18726424723E+02  0.00000000000E+00 0. -1.
         11    1    3    3    0    0  0.18924341437E+02  0.56205949532E+01  0.20906828145E+02  0.28754430090E+02  0.51100000000E-03 0. -1.
        -11    1    3    3    0    0 -0.25746576294E+02  0.17057143603E+02 -0.48799748446E+01  0.31267339085E+02  0.51100000000E-03 0.  1.
        -12    1    3    3    0    0  0.51798363545E+01 -0.11235849453E+02 -0.12937380890E+01  0.12439806101E+02  0.00000000000E+00 0.  1.
</event>
<event>
 7    1  0.1283194E-013  0.7246154E+02  0.7816164E-02  0.1226708E+00
        -11   -1    0    0    0    0  0.00000000000E+00  0.00000000000E+00  0.45593999997E+02  0.45594000000E+02  0.51100000000E-03 0. -1.
         11   -1    0    0    0    0 -0.00000000000E+00 -0.00000000000E+00 -0.45593999997E+02  0.45594000000E+02  0.51100000000E-03 0.  1.
    9900012    2    1    2    0    0 -0.14203480114E+01 -0.18567117240E+02 -0.19811712706E+01  0.72461540893E+02  0.69999961699E+02 0.  0.
         12    1    1    2    0    0  0.14203480114E+01  0.18567117240E+02  0.19811712706E+01  0.18726459107E+02  0.00000000000E+00 0. -1.
         11    1    3    3    0    0  0.15246880381E+02 -0.10416103454E+02  0.51953114694E+01  0.19182122772E+02  0.51100000000E-03 0. -1.
        -11    1    3    3    0    0 -0.34180508100E+02 -0.38277041373E+01 -0.17364194085E+01  0.34437967500E+02  0.51100000000E-03 0.  1.
        -12    1    3    3    0    0  0.17513279707E+02 -0.43233096487E+01 -0.54400633315E+01  0.18841450620E+02  0.00000000000E+00 0.  1.
</event>
<event>
 7    1  0.1283194E-013  0.7246098E+02  0.7816164E-02  0.1226710E+00
        -11   -1    0    0    0    0  0.00000000000E+00  0.00000000000E+00  0.45593999997E+02  0.45594000000E+02  0.51100000000E-03 0. -1.
         11   -1    0    0    0    0 -0.00000000000E+00 -0.00000000000E+00 -0.45593999997E+02  0.45594000000E+02  0.51100000000E-03 0.  1.
    9900012    2    1    2    0    0 -0.15771015046E+02  0.38929627689E+01 -0.93177996085E+01  0.72460975030E+02  0.69999224553E+02 0.  0.
         12    1    1    2    0    0  0.15771015046E+02 -0.38929627689E+01  0.93177996085E+01  0.18727024970E+02  0.00000000000E+00 0. -1.
         11    1    3    3    0    0  0.45065277994E+01  0.19805706748E+02 -0.95258823803E+01  0.22434733071E+02  0.51100000000E-03 0. -1.
        -11    1    3    3    0    0 -0.13394521550E+02 -0.23635581277E+02 -0.15454751411E+02  0.31255451546E+02  0.51100000000E-03 0.  1.
         12    1    3    3    0    0 -0.68830212952E+01  0.77228372985E+01  0.15662834183E+02  0.18770790413E+02  0.00000000000E+00 0. -1.
</event>
<event>
 7    1  0.1283194E-013  0.7246157E+02  0.7816164E-02  0.1226708E+00
        -11   -1    0    0    0    0  0.00000000000E+00  0.00000000000E+00  0.45593999997E+02  0.45594000000E+02  0.51100000000E-03 0. -1.
         11   -1    0    0    0    0 -0.00000000000E+00 -0.00000000000E+00 -0.45593999997E+02  0.45594000000E+02  0.51100000000E-03 0.  1.
    9900012    2    1    2    0    0  0.14642604317E+02  0.46337349748E+01 -0.10714560946E+02  0.72461570088E+02  0.69999999731E+02 0.  0.
         12    1    1    2    0    0 -0.14642604317E+02 -0.46337349748E+01  0.10714560946E+02  0.18726429912E+02  0.00000000000E+00 0. -1.
         11    1    3    3    0    0 -0.55501012790E+01 -0.39553235118E+01  0.19352027739E+01  0.70847172369E+01  0.51100000000E-03 0. -1.
        -11    1    3    3    0    0  0.73565043963E+01  0.33141910770E+02 -0.15888057884E+02  0.37482459765E+02  0.51100000000E-03 0.  1.
        -12    1    3    3    0    0  0.12836201200E+02 -0.24552852284E+02  0.32382941646E+01  0.27894393085E+02  0.00000000000E+00 0.  1.
</event>
<event>
 7    1  0.1283194E-013  0.7246161E+02  0.7816164E-02  0.1226708E+00
        -11   -1    0    0    0    0  0.00000000000E+00  0.00000000000E+00  0.45593999997E+02  0.45594000000E+02  0.51100000000E-03 0.  1.
         11   -1    0    0    0    0 -0.00000000000E+00 -0.00000000000E+00 -0.45593999997E+02  0.45594000000E+02  0.51100000000E-03 0. -1.
    9900012    2    1    2    0    0  0.49740381803E+01 -0.40537581717E+00  0.18049158249E+02  0.72461614901E+02  0.70000058109E+02 0.  0.
         12    1    1    2    0    0 -0.49740381803E+01  0.40537581717E+00 -0.18049158249E+02  0.18726385099E+02  0.00000000000E+00 0. -1.
         11    1    3    3    0    0  0.13857792969E+02  0.26110217231E+02 -0.54993652571E+01  0.30067006640E+02  0.51100000000E-03 0. -1.
        -11    1    3    3    0    0 -0.10663790624E+02 -0.62186635426E+01  0.16016963002E+01  0.12448037517E+02  0.51100000000E-03 0.  1.
         12    1    3    3    0    0  0.17800358352E+01 -0.20296929506E+02  0.21946827206E+02  0.29946570744E+02  0.00000000000E+00 0. -1.
</event>
<event>
 7    1  0.1283194E-013  0.7246163E+02  0.7816164E-02  0.1226708E+00
        -11   -1    0    0    0    0  0.00000000000E+00  0.00000000000E+00  0.45593999997E+02  0.45594000000E+02  0.51100000000E-03 0.  1.
         11   -1    0    0    0    0 -0.00000000000E+00 -0.00000000000E+00 -0.45593999997E+02  0.45594000000E+02  0.51100000000E-03 0. -1.
    9900012    2    1    2    0    0 -0.87811166880E+01 -0.65897603567E+01  0.15170502079E+02  0.72461625947E+02  0.70000072498E+02 0.  0.
         12    1    1    2    0    0  0.87811166880E+01  0.65897603567E+01 -0.15170502079E+02  0.18726374053E+02  0.00000000000E+00 0. -1.
         11    1    3    3    0    0  0.15155853377E+02  0.18762482780E+02  0.10294030691E+01  0.24141050569E+02  0.51100000000E-03 0. -1.
        -11    1    3    3    0    0 -0.14875907629E+02  0.25006595962E+01  0.11390293190E+02  0.18901976231E+02  0.51100000000E-03 0.  1.
         12    1    3    3    0    0 -0.90610624357E+01 -0.27852902733E+02  0.27508058190E+01  0.29418599147E+02  0.00000000000E+00 0. -1.
</event>
<event>
 7    1  0.1283194E-013  0.7246191E+02  0.7816164E-02  0.1226707E+00
        -11   -1    0    0    0    0  0.00000000000E+00  0.00000000000E+00  0.45593999997E+02  0.45594000000E+02  0.51100000000E-03 0.  1.
         11   -1    0    0    0    0 -0.00000000000E+00 -0.00000000000E+00 -0.45593999997E+02  0.45594000000E+02  0.51100000000E-03 0. -1.
    9900012    2    1    2    0    0  0.25788976836E+00 -0.17117605985E+02  0.75886397344E+01  0.72461911385E+02  0.70000444333E+02 0.  0.
         12    1    1    2    0    0 -0.25788976836E+00  0.17117605985E+02 -0.75886397344E+01  0.18726088615E+02  0.00000000000E+00 0. -1.
         11    1    3    3    0    0 -0.13489108745E+02  0.73602813971E+01 -0.11425186358E+02  0.19148490295E+02  0.51100000000E-03 0. -1.
        -11    1    3    3    0    0  0.20886146463E+02 -0.43272473670E+01  0.23215581604E+02  0.31526487488E+02  0.51100000000E-03 0.  1.
         12    1    3    3    0    0 -0.71391479489E+01 -0.20150640015E+02 -0.42017555113E+01  0.21786933603E+02  0.00000000000E+00 0. -1.
</event>
<event>
 7    1  0.1283194E-013  0.7246147E+02  0.7816164E-02  0.1226708E+00
        -11   -1    0    0    0    0  0.00000000000E+00  0.00000000000E+00  0.45593999997E+02  0.45594000000E+02  0.51100000000E-03 0.  1.
         11   -1    0    0    0    0 -0.00000000000E+00 -0.00000000000E+00 -0.45593999997E+02  0.45594000000E+02  0.51100000000E-03 0. -1.
    9900012    2    1    2    0    0  0.23907654768E+01 -0.10297934179E+02  0.15457034026E+02  0.72461465115E+02  0.69999862984E+02 0.  0.
         12    1    1    2    0    0 -0.23907654768E+01  0.10297934179E+02 -0.15457034026E+02  0.18726534885E+02  0.00000000000E+00 0. -1.
         11    1    3    3    0    0 -0.27705049399E+02 -0.38804057060E+01 -0.72669523240E+01  0.28903908161E+02  0.51100000000E-03 0. -1.
        -11    1    3    3    0    0  0.16673685486E+02 -0.90906781840E+01  0.25237791470E+01  0.19157809869E+02  0.51100000000E-03 0.  1.
         12    1    3    3    0    0  0.13422129390E+02  0.26731497108E+01  0.20200207203E+02  0.24399747085E+02  0.00000000000E+00 0. -1.
</event>
<event>
 7    1  0.1283194E-013  0.7246162E+02  0.7816164E-02  0.1226708E+00
        -11   -1    0    0    0    0  0.00000000000E+00  0.00000000000E+00  0.45593999997E+02  0.45594000000E+02  0.51100000000E-03 0.  1.
         11   -1    0    0    0    0 -0.00000000000E+00 -0.00000000000E+00 -0.45593999997E+02  0.45594000000E+02  0.51100000000E-03 0. -1.
    9900012    2    1    2    0    0  0.15475140520E+02 -0.87901367286E+01  0.58250303988E+01  0.72461616020E+02  0.70000059567E+02 0.  0.
         12    1    1    2    0    0 -0.15475140520E+02  0.87901367286E+01 -0.58250303988E+01  0.18726383980E+02  0.00000000000E+00 0. -1.
         11    1    3    3    0    0 -0.55669311468E+01 -0.19118513639E+02  0.22297164998E+02  0.29894344840E+02  0.51100000000E-03 0. -1.
        -11    1    3    3    0    0 -0.72773023395E+01  0.39175623652E+00 -0.91082087045E+01  0.11664993286E+02  0.51100000000E-03 0.  1.
         12    1    3    3    0    0  0.28319374006E+02  0.99366206743E+01 -0.73639258951E+01  0.30902277895E+02  0.00000000000E+00 0. -1.
</event>
<event>
 7    1  0.1283194E-013  0.7246171E+02  0.7816164E-02  0.1226708E+00
        -11   -1    0    0    0    0  0.00000000000E+00  0.00000000000E+00  0.45593999997E+02  0.45594000000E+02  0.51100000000E-03 0. -1.
         11   -1    0    0    0    0 -0.00000000000E+00 -0.00000000000E+00 -0.45593999997E+02  0.45594000000E+02  0.51100000000E-03 0.  1.
    9900012    2    1    2    0    0  0.14513030293E+02  0.51286683364E+01 -0.10665012770E+02  0.72461714074E+02  0.70000187299E+02 0.  0.
         12    1    1    2    0    0 -0.14513030293E+02 -0.51286683364E+01  0.10665012770E+02  0.18726285926E+02  0.00000000000E+00 0. -1.
         11    1    3    3    0    0 -0.66426549882E+00 -0.15106304156E+02  0.17094091278E+02  0.22822130285E+02  0.51100000000E-03 0. -1.
        -11    1    3    3    0    0  0.84912720428E+01  0.84970468252E+01 -0.33024252973E+02  0.35141183679E+02  0.51100000000E-03 0.  1.
        -12    1    3    3    0    0  0.66860237491E+01  0.11737925667E+02  0.52651489250E+01  0.14498400109E+02  0.00000000000E+00 0.  1.
</event>
<event>
 7    1  0.1283194E-013  0.7246171E+02  0.7816164E-02  0.1226708E+00
        -11   -1    0    0    0    0  0.00000000000E+00  0.00000000000E+00  0.45593999997E+02  0.45594000000E+02  0.51100000000E-03 0.  1.
         11   -1    0    0    0    0 -0.00000000000E+00 -0.00000000000E+00 -0.45593999997E+02  0.45594000000E+02  0.51100000000E-03 0. -1.
    9900012    2    1    2    0    0  0.10694697977E+01 -0.59899794193E+01 -0.17710173630E+02  0.72461711818E+02  0.70000184360E+02 0.  0.
         12    1    1    2    0    0 -0.10694697977E+01  0.59899794193E+01  0.17710173630E+02  0.18726288182E+02  0.00000000000E+00 0. -1.
         11    1    3    3    0    0  0.12307510210E+02  0.13492526537E+02 -0.17653204602E+02  0.25399974664E+02  0.51100000000E-03 0. -1.
        -11    1    3    3    0    0 -0.17017648028E+02  0.11568765205E+01  0.13454808989E+02  0.21724884186E+02  0.51100000000E-03 0.  1.
        -12    1    3    3    0    0  0.57796076153E+01 -0.20639382476E+02 -0.13511778016E+02  0.25336852969E+02  0.00000000000E+00 0.  1.
</event>
<event>
 7    1  0.1283194E-013  0.7246158E+02  0.7816164E-02  0.1226708E+00
        -11   -1    0    0    0    0  0.00000000000E+00  0.00000000000E+00  0.45593999997E+02  0.45594000000E+02  0.51100000000E-03 0. -1.
         11   -1    0    0    0    0 -0.00000000000E+00 -0.00000000000E+00 -0.45593999997E+02  0.45594000000E+02  0.51100000000E-03 0.  1.
    9900012    2    1    2    0    0  0.15214795656E+02 -0.99370521419E+01 -0.45214843469E+01  0.72461579284E+02  0.70000011711E+02 0.  0.
         12    1    1    2    0    0 -0.15214795656E+02  0.99370521419E+01  0.45214843469E+01  0.18726420716E+02  0.00000000000E+00 0. -1.
         11    1    3    3    0    0  0.59850554293E+01 -0.20297415622E+01  0.33184716954E+01  0.71381365885E+01  0.51100000000E-03 0. -1.
        -11    1    3    3    0    0 -0.24489823782E+02 -0.97116704961E+01 -0.15678869441E+02  0.30657706371E+02  0.51100000000E-03 0.  1.
        -12    1    3    3    0    0  0.33719564009E+02  0.18043599163E+01  0.78389133988E+01  0.34665736325E+02  0.00000000000E+00 0.  1.
</event>
<event>
 7    1  0.1283194E-013  0.7246157E+02  0.7816164E-02  0.1226708E+00
        -11   -1    0    0    0    0  0.00000000000E+00  0.00000000000E+00  0.45593999997E+02  0.45594000000E+02  0.51100000000E-03 0. -1.
         11   -1    0    0    0    0 -0.00000000000E+00 -0.00000000000E+00 -0.45593999997E+02  0.45594000000E+02  0.51100000000E-03 0.  1.
    9900012    2    1    2    0    0 -0.66231338476E+01 -0.31895264731E+01 -0.17223246870E+02  0.72461569112E+02  0.69999998459E+02 0.  0.
         12    1    1    2    0    0  0.66231338476E+01  0.31895264731E+01  0.17223246870E+02  0.18726430888E+02  0.00000000000E+00 0. -1.
         11    1    3    3    0    0  0.14360761262E+02 -0.22752802539E+02 -0.16702225188E+01  0.26957580213E+02  0.51100000000E-03 0.  1.
        -11    1    3    3    0    0 -0.24773229858E+02  0.72633798301E+01 -0.66579438975E+00  0.25824656563E+02  0.51100000000E-03 0. -1.
        -12    1    3    3    0    0  0.37893347487E+01  0.12299896236E+02 -0.14887229961E+02  0.19679332335E+02  0.00000000000E+00 0.  1.
</event>
<event>
 7    1  0.1283194E-013  0.7246155E+02  0.7816164E-02  0.1226708E+00
        -11   -1    0    0    0    0  0.00000000000E+00  0.00000000000E+00  0.45593999997E+02  0.45594000000E+02  0.51100000000E-03 0. -1.
         11   -1    0    0    0    0 -0.00000000000E+00 -0.00000000000E+00 -0.45593999997E+02  0.45594000000E+02  0.51100000000E-03 0.  1.
    9900012    2    1    2    0    0  0.15539506363E+02 -0.96458116468E+01 -0.40201767431E+01  0.72461554491E+02  0.69999979414E+02 0.  0.
         12    1    1    2    0    0 -0.15539506363E+02  0.96458116468E+01  0.40201767431E+01  0.18726445509E+02  0.00000000000E+00 0. -1.
         11    1    3    3    0    0 -0.18683468495E+02 -0.21406090519E+02 -0.93532902252E+01  0.29912819068E+02  0.51100000000E-03 0. -1.
        -11    1    3    3    0    0  0.20632649266E+02  0.72311065502E+01 -0.77025247234E+01  0.23180250323E+02  0.51100000000E-03 0.  1.
         12    1    3    3    0    0  0.13590325593E+02  0.45291723216E+01  0.13035638205E+02  0.19368485100E+02  0.00000000000E+00 0. -1.
</event>
<event>
 7    1  0.1283194E-013  0.7246156E+02  0.7816164E-02  0.1226708E+00
        -11   -1    0    0    0    0  0.00000000000E+00  0.00000000000E+00  0.45593999997E+02  0.45594000000E+02  0.51100000000E-03 0.  1.
         11   -1    0    0    0    0 -0.00000000000E+00 -0.00000000000E+00 -0.45593999997E+02  0.45594000000E+02  0.51100000000E-03 0. -1.
    9900012    2    1    2    0    0 -0.92314882643E+01 -0.10251106828E+02  0.12663886010E+02  0.72461559451E+02  0.69999985875E+02 0.  0.
         12    1    1    2    0    0  0.92314882643E+01  0.10251106828E+02 -0.12663886010E+02  0.18726440549E+02  0.00000000000E+00 0. -1.
         11    1    3    3    0    0 -0.77099962293E+01  0.11675466714E+02  0.47018714959E+01  0.14760357742E+02  0.51100000000E-03 0. -1.
        -11    1    3    3    0    0  0.10906940853E+02 -0.24303678291E+02  0.24963511714E+02  0.36507630087E+02  0.51100000000E-03 0.  1.
        -12    1    3    3    0    0 -0.12428432888E+02  0.23771047493E+01 -0.17001497200E+02  0.21193571622E+02  0.00000000000E+00 0.  1.
</event>
<event>
 7    1  0.1283194E-013  0.7246150E+02  0.7816164E-02  0.1226708E+00
        -11   -1    0    0    0    0  0.00000000000E+00  0.00000000000E+00  0.45593999997E+02  0.45594000000E+02  0.51100000000E-03 0. -1.
         11   -1    0    0    0    0 -0.00000000000E+00 -0.00000000000E+00 -0.45593999997E+02  0.45594000000E+02  0.51100000000E-03 0.  1.
    9900012    2    1    2    0    0  0.14915558202E+02  0.11186805542E+02 -0.17502628541E+01  0.72461496995E+02  0.69999904514E+02 0.  0.
         12    1    1    2    0    0 -0.14915558202E+02 -0.11186805542E+02  0.17502628541E+01  0.18726503005E+02  0.00000000000E+00 0. -1.
         11    1    3    3    0    0  0.24649512599E+02 -0.10946717047E+02 -0.21970741125E+01  0.27060233192E+02  0.51100000000E-03 0. -1.
        -11    1    3    3    0    0 -0.18608087616E+02  0.27909333390E+02  0.49277741938E+01  0.33903904993E+02  0.51100000000E-03 0.  1.
        -12    1    3    3    0    0  0.88741332194E+01 -0.57758108009E+01 -0.44809629354E+01  0.11497358811E+02  0.00000000000E+00 0.  1.
</event>
<event>
 7    1  0.1283194E-013  0.7246160E+02  0.7816164E-02  0.1226708E+00
        -11   -1    0    0    0    0  0.00000000000E+00  0.00000000000E+00  0.45593999997E+02  0.45594000000E+02  0.51100000000E-03 0.  1.
         11   -1    0    0    0    0 -0.00000000000E+00 -0.00000000000E+00 -0.45593999997E+02  0.45594000000E+02  0.51100000000E-03 0. -1.
    9900012    2    1    2    0    0  0.14056639088E+02  0.91657811019E+01  0.83112716648E+01  0.72461604662E+02  0.70000044771E+02 0.  0.
         12    1    1    2    0    0 -0.14056639088E+02 -0.91657811019E+01 -0.83112716648E+01  0.18726395338E+02  0.00000000000E+00 0. -1.
         11    1    3    3    0    0  0.47819307550E+01  0.10778222666E+02 -0.14051366964E+02  0.18343332832E+02  0.51100000000E-03 0. -1.
        -11    1    3    3    0    0  0.75514656183E+01  0.92189418459E+01  0.35241710848E+02  0.37202038997E+02  0.51100000000E-03 0.  1.
        -12    1    3    3    0    0  0.17232427145E+01 -0.10831383410E+02 -0.12879072220E+02  0.16916232833E+02  0.00000000000E+00 0.  1.
</event>
<event>
 7    1  0.1283194E-013  0.7246163E+02  0.7816164E-02  0.1226708E+00
        -11   -1    0    0    0    0  0.00000000000E+00  0.00000000000E+00  0.45593999997E+02  0.45594000000E+02  0.51100000000E-03 0. -1.
         11   -1    0    0    0    0 -0.00000000000E+00 -0.00000000000E+00 -0.45593999997E+02  0.45594000000E+02  0.51100000000E-03 0.  1.
    9900012    2    1    2    0    0 -0.64505115169E+01  0.14092447599E+02 -0.10510507517E+02  0.72461629652E+02  0.70000077324E+02 0.  0.
         12    1    1    2    0    0  0.64505115169E+01 -0.14092447599E+02  0.10510507517E+02  0.18726370348E+02  0.00000000000E+00 0. -1.
         11    1    3    3    0    0 -0.52867583116E+01 -0.12444424893E+02  0.22687679219E+02  0.26411064215E+02  0.51100000000E-03 0. -1.
        -11    1    3    3    0    0 -0.47352182554E+01  0.18769049224E+02 -0.11003255015E+02  0.22265918393E+02  0.51100000000E-03 0.  1.
         12    1    3    3    0    0  0.35714650501E+01  0.77678232679E+01 -0.22194931720E+02  0.23784647044E+02  0.00000000000E+00 0. -1.
</event>
<event>
 7    1  0.1283194E-013  0.7246154E+02  0.7816164E-02  0.1226708E+00
        -11   -1    0    0    0    0  0.00000000000E+00  0.00000000000E+00  0.45593999997E+02  0.45594000000E+02  0.51100000000E-03 0.  1.
         11   -1    0    0    0    0 -0.00000000000E+00 -0.00000000000E+00 -0.45593999997E+02  0.45594000000E+02  0.51100000000E-03 0. -1.
    9900012    2    1    2    0    0  0.43782035011E+01  0.11190170898E+01  0.18173037001E+02  0.72461544409E+02  0.69999966280E+02 0.  0.
         12    1    1    2    0    0 -0.43782035011E+01 -0.11190170898E+01 -0.18173037001E+02  0.18726455591E+02  0.00000000000E+00 0. -1.
         11    1    3    3    0    0  0.12391993197E+02  0.11109241870E+02  0.33321726086E+02  0.37246666696E+02  0.51100000000E-03 0. -1.
        -11    1    3    3    0    0 -0.86210243984E+01  0.37945925788E+01  0.51004412701E+01  0.10711465629E+02  0.51100000000E-03 0.  1.
         12    1    3    3    0    0  0.60723470272E+00 -0.13784817359E+02 -0.20249130355E+02  0.24503412084E+02  0.00000000000E+00 0. -1.
</event>
<event>
 7    1  0.1283194E-013  0.7246104E+02  0.7816164E-02  0.1226709E+00
        -11   -1    0    0    0    0  0.00000000000E+00  0.00000000000E+00  0.45593999997E+02  0.45594000000E+02  0.51100000000E-03 0.  1.
         11   -1    0    0    0    0 -0.00000000000E+00 -0.00000000000E+00 -0.45593999997E+02  0.45594000000E+02  0.51100000000E-03 0. -1.
    9900012    2    1    2    0    0  0.59600841606E+01 -0.29763059954E+01  0.17501940645E+02  0.72461042774E+02  0.69999312804E+02 0.  0.
         12    1    1    2    0    0 -0.59600841606E+01  0.29763059954E+01 -0.17501940645E+02  0.18726957226E+02  0.00000000000E+00 0. -1.
         11    1    3    3    0    0  0.15682351291E+02  0.11458485825E+02 -0.20353773135E+02  0.28133771885E+02  0.51100000000E-03 0. -1.
        -11    1    3    3    0    0  0.25842084812E+00 -0.95533036037E+01  0.79729793534E+01  0.12445914635E+02  0.51100000000E-03 0.  1.
         12    1    3    3    0    0 -0.99806879790E+01 -0.48814882163E+01  0.29882734427E+02  0.31881356253E+02  0.00000000000E+00 0. -1.
</event>
<event>
 7    1  0.1283194E-013  0.7246162E+02  0.7816164E-02  0.1226708E+00
        -11   -1    0    0    0    0  0.00000000000E+00  0.00000000000E+00  0.45593999997E+02  0.45594000000E+02  0.51100000000E-03 0.  1.
         11   -1    0    0    0    0 -0.00000000000E+00 -0.00000000000E+00 -0.45593999997E+02  0.45594000000E+02  0.51100000000E-03 0. -1.
    9900012    2    1    2    0    0  0.98040261594E+01 -0.15914114718E+02  0.11398785248E+01  0.72461620231E+02  0.70000065052E+02 0.  0.
         12    1    1    2    0    0 -0.98040261594E+01  0.15914114718E+02 -0.11398785248E+01  0.18726379769E+02  0.00000000000E+00 0. -1.
         11    1    3    3    0    0 -0.10172513020E+02 -0.11133381506E+02 -0.16006153604E+02  0.21991570166E+02  0.51100000000E-03 0. -1.
        -11    1    3    3    0    0  0.21295838659E+02 -0.49472332081E+00  0.30035701514E+02  0.36822559132E+02  0.51100000000E-03 0.  1.
        -12    1    3    3    0    0 -0.13192994797E+01 -0.42860098911E+01 -0.12889669386E+02  0.13647490933E+02  0.00000000000E+00 0.  1.
</event>
<event>
 7    1  0.1283194E-013  0.7246156E+02  0.7816164E-02  0.1226708E+00
        -11   -1    0    0    0    0  0.00000000000E+00  0.00000000000E+00  0.45593999997E+02  0.45594000000E+02  0.51100000000E-03 0. -1.
         11   -1    0    0    0    0 -0.00000000000E+00 -0.00000000000E+00 -0.45593999997E+02  0.45594000000E+02  0.51100000000E-03 0.  1.
    9900012    2    1    2    0    0  0.14002680566E+02  0.12113179967E+02 -0.28063224331E+01  0.72461557798E+02  0.69999983722E+02 0.  0.
         12    1    1    2    0    0 -0.14002680566E+02 -0.12113179967E+02  0.28063224331E+01  0.18726442202E+02  0.00000000000E+00 0. -1.
         11    1    3    3    0    0 -0.73470127693E+01 -0.32322970894E+01  0.25819850652E+02  0.27038695032E+02  0.51100000000E-03 0. -1.
        -11    1    3    3    0    0 -0.16723562492E+01 -0.29616872456E+01 -0.10108915361E+02  0.10665764708E+02  0.51100000000E-03 0.  1.
         12    1    3    3    0    0  0.23022049584E+02  0.18307164302E+02 -0.18517257724E+02  0.34757098058E+02  0.00000000000E+00 0. -1.
</event>
<event>
 7    1  0.1283194E-013  0.7246150E+02  0.7816164E-02  0.1226708E+00
        -11   -1    0    0    0    0  0.00000000000E+00  0.00000000000E+00  0.45593999997E+02  0.45594000000E+02  0.51100000000E-03 0. -1.
         11   -1    0    0    0    0 -0.00000000000E+00 -0.00000000000E+00 -0.45593999997E+02  0.45594000000E+02  0.51100000000E-03 0.  1.
    9900012    2    1    2    0    0 -0.93138111035E+01  0.39827589613E+00 -0.16241186732E+02  0.72461498794E+02  0.69999906857E+02 0.  0.
         12    1    1    2    0    0  0.93138111035E+01 -0.39827589613E+00  0.16241186732E+02  0.18726501206E+02  0.00000000000E+00 0. -1.
         11    1    3    3    0    0  0.29319828677E+01  0.27057027736E+02  0.42997355010E+01  0.27552985302E+02  0.51100000000E-03 0. -1.
        -11    1    3    3    0    0 -0.10964790501E+02 -0.23619222547E+02 -0.20446000759E+01  0.26120388477E+02  0.51100000000E-03 0.  1.
        -12    1    3    3    0    0 -0.12810034699E+01 -0.30395292929E+01 -0.18496322157E+02  0.18788125014E+02  0.00000000000E+00 0.  1.
</event>
<event>
 7    1  0.1283194E-013  0.7246162E+02  0.7816164E-02  0.1226708E+00
        -11   -1    0    0    0    0  0.00000000000E+00  0.00000000000E+00  0.45593999997E+02  0.45594000000E+02  0.51100000000E-03 0.  1.
         11   -1    0    0    0    0 -0.00000000000E+00 -0.00000000000E+00 -0.45593999997E+02  0.45594000000E+02  0.51100000000E-03 0. -1.
    9900012    2    1    2    0    0  0.10799401275E+02  0.25020039134E+01  0.15092723660E+02  0.72461617569E+02  0.70000061584E+02 0.  0.
         12    1    1    2    0    0 -0.10799401275E+02 -0.25020039134E+01 -0.15092723660E+02  0.18726382431E+02  0.00000000000E+00 0. -1.
         11    1    3    3    0    0  0.23441153870E+02  0.14220804242E+02  0.10315656745E+02  0.29293885751E+02  0.51100000000E-03 0. -1.
        -11    1    3    3    0    0  0.33436743189E+01 -0.17763561876E+02  0.14794476773E+02  0.23358099917E+02  0.51100000000E-03 0.  1.
         12    1    3    3    0    0 -0.15985426914E+02  0.60447615473E+01 -0.10017409858E+02  0.19809631901E+02  0.00000000000E+00 0. -1.
</event>
<event>
 7    1  0.1283194E-013  0.7246155E+02  0.7816164E-02  0.1226708E+00
        -11   -1    0    0    0    0  0.00000000000E+00  0.00000000000E+00  0.45593999997E+02  0.45594000000E+02  0.51100000000E-03 0.  1.
         11   -1    0    0    0    0 -0.00000000000E+00 -0.00000000000E+00 -0.45593999997E+02  0.45594000000E+02  0.51100000000E-03 0. -1.
    9900012    2    1    2    0    0  0.35063263245E+01  0.40572610799E+01  0.17942250648E+02  0.72461546783E+02  0.69999969372E+02 0.  0.
         12    1    1    2    0    0 -0.35063263245E+01 -0.40572610799E+01 -0.17942250648E+02  0.18726453217E+02  0.00000000000E+00 0. -1.
         11    1    3    3    0    0  0.15646428083E+02 -0.76565457721E+01 -0.15975077413E+02  0.23635492453E+02  0.51100000000E-03 0. -1.
        -11    1    3    3    0    0 -0.79789734597E+01 -0.81518411695E+01  0.23248440092E+02  0.25896071109E+02  0.51100000000E-03 0.  1.
         12    1    3    3    0    0 -0.41611282983E+01  0.19865648021E+02  0.10668887969E+02  0.22929983221E+02  0.00000000000E+00 0. -1.
</event>
<event>
 7    1  0.1283194E-013  0.7246156E+02  0.7816164E-02  0.1226708E+00
        -11   -1    0    0    0    0  0.00000000000E+00  0.00000000000E+00  0.45593999997E+02  0.45594000000E+02  0.51100000000E-03 0.  1.
         11   -1    0    0    0    0 -0.00000000000E+00 -0.00000000000E+00 -0.45593999997E+02  0.45594000000E+02  0.51100000000E-03 0. -1.
    9900012    2    1    2    0    0  0.84675416386E+00  0.49210558949E+01  0.18048431639E+02  0.72461556975E+02  0.69999982649E+02 0.  0.
         12    1    1    2    0    0 -0.84675416386E+00 -0.49210558949E+01 -0.18048431639E+02  0.18726443025E+02  0.00000000000E+00 0. -1.
         11    1    3    3    0    0 -0.57745874692E+01  0.66895312632E+01 -0.69860874790E+01  0.11265039169E+02  0.51100000000E-03 0. -1.
        -11    1    3    3    0    0 -0.83766749498E+00 -0.57120157100E+01  0.41922513942E+02  0.42318151966E+02  0.51100000000E-03 0.  1.
        -12    1    3    3    0    0  0.74590091280E+01  0.39435403416E+01 -0.16887994824E+02  0.18878365840E+02  0.00000000000E+00 0.  1.
</event>
<event>
 7    1  0.1283194E-013  0.7246153E+02  0.7816164E-02  0.1226708E+00
        -11   -1    0    0    0    0  0.00000000000E+00  0.00000000000E+00  0.45593999997E+02  0.45594000000E+02  0.51100000000E-03 0.  1.
         11   -1    0    0    0    0 -0.00000000000E+00 -0.00000000000E+00 -0.45593999997E+02  0.45594000000E+02  0.51100000000E-03 0. -1.
    9900012    2    1    2    0    0 -0.71060672374E+01  0.17092476064E+02 -0.28340448087E+01  0.72461528374E+02  0.69999945391E+02 0.  0.
         12    1    1    2    0    0  0.71060672374E+01 -0.17092476064E+02  0.28340448087E+01  0.18726471626E+02  0.00000000000E+00 0. -1.
         11    1    3    3    0    0 -0.20855412990E+02 -0.17197081291E+02 -0.18369280901E+01  0.27093581546E+02  0.51100000000E-03 0. -1.
        -11    1    3    3    0    0  0.54894573569E+01  0.34806589793E+02 -0.59314653704E+01  0.35732549822E+02  0.51100000000E-03 0.  1.
        -12    1    3    3    0    0  0.82598883953E+01 -0.51703243764E+00  0.49343486519E+01  0.96353970060E+01  0.00000000000E+00 0.  1.
</event>
<event>
 7    1  0.1283194E-013  0.7246171E+02  0.7816164E-02  0.1226708E+00
        -11   -1    0    0    0    0  0.00000000000E+00  0.00000000000E+00  0.45593999997E+02  0.45594000000E+02  0.51100000000E-03 0.  1.
         11   -1    0    0    0    0 -0.00000000000E+00 -0.00000000000E+00 -0.45593999997E+02  0.45594000000E+02  0.51100000000E-03 0. -1.
    9900012    2    1    2    0    0  0.13531519170E+02 -0.87511087282E+01 -0.95388647296E+01  0.72461712184E+02  0.70000184838E+02 0.  0.
         12    1    1    2    0    0 -0.13531519170E+02  0.87511087282E+01  0.95388647296E+01  0.18726287816E+02  0.00000000000E+00 0. -1.
         11    1    3    3    0    0  0.39148782592E+01 -0.13053955894E+01 -0.38529242833E+02  0.38749617843E+02  0.51100000000E-03 0. -1.
        -11    1    3    3    0    0  0.38859245947E+01 -0.56550044523E+01  0.26214278363E+02  0.27097377653E+02  0.51100000000E-03 0.  1.
         12    1    3    3    0    0  0.57307163164E+01 -0.17907086865E+01  0.27760997400E+01  0.66147166882E+01  0.00000000000E+00 0. -1.
</event>
<event>
 7    1  0.1283194E-013  0.7246156E+02  0.7816164E-02  0.1226708E+00
        -11   -1    0    0    0    0  0.00000000000E+00  0.00000000000E+00  0.45593999997E+02  0.45594000000E+02  0.51100000000E-03 0. -1.
         11   -1    0    0    0    0 -0.00000000000E+00 -0.00000000000E+00 -0.45593999997E+02  0.45594000000E+02  0.51100000000E-03 0.  1.
    9900012    2    1    2    0    0 -0.10236487073E+02  0.15214128695E+02 -0.37979197178E+01  0.72461559502E+02  0.69999985941E+02 0.  0.
         12    1    1    2    0    0  0.10236487073E+02 -0.15214128695E+02  0.37979197178E+01  0.18726440498E+02  0.00000000000E+00 0. -1.
         11    1    3    3    0    0  0.65075490458E+01 -0.23250789333E+02  0.32852961591E+01  0.24366792368E+02  0.51100000000E-03 0. -1.
        -11    1    3    3    0    0 -0.99458707562E+01  0.49546364705E+01 -0.83171482151E+01  0.13879615353E+02  0.51100000000E-03 0.  1.
         12    1    3    3    0    0 -0.67981653631E+01  0.33510281557E+02  0.12339323383E+01  0.34215151781E+02  0.00000000000E+00 0. -1.
</event>
<event>
 7    1  0.1283194E-013  0.7246157E+02  0.7816164E-02  0.1226708E+00
        -11   -1    0    0    0    0  0.00000000000E+00  0.00000000000E+00  0.45593999997E+02  0.45594000000E+02  0.51100000000E-03 0. -1.
         11   -1    0    0    0    0 -0.00000000000E+00 -0.00000000000E+00 -0.45593999997E+02  0.45594000000E+02  0.51100000000E-03 0.  1.
    9900012    2    1    2    0    0 -0.64527286076E+01 -0.90734476303E+00 -0.17556148472E+02  0.72461566004E+02  0.69999994412E+02 0.  0.
         12    1    1    2    0    0  0.64527286076E+01  0.90734476303E+00  0.17556148472E+02  0.18726433996E+02  0.00000000000E+00 0. -1.
         11    1    3    3    0    0 -0.74760639758E+01  0.13341294018E+02  0.24562718261E+01  0.15489187525E+02  0.51100000000E-03 0. -1.
        -11    1    3    3    0    0  0.25086810231E+02 -0.27597623861E+01 -0.31776623259E+01  0.25437410916E+02  0.51100000000E-03 0.  1.
        -12    1    3    3    0    0 -0.24063474862E+02 -0.11488876394E+02 -0.16834757973E+02  0.31534967564E+02  0.00000000000E+00 0.  1.
</event>
<event>
 7    1  0.1283194E-013  0.7246182E+02  0.7816164E-02  0.1226707E+00
        -11   -1    0    0    0    0  0.00000000000E+00  0.00000000000E+00  0.45593999997E+02  0.45594000000E+02  0.51100000000E-03 0. -1.
         11   -1    0    0    0    0 -0.00000000000E+00 -0.00000000000E+00 -0.45593999997E+02  0.45594000000E+02  0.51100000000E-03 0.  1.
    9900012    2    1    2    0    0  0.33895963005E+01 -0.61831458977E+01 -0.17347883529E+02  0.72461822622E+02  0.70000328703E+02 0.  0.
         12    1    1    2    0    0 -0.33895963005E+01  0.61831458977E+01  0.17347883529E+02  0.18726177378E+02  0.00000000000E+00 0. -1.
         11    1    3    3    0    0  0.86088649798E+00 -0.20904743018E+02  0.81100281735E+01  0.22439295074E+02  0.51100000000E-03 0. -1.
        -11    1    3    3    0    0  0.19106621654E+02  0.98011478564E+01 -0.24677162023E+02  0.32712196749E+02  0.51100000000E-03 0.  1.
        -12    1    3    3    0    0 -0.16577911851E+02  0.49204492635E+01 -0.78074967883E+00  0.17310330799E+02  0.00000000000E+00 0.  1.
</event>
<event>
 7    1  0.1283194E-013  0.7246134E+02  0.7816164E-02  0.1226709E+00
        -11   -1    0    0    0    0  0.00000000000E+00  0.00000000000E+00  0.45593999997E+02  0.45594000000E+02  0.51100000000E-03 0.  1.
         11   -1    0    0    0    0 -0.00000000000E+00 -0.00000000000E+00 -0.45593999997E+02  0.45594000000E+02  0.51100000000E-03 0. -1.
    9900012    2    1    2    0    0 -0.74125338135E+00 -0.62464182509E+01  0.17638606685E+02  0.72461344043E+02  0.69999705266E+02 0.  0.
         12    1    1    2    0    0  0.74125338135E+00  0.62464182509E+01 -0.17638606685E+02  0.18726655957E+02  0.00000000000E+00 0. -1.
         11    1    3    3    0    0 -0.28572343118E+02 -0.10887170708E+02 -0.24864525439E+01  0.30677218319E+02  0.51100000000E-03 0. -1.
        -11    1    3    3    0    0  0.10210398980E+02 -0.72162097943E+01  0.15733158691E+02  0.20096223869E+02  0.51100000000E-03 0.  1.
         12    1    3    3    0    0  0.17620690757E+02  0.11856962251E+02  0.43919005372E+01  0.21687901856E+02  0.00000000000E+00 0. -1.
</event>
<event>
 7    1  0.1283194E-013  0.7246136E+02  0.7816164E-02  0.1226709E+00
        -11   -1    0    0    0    0  0.00000000000E+00  0.00000000000E+00  0.45593999997E+02  0.45594000000E+02  0.51100000000E-03 0.  1.
         11   -1    0    0    0    0 -0.00000000000E+00 -0.00000000000E+00 -0.45593999997E+02  0.45594000000E+02  0.51100000000E-03 0. -1.
    9900012    2    1    2    0    0  0.63759963978E+01 -0.17318850890E+02  0.31766782299E+01  0.72461355592E+02  0.69999720310E+02 0.  0.
         12    1    1    2    0    0 -0.63759963978E+01  0.17318850890E+02 -0.31766782299E+01  0.18726644408E+02  0.00000000000E+00 0. -1.
         11    1    3    3    0    0  0.75686068134E+01  0.12185080304E+02  0.20859709764E+02  0.25315755624E+02  0.51100000000E-03 0. -1.
        -11    1    3    3    0    0 -0.12483737306E+02 -0.22831662025E+02 -0.11565019666E+01  0.26047379619E+02  0.51100000000E-03 0.  1.
        -12    1    3    3    0    0  0.11291126891E+02 -0.66722691690E+01 -0.16526529568E+02  0.21098220349E+02  0.00000000000E+00 0.  1.
</event>
<event>
 7    1  0.1283194E-013  0.7246148E+02  0.7816164E-02  0.1226708E+00
        -11   -1    0    0    0    0  0.00000000000E+00  0.00000000000E+00  0.45593999997E+02  0.45594000000E+02  0.51100000000E-03 0. -1.
         11   -1    0    0    0    0 -0.00000000000E+00 -0.00000000000E+00 -0.45593999997E+02  0.45594000000E+02  0.51100000000E-03 0.  1.
    9900012    2    1    2    0    0 -0.18296393523E+02  0.19919335195E+01  0.34578725600E+01  0.72461476091E+02  0.69999877282E+02 0.  0.
         12    1    1    2    0    0  0.18296393523E+02 -0.19919335195E+01 -0.34578725600E+01  0.18726523909E+02  0.00000000000E+00 0. -1.
         11    1    3    3    0    0 -0.20918469225E+02 -0.77336836478E+01  0.13538861908E+02  0.26090093896E+02  0.51100000000E-03 0. -1.
        -11    1    3    3    0    0 -0.64338232194E+01  0.11014149176E+02 -0.25460627500E+02  0.28477168333E+02  0.51100000000E-03 0.  1.
         12    1    3    3    0    0  0.90558989218E+01 -0.12885320088E+01  0.15379638152E+02  0.17894213861E+02  0.00000000000E+00 0. -1.
</event>
<event>
 7    1  0.1283194E-013  0.7246156E+02  0.7816164E-02  0.1226708E+00
        -11   -1    0    0    0    0  0.00000000000E+00  0.00000000000E+00  0.45593999997E+02  0.45594000000E+02  0.51100000000E-03 0.  1.
         11   -1    0    0    0    0 -0.00000000000E+00 -0.00000000000E+00 -0.45593999997E+02  0.45594000000E+02  0.51100000000E-03 0. -1.
    9900012    2    1    2    0    0 -0.70659238814E+01 -0.13717149455E+01  0.17287874076E+02  0.72461562211E+02  0.69999989471E+02 0.  0.
         12    1    1    2    0    0  0.70659238814E+01  0.13717149455E+01 -0.17287874076E+02  0.18726437789E+02  0.00000000000E+00 0. -1.
         11    1    3    3    0    0 -0.25922710185E+02 -0.18765926251E+02  0.13795398470E+01  0.32032015575E+02  0.51100000000E-03 0. -1.
        -11    1    3    3    0    0  0.25683505162E+02  0.11656455244E+02  0.12931981483E+02  0.31028237649E+02  0.51100000000E-03 0.  1.
        -12    1    3    3    0    0 -0.68267188591E+01  0.57377560611E+01  0.29763527457E+01  0.94013089867E+01  0.00000000000E+00 0.  1.
</event>
<event>
 7    1  0.1283194E-013  0.7246153E+02  0.7816164E-02  0.1226708E+00
        -11   -1    0    0    0    0  0.00000000000E+00  0.00000000000E+00  0.45593999997E+02  0.45594000000E+02  0.51100000000E-03 0. -1.
         11   -1    0    0    0    0 -0.00000000000E+00 -0.00000000000E+00 -0.45593999997E+02  0.45594000000E+02  0.51100000000E-03 0.  1.
    9900012    2    1    2    0    0  0.12148706766E+02  0.14152681444E+02  0.16706415356E+01  0.72461534469E+02  0.69999953330E+02 0.  0.
         12    1    1    2    0    0 -0.12148706766E+02 -0.14152681444E+02 -0.16706415356E+01  0.18726465531E+02  0.00000000000E+00 0. -1.
         11    1    3    3    0    0 -0.16236849266E+02  0.23967840098E+02  0.37921393956E+01  0.29197139492E+02  0.51100000000E-03 0. -1.
        -11    1    3    3    0    0  0.22401659460E+02 -0.12791699573E+02  0.11383190346E+02  0.28196435010E+02  0.51100000000E-03 0.  1.
        -12    1    3    3    0    0  0.59838965723E+01  0.29765409194E+01 -0.13504688206E+02  0.15067959967E+02  0.00000000000E+00 0.  1.
</event>
<event>
 7    1  0.1283194E-013  0.7246169E+02  0.7816164E-02  0.1226708E+00
        -11   -1    0    0    0    0  0.00000000000E+00  0.00000000000E+00  0.45593999997E+02  0.45594000000E+02  0.51100000000E-03 0.  1.
         11   -1    0    0    0    0 -0.00000000000E+00 -0.00000000000E+00 -0.45593999997E+02  0.45594000000E+02  0.51100000000E-03 0. -1.
    9900012    2    1    2    0    0 -0.31215988954E+01 -0.16152225996E+02  0.89462716949E+01  0.72461693329E+02  0.70000160276E+02 0.  0.
         12    1    1    2    0    0  0.31215988954E+01  0.16152225996E+02 -0.89462716949E+01  0.18726306671E+02  0.00000000000E+00 0. -1.
         11    1    3    3    0    0 -0.81236283378E+00  0.51481645847E+01 -0.27326301572E+02  0.27818883691E+02  0.51100000000E-03 0. -1.
        -11    1    3    3    0    0  0.37114745897E+01 -0.17364833402E+02  0.19392586964E+02  0.26294199211E+02  0.51100000000E-03 0.  1.
         12    1    3    3    0    0 -0.60207106513E+01 -0.39355571785E+01  0.16879986302E+02  0.18348610427E+02  0.00000000000E+00 0. -1.
</event>
<event>
 7    1  0.1283194E-013  0.7246153E+02  0.7816164E-02  0.1226708E+00
        -11   -1    0    0    0    0  0.00000000000E+00  0.00000000000E+00  0.45593999997E+02  0.45594000000E+02  0.51100000000E-03 0. -1.
         11   -1    0    0    0    0 -0.00000000000E+00 -0.00000000000E+00 -0.45593999997E+02  0.45594000000E+02  0.51100000000E-03 0.  1.
    9900012    2    1    2    0    0 -0.14509328732E+02  0.11596956130E+02  0.23813025838E+01  0.72461531734E+02  0.69999949767E+02 0.  0.
         12    1    1    2    0    0  0.14509328732E+02 -0.11596956130E+02 -0.23813025838E+01  0.18726468266E+02  0.00000000000E+00 0. -1.
         11    1    3    3    0    0 -0.33985108563E+02  0.75888968730E+01  0.16191458264E+02  0.38402373374E+02  0.51100000000E-03 0.  1.
        -11    1    3    3    0    0  0.14384057898E+02  0.98622289542E+01 -0.18148389081E+02  0.25169996187E+02  0.51100000000E-03 0. -1.
         12    1    3    3    0    0  0.50917219323E+01 -0.58541696973E+01  0.43382334014E+01  0.88891621723E+01  0.00000000000E+00 0. -1.
</event>
<event>
 7    1  0.1283194E-013  0.7246145E+02  0.7816164E-02  0.1226708E+00
        -11   -1    0    0    0    0  0.00000000000E+00  0.00000000000E+00  0.45593999997E+02  0.45594000000E+02  0.51100000000E-03 0.  1.
         11   -1    0    0    0    0 -0.00000000000E+00 -0.00000000000E+00 -0.45593999997E+02  0.45594000000E+02  0.51100000000E-03 0. -1.
    9900012    2    1    2    0    0 -0.12842562480E+01 -0.14545840011E+01  0.18625752945E+02  0.72461446620E+02  0.69999838892E+02 0.  0.
         12    1    1    2    0    0  0.12842562480E+01  0.14545840011E+01 -0.18625752945E+02  0.18726553380E+02  0.00000000000E+00 0. -1.
         11    1    3    3    0    0 -0.50227221879E+01  0.22899045632E+01 -0.15023500341E+02  0.16005529164E+02  0.51100000000E-03 0. -1.
        -11    1    3    3    0    0 -0.14708376799E+02  0.88322473032E+01  0.28932632244E+02  0.33636916466E+02  0.51100000000E-03 0.  1.
         12    1    3    3    0    0  0.18446842739E+02 -0.12576735867E+02  0.47166210409E+01  0.22819000990E+02  0.00000000000E+00 0. -1.
</event>
<event>
 7    1  0.1283194E-013  0.7246149E+02  0.7816164E-02  0.1226708E+00
        -11   -1    0    0    0    0  0.00000000000E+00  0.00000000000E+00  0.45593999997E+02  0.45594000000E+02  0.51100000000E-03 0. -1.
         11   -1    0    0    0    0 -0.00000000000E+00 -0.00000000000E+00 -0.45593999997E+02  0.45594000000E+02  0.51100000000E-03 0.  1.
    9900012    2    1    2    0    0 -0.62038300586E+01 -0.27324049701E+01 -0.17456476451E+02  0.72461491666E+02  0.69999897572E+02 0.  0.
         12    1    1    2    0    0  0.62038300586E+01  0.27324049701E+01  0.17456476451E+02  0.18726508334E+02  0.00000000000E+00 0. -1.
         11    1    3    3    0    0 -0.11133273003E+02 -0.41704420950E+01  0.21848492817E+02  0.24873660641E+02  0.51100000000E-03 0. -1.
        -11    1    3    3    0    0 -0.79327774110E+01 -0.65793113238E+01 -0.89102773536E+01  0.13623851795E+02  0.51100000000E-03 0.  1.
         12    1    3    3    0    0  0.12862220355E+02  0.80173484487E+01 -0.30394691914E+02  0.33963979230E+02  0.00000000000E+00 0. -1.
</event>
<event>
 7    1  0.1283194E-013  0.7246161E+02  0.7816164E-02  0.1226708E+00
        -11   -1    0    0    0    0  0.00000000000E+00  0.00000000000E+00  0.45593999997E+02  0.45594000000E+02  0.51100000000E-03 0.  1.
         11   -1    0    0    0    0 -0.00000000000E+00 -0.00000000000E+00 -0.45593999997E+02  0.45594000000E+02  0.51100000000E-03 0. -1.
    9900012    2    1    2    0    0  0.17267065890E+02 -0.18313316265E+01  0.70123045682E+01  0.72461608053E+02  0.70000049188E+02 0.  0.
         12    1    1    2    0    0 -0.17267065890E+02  0.18313316265E+01 -0.70123045682E+01  0.18726391947E+02  0.00000000000E+00 0. -1.
         11    1    3    3    0    0  0.18945276713E+02  0.15427573190E+02  0.99829524660E+01  0.26393045759E+02  0.51100000000E-03 0. -1.
        -11    1    3    3    0    0  0.40844661980E+01 -0.28768595754E+02  0.68794346011E+01  0.29860368157E+02  0.51100000000E-03 0.  1.
        -12    1    3    3    0    0 -0.57626770208E+01  0.11509690938E+02 -0.98500824990E+01  0.16208194137E+02  0.00000000000E+00 0.  1.
</event>
<event>
 7    1  0.1283194E-013  0.7246158E+02  0.7816164E-02  0.1226708E+00
        -11   -1    0    0    0    0  0.00000000000E+00  0.00000000000E+00  0.45593999997E+02  0.45594000000E+02  0.51100000000E-03 0.  1.
         11   -1    0    0    0    0 -0.00000000000E+00 -0.00000000000E+00 -0.45593999997E+02  0.45594000000E+02  0.51100000000E-03 0. -1.
    9900012    2    1    2    0    0  0.91862922088E+00  0.84490498627E+01  0.16686776029E+02  0.72461579695E+02  0.70000012246E+02 0.  0.
         12    1    1    2    0    0 -0.91862922088E+00 -0.84490498627E+01 -0.16686776029E+02  0.18726420305E+02  0.00000000000E+00 0. -1.
         11    1    3    3    0    0  0.19280806406E+02  0.37916758209E+01  0.21403511000E+02  0.29055749596E+02  0.51100000000E-03 0. -1.
        -11    1    3    3    0    0 -0.46337295850E+01 -0.15944425841E+02 -0.80023169863E+01  0.18431854022E+02  0.51100000000E-03 0.  1.
         12    1    3    3    0    0 -0.13728447600E+02  0.20601799883E+02  0.32855820148E+01  0.24973976077E+02  0.00000000000E+00 0. -1.
</event>
<event>
 7    1  0.1283194E-013  0.7246155E+02  0.7816164E-02  0.1226708E+00
        -11   -1    0    0    0    0  0.00000000000E+00  0.00000000000E+00  0.45593999997E+02  0.45594000000E+02  0.51100000000E-03 0.  1.
         11   -1    0    0    0    0 -0.00000000000E+00 -0.00000000000E+00 -0.45593999997E+02  0.45594000000E+02  0.51100000000E-03 0. -1.
    9900012    2    1    2    0    0 -0.89476174915E+01 -0.61262175905E+01  0.15267273876E+02  0.72461546722E+02  0.69999969293E+02 0.  0.
         12    1    1    2    0    0  0.89476174915E+01  0.61262175905E+01 -0.15267273876E+02  0.18726453278E+02  0.00000000000E+00 0. -1.
         11    1    3    3    0    0 -0.37884167560E+01  0.45930233380E+01 -0.12196583166E+02  0.13572199751E+02  0.51100000000E-03 0. -1.
        -11    1    3    3    0    0 -0.26914743759E+01  0.11600117792E+02  0.33569205746E+02  0.35618791975E+02  0.51100000000E-03 0.  1.
        -12    1    3    3    0    0 -0.24677263596E+01 -0.22319358720E+02 -0.61053487036E+01  0.23270554997E+02  0.00000000000E+00 0.  1.
</event>
<event>
 7    1  0.1283194E-013  0.7246156E+02  0.7816164E-02  0.1226708E+00
        -11   -1    0    0    0    0  0.00000000000E+00  0.00000000000E+00  0.45593999997E+02  0.45594000000E+02  0.51100000000E-03 0.  1.
         11   -1    0    0    0    0 -0.00000000000E+00 -0.00000000000E+00 -0.45593999997E+02  0.45594000000E+02  0.51100000000E-03 0. -1.
    9900012    2    1    2    0    0 -0.10885893212E+02  0.13636383466E+02  0.67989695648E+01  0.72461558475E+02  0.69999984603E+02 0.  0.
         12    1    1    2    0    0  0.10885893212E+02 -0.13636383466E+02 -0.67989695648E+01  0.18726441525E+02  0.00000000000E+00 0. -1.
         11    1    3    3    0    0 -0.23791376870E+00  0.19311085574E+02  0.26673359713E+02  0.32930878330E+02  0.51100000000E-03 0. -1.
        -11    1    3    3    0    0  0.32497169428E+00 -0.11554912075E+02  0.43046182599E+01  0.12334964057E+02  0.51100000000E-03 0.  1.
         12    1    3    3    0    0 -0.10972951137E+02  0.58802099676E+01 -0.24179008408E+02  0.27195716087E+02  0.00000000000E+00 0. -1.
</event>
<event>
 7    1  0.1283194E-013  0.7246158E+02  0.7816164E-02  0.1226708E+00
        -11   -1    0    0    0    0  0.00000000000E+00  0.00000000000E+00  0.45593999997E+02  0.45594000000E+02  0.51100000000E-03 0.  1.
         11   -1    0    0    0    0 -0.00000000000E+00 -0.00000000000E+00 -0.45593999997E+02  0.45594000000E+02  0.51100000000E-03 0. -1.
    9900012    2    1    2    0    0  0.33032691608E+01 -0.16646097024E+02 -0.79167319080E+01  0.72461580765E+02  0.70000013640E+02 0.  0.
         12    1    1    2    0    0 -0.33032691608E+01  0.16646097024E+02  0.79167319080E+01  0.18726419235E+02  0.00000000000E+00 0. -1.
         11    1    3    3    0    0 -0.38767785234E+01 -0.35637503609E+02 -0.19213337966E+02  0.40672022710E+02  0.51100000000E-03 0. -1.
        -11    1    3    3    0    0  0.74233960839E+01  0.13539923742E+02  0.17625625467E+02  0.23432861919E+02  0.51100000000E-03 0.  1.
         12    1    3    3    0    0 -0.24334839973E+00  0.54514828437E+01 -0.63290194087E+01  0.83566961363E+01  0.00000000000E+00 0. -1.
</event>
<event>
 7    1  0.1283194E-013  0.7246153E+02  0.7816164E-02  0.1226708E+00
        -11   -1    0    0    0    0  0.00000000000E+00  0.00000000000E+00  0.45593999997E+02  0.45594000000E+02  0.51100000000E-03 0. -1.
         11   -1    0    0    0    0 -0.00000000000E+00 -0.00000000000E+00 -0.45593999997E+02  0.45594000000E+02  0.51100000000E-03 0.  1.
    9900012    2    1    2    0    0 -0.14672118338E+02 -0.10839843411E+02 -0.42317081285E+01  0.72461531689E+02  0.69999949710E+02 0.  0.
         12    1    1    2    0    0  0.14672118338E+02  0.10839843411E+02  0.42317081285E+01  0.18726468311E+02  0.00000000000E+00 0. -1.
         11    1    3    3    0    0 -0.27158998556E+02 -0.10496540683E+02  0.10468708647E+02  0.30941597081E+02  0.51100000000E-03 0. -1.
        -11    1    3    3    0    0 -0.69161386562E+00  0.14591574815E+02 -0.15867574769E+02  0.21567853732E+02  0.51100000000E-03 0.  1.
         12    1    3    3    0    0  0.13178494084E+02 -0.14934877542E+02  0.11671579932E+01  0.19952080876E+02  0.00000000000E+00 0. -1.
</event>
<event>
 7    1  0.1283194E-013  0.7246154E+02  0.7816164E-02  0.1226708E+00
        -11   -1    0    0    0    0  0.00000000000E+00  0.00000000000E+00  0.45593999997E+02  0.45594000000E+02  0.51100000000E-03 0.  1.
         11   -1    0    0    0    0 -0.00000000000E+00 -0.00000000000E+00 -0.45593999997E+02  0.45594000000E+02  0.51100000000E-03 0. -1.
    9900012    2    1    2    0    0 -0.12773472550E+02  0.13392947853E+02 -0.28544113884E+01  0.72461539642E+02  0.69999960069E+02 0.  0.
         12    1    1    2    0    0  0.12773472550E+02 -0.13392947853E+02  0.28544113884E+01  0.18726460358E+02  0.00000000000E+00 0. -1.
         11    1    3    3    0    0 -0.36402543214E+01  0.19918235712E+02  0.78520449899E+01  0.21717324333E+02  0.51100000000E-03 0. -1.
        -11    1    3    3    0    0 -0.16216238382E+02 -0.87690352612E+00 -0.27342314691E+02  0.31801533296E+02  0.51100000000E-03 0.  1.
        -12    1    3    3    0    0  0.70830201530E+01 -0.56483843330E+01  0.16635858312E+02  0.18942682013E+02  0.00000000000E+00 0.  1.
</event>
<event>
 7    1  0.1283194E-013  0.7246155E+02  0.7816164E-02  0.1226708E+00
        -11   -1    0    0    0    0  0.00000000000E+00  0.00000000000E+00  0.45593999997E+02  0.45594000000E+02  0.51100000000E-03 0. -1.
         11   -1    0    0    0    0 -0.00000000000E+00 -0.00000000000E+00 -0.45593999997E+02  0.45594000000E+02  0.51100000000E-03 0.  1.
    9900012    2    1    2    0    0 -0.28644272278E+01  0.10281233645E+02 -0.15387366408E+02  0.72461554699E+02  0.69999979685E+02 0.  0.
         12    1    1    2    0    0  0.28644272278E+01 -0.10281233645E+02  0.15387366408E+02  0.18726445301E+02  0.00000000000E+00 0. -1.
         11    1    3    3    0    0 -0.29656966680E+02  0.14726367447E+02  0.27758680899E-01  0.33111966744E+02  0.51100000000E-03 0. -1.
        -11    1    3    3    0    0  0.20086330261E+02  0.83438329924E+01 -0.87376111375E+01  0.23439839185E+02  0.51100000000E-03 0.  1.
         12    1    3    3    0    0  0.67062091905E+01 -0.12788966794E+02 -0.66775139518E+01  0.15909748771E+02  0.00000000000E+00 0. -1.
</event>
<event>
 7    1  0.1283194E-013  0.7246157E+02  0.7816164E-02  0.1226708E+00
        -11   -1    0    0    0    0  0.00000000000E+00  0.00000000000E+00  0.45593999997E+02  0.45594000000E+02  0.51100000000E-03 0. -1.
         11   -1    0    0    0    0 -0.00000000000E+00 -0.00000000000E+00 -0.45593999997E+02  0.45594000000E+02  0.51100000000E-03 0.  1.
    9900012    2    1    2    0    0 -0.18138695932E+02  0.45186582604E+01 -0.11173652138E+01  0.72461573015E+02  0.70000003544E+02 0.  0.
         12    1    1    2    0    0  0.18138695932E+02 -0.45186582604E+01  0.11173652138E+01  0.18726426985E+02  0.00000000000E+00 0. -1.
         11    1    3    3    0    0 -0.27888772717E+01 -0.69710670576E+01  0.15026898115E+02  0.16798252278E+02  0.51100000000E-03 0. -1.
        -11    1    3    3    0    0 -0.21570890055E+02 -0.10812786534E+02 -0.21020777991E+02  0.32001449310E+02  0.51100000000E-03 0.  1.
        -12    1    3    3    0    0  0.62210713941E+01  0.22302511852E+02  0.48765146614E+01  0.23661871427E+02  0.00000000000E+00 0.  1.
</event>
<event>
 7    1  0.1283194E-013  0.7246161E+02  0.7816164E-02  0.1226708E+00
        -11   -1    0    0    0    0  0.00000000000E+00  0.00000000000E+00  0.45593999997E+02  0.45594000000E+02  0.51100000000E-03 0.  1.
         11   -1    0    0    0    0 -0.00000000000E+00 -0.00000000000E+00 -0.45593999997E+02  0.45594000000E+02  0.51100000000E-03 0. -1.
    9900012    2    1    2    0    0 -0.13252802879E+02 -0.11650885744E+02  0.62687948082E+01  0.72461609234E+02  0.70000050727E+02 0.  0.
         12    1    1    2    0    0  0.13252802879E+02  0.11650885744E+02 -0.62687948082E+01  0.18726390766E+02  0.00000000000E+00 0. -1.
         11    1    3    3    0    0 -0.23268428131E+02 -0.28402136764E+02 -0.15429986928E+02  0.39826945870E+02  0.51100000000E-03 0. -1.
        -11    1    3    3    0    0  0.53360845438E+01  0.52977147000E+01 -0.15573410244E+00  0.75208930769E+01  0.51100000000E-03 0.  1.
         12    1    3    3    0    0  0.46795407086E+01  0.11453536321E+02  0.21854515839E+02  0.25113770287E+02  0.00000000000E+00 0. -1.
</event>
<event>
 7    1  0.1283194E-013  0.7246180E+02  0.7816164E-02  0.1226707E+00
        -11   -1    0    0    0    0  0.00000000000E+00  0.00000000000E+00  0.45593999997E+02  0.45594000000E+02  0.51100000000E-03 0.  1.
         11   -1    0    0    0    0 -0.00000000000E+00 -0.00000000000E+00 -0.45593999997E+02  0.45594000000E+02  0.51100000000E-03 0. -1.
    9900012    2    1    2    0    0  0.76328762081E+01 -0.21089124228E+01  0.16969446147E+02  0.72461804088E+02  0.70000304558E+02 0.  0.
         12    1    1    2    0    0 -0.76328762081E+01  0.21089124228E+01 -0.16969446147E+02  0.18726195912E+02  0.00000000000E+00 0. -1.
         11    1    3    3    0    0 -0.69528625441E+01  0.24267596691E+02  0.38548939020E+01  0.25536615946E+02  0.51100000000E-03 0. -1.
        -11    1    3    3    0    0  0.16604910365E+02 -0.88780697194E+01  0.20490997150E+02  0.27828477045E+02  0.51100000000E-03 0.  1.
         12    1    3    3    0    0 -0.20191716132E+01 -0.17498439395E+02 -0.73764449053E+01  0.19096711096E+02  0.00000000000E+00 0. -1.
</event>
<event>
 7    1  0.1283194E-013  0.7246156E+02  0.7816164E-02  0.1226708E+00
        -11   -1    0    0    0    0  0.00000000000E+00  0.00000000000E+00  0.45593999997E+02  0.45594000000E+02  0.51100000000E-03 0. -1.
         11   -1    0    0    0    0 -0.00000000000E+00 -0.00000000000E+00 -0.45593999997E+02  0.45594000000E+02  0.51100000000E-03 0.  1.
    9900012    2    1    2    0    0  0.13946039684E+02  0.17159464926E+01 -0.12379132848E+02  0.72461563465E+02  0.69999991103E+02 0.  0.
         12    1    1    2    0    0 -0.13946039684E+02 -0.17159464926E+01  0.12379132848E+02  0.18726436535E+02  0.00000000000E+00 0. -1.
         11    1    3    3    0    0 -0.15705304596E+02  0.95775048236E+01 -0.22761952574E+02  0.29265879046E+02  0.51100000000E-03 0. -1.
        -11    1    3    3    0    0  0.25312255637E+02 -0.10702269637E+02 -0.41241610577E+01  0.27789522586E+02  0.51100000000E-03 0.  1.
         12    1    3    3    0    0  0.43390886427E+01  0.28407113063E+01  0.14506980784E+02  0.15406161833E+02  0.00000000000E+00 0. -1.
</event>
<event>
 7    1  0.1283194E-013  0.7246161E+02  0.7816164E-02  0.1226708E+00
        -11   -1    0    0    0    0  0.00000000000E+00  0.00000000000E+00  0.45593999997E+02  0.45594000000E+02  0.51100000000E-03 0.  1.
         11   -1    0    0    0    0 -0.00000000000E+00 -0.00000000000E+00 -0.45593999997E+02  0.45594000000E+02  0.51100000000E-03 0. -1.
    9900012    2    1    2    0    0  0.25889563262E+01  0.13472170821E+02  0.12746594897E+02  0.72461607850E+02  0.70000048923E+02 0.  0.
         12    1    1    2    0    0 -0.25889563262E+01 -0.13472170821E+02 -0.12746594897E+02  0.18726392150E+02  0.00000000000E+00 0. -1.
         11    1    3    3    0    0 -0.98301840384E+01  0.36342424738E+02  0.13009579796E+01  0.37670901847E+02  0.51100000000E-03 0. -1.
        -11    1    3    3    0    0  0.13842064784E+02 -0.85485612069E+01  0.12266404036E+02  0.20375115323E+02  0.51100000000E-03 0.  1.
         12    1    3    3    0    0 -0.14229244193E+01 -0.14321692710E+02 -0.82076711947E+00  0.14415590680E+02  0.00000000000E+00 0. -1.
</event>
<event>
 7    1  0.1283194E-013  0.7246161E+02  0.7816164E-02  0.1226708E+00
        -11   -1    0    0    0    0  0.00000000000E+00  0.00000000000E+00  0.45593999997E+02  0.45594000000E+02  0.51100000000E-03 0. -1.
         11   -1    0    0    0    0 -0.00000000000E+00 -0.00000000000E+00 -0.45593999997E+02  0.45594000000E+02  0.51100000000E-03 0.  1.
    9900012    2    1    2    0    0 -0.42657776261E+01  0.13287781955E+02 -0.12486616093E+02  0.72461612481E+02  0.70000054956E+02 0.  0.
         12    1    1    2    0    0  0.42657776261E+01 -0.13287781955E+02  0.12486616093E+02  0.18726387519E+02  0.00000000000E+00 0. -1.
         11    1    3    3    0    0 -0.17207547412E+00  0.29220195196E+00  0.26198721234E+02  0.26200915757E+02  0.51100000000E-03 0. -1.
        -11    1    3    3    0    0 -0.10573894277E+02  0.14616795947E+02 -0.32424863385E+02  0.37105656303E+02  0.51100000000E-03 0.  1.
         12    1    3    3    0    0  0.64801921246E+01 -0.16212159445E+01 -0.62604739432E+01  0.91550404206E+01  0.00000000000E+00 0. -1.
</event>
<event>
 7    1  0.1283194E-013  0.7246157E+02  0.7816164E-02  0.1226708E+00
        -11   -1    0    0    0    0  0.00000000000E+00  0.00000000000E+00  0.45593999997E+02  0.45594000000E+02  0.51100000000E-03 0. -1.
         11   -1    0    0    0    0 -0.00000000000E+00 -0.00000000000E+00 -0.45593999997E+02  0.45594000000E+02  0.51100000000E-03 0.  1.
    9900012    2    1    2    0    0  0.18001259708E+02  0.28833872130E+01 -0.42801779766E+01  0.72461569577E+02  0.69999999065E+02 0.  0.
         12    1    1    2    0    0 -0.18001259708E+02 -0.28833872130E+01  0.42801779766E+01  0.18726430423E+02  0.00000000000E+00 0. -1.
         11    1    3    3    0    0  0.10937394353E+00 -0.23090813805E+02 -0.38253857560E+01  0.23405794609E+02  0.51100000000E-03 0. -1.
        -11    1    3    3    0    0 -0.39784940138E+01  0.26870555076E+02 -0.65190859755E-01  0.27163567417E+02  0.51100000000E-03 0.  1.
         12    1    3    3    0    0  0.21870379778E+02 -0.89635405773E+00 -0.38960136076E+00  0.21892207551E+02  0.00000000000E+00 0. -1.
</event>
<event>
 7    1  0.1283194E-013  0.7246130E+02  0.7816164E-02  0.1226709E+00
        -11   -1    0    0    0    0  0.00000000000E+00  0.00000000000E+00  0.45593999997E+02  0.45594000000E+02  0.51100000000E-03 0.  1.
         11   -1    0    0    0    0 -0.00000000000E+00 -0.00000000000E+00 -0.45593999997E+02  0.45594000000E+02  0.51100000000E-03 0. -1.
    9900012    2    1    2    0    0 -0.76617140395E+01  0.15939723783E+02 -0.61573259620E+01  0.72461299295E+02  0.69999646972E+02 0.  0.
         12    1    1    2    0    0  0.76617140395E+01 -0.15939723783E+02  0.61573259620E+01  0.18726700705E+02  0.00000000000E+00 0. -1.
         11    1    3    3    0    0 -0.26322512715E+02  0.46959395454E+01  0.15485783643E+02  0.30898802875E+02  0.51100000000E-03 0.  1.
        -11    1    3    3    0    0  0.24191455668E+02  0.21531706873E+01 -0.18297034745E+02  0.30407961984E+02  0.51100000000E-03 0. -1.
         12    1    3    3    0    0 -0.55306569920E+01  0.90906135505E+01 -0.33460748596E+01  0.11154534435E+02  0.00000000000E+00 0. -1.
</event>
<event>
 7    1  0.1283194E-013  0.7246154E+02  0.7816164E-02  0.1226708E+00
        -11   -1    0    0    0    0  0.00000000000E+00  0.00000000000E+00  0.45593999997E+02  0.45594000000E+02  0.51100000000E-03 0.  1.
         11   -1    0    0    0    0 -0.00000000000E+00 -0.00000000000E+00 -0.45593999997E+02  0.45594000000E+02  0.51100000000E-03 0. -1.
    9900012    2    1    2    0    0 -0.98230235890E+01 -0.15392359839E+02 -0.41549501203E+01  0.72461544266E+02  0.69999966093E+02 0.  0.
         12    1    1    2    0    0  0.98230235890E+01  0.15392359839E+02  0.41549501203E+01  0.18726455734E+02  0.00000000000E+00 0. -1.
         11    1    3    3    0    0 -0.28507693040E+02 -0.64260148246E+01  0.11205462303E+02  0.31297677464E+02  0.51100000000E-03 0. -1.
        -11    1    3    3    0    0  0.27115325209E+02 -0.31438803423E+01 -0.76734108813E+01  0.28355000963E+02  0.51100000000E-03 0.  1.
         12    1    3    3    0    0 -0.84306557579E+01 -0.58224646725E+01 -0.76870015420E+01  0.12808865839E+02  0.00000000000E+00 0. -1.
</event>
<event>
 7    1  0.1283194E-013  0.7246164E+02  0.7816164E-02  0.1226708E+00
        -11   -1    0    0    0    0  0.00000000000E+00  0.00000000000E+00  0.45593999997E+02  0.45594000000E+02  0.51100000000E-03 0.  1.
         11   -1    0    0    0    0 -0.00000000000E+00 -0.00000000000E+00 -0.45593999997E+02  0.45594000000E+02  0.51100000000E-03 0. -1.
    9900012    2    1    2    0    0 -0.83432839009E+01 -0.63848816626E+01  0.15501595055E+02  0.72461640254E+02  0.70000091135E+02 0.  0.
         12    1    1    2    0    0  0.83432839009E+01  0.63848816626E+01 -0.15501595055E+02  0.18726359746E+02  0.00000000000E+00 0. -1.
         11    1    3    3    0    0  0.62420464982E+01 -0.24673467480E+02  0.31585395984E+02  0.40563288596E+02  0.51100000000E-03 0. -1.
        -11    1    3    3    0    0 -0.13513226408E+02  0.18404377044E+02 -0.86964237090E+01  0.24432686466E+02  0.51100000000E-03 0.  1.
        -12    1    3    3    0    0 -0.10721039907E+01 -0.11579122605E+00 -0.73873772203E+01  0.74656651927E+01  0.00000000000E+00 0.  1.
</event>
<event>
 7    1  0.1283194E-013  0.7246154E+02  0.7816164E-02  0.1226708E+00
        -11   -1    0    0    0    0  0.00000000000E+00  0.00000000000E+00  0.45593999997E+02  0.45594000000E+02  0.51100000000E-03 0.  1.
         11   -1    0    0    0    0 -0.00000000000E+00 -0.00000000000E+00 -0.45593999997E+02  0.45594000000E+02  0.51100000000E-03 0. -1.
    9900012    2    1    2    0    0  0.11379129226E+02  0.14840844072E+02 -0.97223764967E+00  0.72461535284E+02  0.69999954392E+02 0.  0.
         12    1    1    2    0    0 -0.11379129226E+02 -0.14840844072E+02  0.97223764967E+00  0.18726464716E+02  0.00000000000E+00 0. -1.
         11    1    3    3    0    0  0.19609052138E+02 -0.15683061068E+02 -0.10547190850E+02  0.27234473839E+02  0.51100000000E-03 0. -1.
        -11    1    3    3    0    0  0.31702886463E+01  0.22261028663E+02  0.18014264556E+02  0.28811765913E+02  0.51100000000E-03 0.  1.
        -12    1    3    3    0    0 -0.11400211558E+02  0.82628764770E+01 -0.84393113563E+01  0.16415295532E+02  0.00000000000E+00 0.  1.
</event>
<event>
 7    1  0.1283194E-013  0.7246157E+02  0.7816164E-02  0.1226708E+00
        -11   -1    0    0    0    0  0.00000000000E+00  0.00000000000E+00  0.45593999997E+02  0.45594000000E+02  0.51100000000E-03 0.  1.
         11   -1    0    0    0    0 -0.00000000000E+00 -0.00000000000E+00 -0.45593999997E+02  0.45594000000E+02  0.51100000000E-03 0. -1.
    9900012    2    1    2    0    0 -0.13455370181E+02  0.96242919234E+01  0.87752619047E+01  0.72461569394E+02  0.69999998827E+02 0.  0.
         12    1    1    2    0    0  0.13455370181E+02 -0.96242919234E+01 -0.87752619047E+01  0.18726430606E+02  0.00000000000E+00 0. -1.
         11    1    3    3    0    0  0.55282500468E+01 -0.27069941286E+02  0.57780856303E+00  0.27634708842E+02  0.51100000000E-03 0.  1.
        -11    1    3    3    0    0 -0.12316288963E+02  0.35023283776E+02  0.78368907534E+01  0.37943882738E+02  0.51100000000E-03 0. -1.
        -12    1    3    3    0    0 -0.66673312650E+01  0.16709494330E+01  0.36056258826E+00  0.68829778138E+01  0.00000000000E+00 0.  1.
</event>
<event>
 7    1  0.1283194E-013  0.7246158E+02  0.7816164E-02  0.1226708E+00
        -11   -1    0    0    0    0  0.00000000000E+00  0.00000000000E+00  0.45593999997E+02  0.45594000000E+02  0.51100000000E-03 0. -1.
         11   -1    0    0    0    0 -0.00000000000E+00 -0.00000000000E+00 -0.45593999997E+02  0.45594000000E+02  0.51100000000E-03 0.  1.
    9900012    2    1    2    0    0 -0.14450499631E+02  0.11236273128E+02 -0.39506964025E+01  0.72461580816E+02  0.70000013706E+02 0.  0.
         12    1    1    2    0    0  0.14450499631E+02 -0.11236273128E+02  0.39506964025E+01  0.18726419184E+02  0.00000000000E+00 0. -1.
         11    1    3    3    0    0 -0.70210493883E+01 -0.75821844184E+01  0.15455713615E+02  0.18592034280E+02  0.51100000000E-03 0. -1.
        -11    1    3    3    0    0 -0.22604400259E+02  0.24863721594E+02 -0.10189943572E+02  0.35114078556E+02  0.51100000000E-03 0.  1.
        -12    1    3    3    0    0  0.15174950016E+02 -0.60452640472E+01 -0.92164664456E+01  0.18755467980E+02  0.00000000000E+00 0.  1.
</event>
<event>
 7    1  0.1283194E-013  0.7246168E+02  0.7816164E-02  0.1226708E+00
        -11   -1    0    0    0    0  0.00000000000E+00  0.00000000000E+00  0.45593999997E+02  0.45594000000E+02  0.51100000000E-03 0.  1.
         11   -1    0    0    0    0 -0.00000000000E+00 -0.00000000000E+00 -0.45593999997E+02  0.45594000000E+02  0.51100000000E-03 0. -1.
    9900012    2    1    2    0    0  0.22637463728E+01  0.96376336651E+01  0.15895490910E+02  0.72461677308E+02  0.70000139405E+02 0.  0.
         12    1    1    2    0    0 -0.22637463728E+01 -0.96376336651E+01 -0.15895490910E+02  0.18726322692E+02  0.00000000000E+00 0. -1.
         11    1    3    3    0    0  0.28280756818E+00 -0.17075395408E+01 -0.18902130380E+02  0.18981206616E+02  0.51100000000E-03 0. -1.
        -11    1    3    3    0    0 -0.32800988529E+00 -0.82834484337E+01  0.32550058645E+02  0.33589126611E+02  0.51100000000E-03 0.  1.
        -12    1    3    3    0    0  0.23089486899E+01  0.19628621640E+02  0.22475626461E+01  0.19891344082E+02  0.00000000000E+00 0.  1.
</event>
<event>
 7    1  0.1283194E-013  0.7246153E+02  0.7816164E-02  0.1226708E+00
        -11   -1    0    0    0    0  0.00000000000E+00  0.00000000000E+00  0.45593999997E+02  0.45594000000E+02  0.51100000000E-03 0.  1.
         11   -1    0    0    0    0 -0.00000000000E+00 -0.00000000000E+00 -0.45593999997E+02  0.45594000000E+02  0.51100000000E-03 0. -1.
    9900012    2    1    2    0    0 -0.27345075802E+01  0.51020846058E+01  0.17809321170E+02  0.72461528908E+02  0.69999946086E+02 0.  0.
         12    1    1    2    0    0  0.27345075802E+01 -0.51020846058E+01 -0.17809321170E+02  0.18726471092E+02  0.00000000000E+00 0. -1.
         11    1    3    3    0    0 -0.76519313119E+01 -0.44243104902E+01 -0.20668571827E+02  0.22479244599E+02  0.51100000000E-03 0. -1.
        -11    1    3    3    0    0  0.12449540362E+02  0.87548043224E+01  0.39510657950E+02  0.42340639413E+02  0.51100000000E-03 0.  1.
        -12    1    3    3    0    0 -0.75321166307E+01  0.77159077362E+00 -0.10327649533E+01  0.76416448956E+01  0.00000000000E+00 0.  1.
</event>
<event>
 7    1  0.1283194E-013  0.7246133E+02  0.7816164E-02  0.1226709E+00
        -11   -1    0    0    0    0  0.00000000000E+00  0.00000000000E+00  0.45593999997E+02  0.45594000000E+02  0.51100000000E-03 0.  1.
         11   -1    0    0    0    0 -0.00000000000E+00 -0.00000000000E+00 -0.45593999997E+02  0.45594000000E+02  0.51100000000E-03 0. -1.
    9900012    2    1    2    0    0  0.90378072771E+01 -0.16395241611E+02 -0.44968886108E+00  0.72461331104E+02  0.69999688410E+02 0.  0.
         12    1    1    2    0    0 -0.90378072771E+01  0.16395241611E+02  0.44968886108E+00  0.18726668896E+02  0.00000000000E+00 0. -1.
         11    1    3    3    0    0  0.58058625269E+00  0.33395109279E+01 -0.21441335365E+01  0.40108256654E+01  0.51100000000E-03 0. -1.
        -11    1    3    3    0    0  0.31290931927E+02 -0.25208056441E+02  0.13211013574E+02  0.42297747107E+02  0.51100000000E-03 0.  1.
        -12    1    3    3    0    0 -0.22833710903E+02  0.54733039020E+01 -0.11516568898E+02  0.26152758332E+02  0.00000000000E+00 0.  1.
</event>
<event>
 7    1  0.1283194E-013  0.7246163E+02  0.7816164E-02  0.1226708E+00
        -11   -1    0    0    0    0  0.00000000000E+00  0.00000000000E+00  0.45593999997E+02  0.45594000000E+02  0.51100000000E-03 0. -1.
         11   -1    0    0    0    0 -0.00000000000E+00 -0.00000000000E+00 -0.45593999997E+02  0.45594000000E+02  0.51100000000E-03 0.  1.
    9900012    2    1    2    0    0  0.57090685521E+01 -0.15160629805E+02 -0.93935465905E+01  0.72461631496E+02  0.70000079726E+02 0.  0.
         12    1    1    2    0    0 -0.57090685521E+01  0.15160629805E+02  0.93935465905E+01  0.18726368504E+02  0.00000000000E+00 0. -1.
         11    1    3    3    0    0 -0.17244883084E+02  0.13677034075E+02 -0.12439104938E+02  0.25281981441E+02  0.51100000000E-03 0. -1.
        -11    1    3    3    0    0  0.66399520393E+01 -0.26119340019E+02 -0.69799866681E+01  0.27839344465E+02  0.51100000000E-03 0.  1.
        -12    1    3    3    0    0  0.16313999597E+02 -0.27183238616E+01  0.10025545015E+02  0.19340305590E+02  0.00000000000E+00 0.  1.
</event>
<event>
 7    1  0.1283194E-013  0.7246157E+02  0.7816164E-02  0.1226708E+00
        -11   -1    0    0    0    0  0.00000000000E+00  0.00000000000E+00  0.45593999997E+02  0.45594000000E+02  0.51100000000E-03 0. -1.
         11   -1    0    0    0    0 -0.00000000000E+00 -0.00000000000E+00 -0.45593999997E+02  0.45594000000E+02  0.51100000000E-03 0.  1.
    9900012    2    1    2    0    0  0.12630557976E+02  0.90861582241E+01 -0.10420652375E+02  0.72461567826E+02  0.69999996785E+02 0.  0.
         12    1    1    2    0    0 -0.12630557976E+02 -0.90861582241E+01  0.10420652375E+02  0.18726432174E+02  0.00000000000E+00 0. -1.
         11    1    3    3    0    0 -0.26248604921E+02 -0.71310171444E+01 -0.11952999516E+02  0.29710517726E+02  0.51100000000E-03 0. -1.
        -11    1    3    3    0    0  0.20096712344E+02  0.46826848611E+01  0.17437656018E+01  0.20708599742E+02  0.51100000000E-03 0.  1.
         12    1    3    3    0    0  0.18782450553E+02  0.11534490507E+02 -0.21141846024E+00  0.22042450358E+02  0.00000000000E+00 0. -1.
</event>
<event>
 7    1  0.1283194E-013  0.7246163E+02  0.7816164E-02  0.1226708E+00
        -11   -1    0    0    0    0  0.00000000000E+00  0.00000000000E+00  0.45593999997E+02  0.45594000000E+02  0.51100000000E-03 0. -1.
         11   -1    0    0    0    0 -0.00000000000E+00 -0.00000000000E+00 -0.45593999997E+02  0.45594000000E+02  0.51100000000E-03 0.  1.
    9900012    2    1    2    0    0  0.11523435046E+02 -0.31006987298E+01 -0.14431668366E+02  0.72461629831E+02  0.70000077557E+02 0.  0.
         12    1    1    2    0    0 -0.11523435046E+02  0.31006987298E+01  0.14431668366E+02  0.18726370169E+02  0.00000000000E+00 0. -1.
         11    1    3    3    0    0  0.11221042076E+02  0.14718414989E+02 -0.96711668431E+00  0.18533182134E+02  0.51100000000E-03 0. -1.
        -11    1    3    3    0    0 -0.22331146830E+01 -0.31339561650E+02 -0.21430923198E+02  0.38032083759E+02  0.51100000000E-03 0.  1.
        -12    1    3    3    0    0  0.25355076525E+01  0.13520447932E+02  0.79663715163E+01  0.15896363938E+02  0.00000000000E+00 0.  1.
</event>
<event>
 7    1  0.1283194E-013  0.7246156E+02  0.7816164E-02  0.1226708E+00
        -11   -1    0    0    0    0  0.00000000000E+00  0.00000000000E+00  0.45593999997E+02  0.45594000000E+02  0.51100000000E-03 0.  1.
         11   -1    0    0    0    0 -0.00000000000E+00 -0.00000000000E+00 -0.45593999997E+02  0.45594000000E+02  0.51100000000E-03 0. -1.
    9900012    2    1    2    0    0  0.16280201739E+02 -0.44989191096E+01 -0.80866827443E+01  0.72461556674E+02  0.69999982257E+02 0.  0.
         12    1    1    2    0    0 -0.16280201739E+02  0.44989191096E+01  0.80866827443E+01  0.18726443326E+02  0.00000000000E+00 0. -1.
         11    1    3    3    0    0  0.32558422882E+02  0.75364210002E+01 -0.22489635371E+02  0.40281909605E+02  0.51100000000E-03 0. -1.
        -11    1    3    3    0    0 -0.47000170059E+01  0.22214198732E+01  0.12714487041E+02  0.13736194782E+02  0.51100000000E-03 0.  1.
         12    1    3    3    0    0 -0.11578204136E+02 -0.14256759983E+02  0.16884655862E+01  0.18443452287E+02  0.00000000000E+00 0. -1.
</event>
<event>
 7    1  0.1283194E-013  0.7246159E+02  0.7816164E-02  0.1226708E+00
        -11   -1    0    0    0    0  0.00000000000E+00  0.00000000000E+00  0.45593999997E+02  0.45594000000E+02  0.51100000000E-03 0.  1.
         11   -1    0    0    0    0 -0.00000000000E+00 -0.00000000000E+00 -0.45593999997E+02  0.45594000000E+02  0.51100000000E-03 0. -1.
    9900012    2    1    2    0    0  0.16654304410E+02 -0.27391406611E+01  0.81123162730E+01  0.72461590247E+02  0.70000025992E+02 0.  0.
         12    1    1    2    0    0 -0.16654304410E+02  0.27391406611E+01 -0.81123162730E+01  0.18726409753E+02  0.00000000000E+00 0. -1.
         11    1    3    3    0    0  0.27411787251E+02  0.37346962455E+01 -0.84025826550E+01  0.28912928455E+02  0.51100000000E-03 0. -1.
        -11    1    3    3    0    0 -0.19084785894E+02  0.39553599637E+01 -0.31899186788E+01  0.19749671048E+02  0.51100000000E-03 0.  1.
        -12    1    3    3    0    0  0.83273030531E+01 -0.10429196870E+02  0.19704817607E+02  0.23798990744E+02  0.00000000000E+00 0.  1.
</event>
<event>
 7    1  0.1283194E-013  0.7246164E+02  0.7816164E-02  0.1226708E+00
        -11   -1    0    0    0    0  0.00000000000E+00  0.00000000000E+00  0.45593999997E+02  0.45594000000E+02  0.51100000000E-03 0. -1.
         11   -1    0    0    0    0 -0.00000000000E+00 -0.00000000000E+00 -0.45593999997E+02  0.45594000000E+02  0.51100000000E-03 0.  1.
    9900012    2    1    2    0    0  0.14830819306E+02  0.87383067958E+01 -0.73732831896E+01  0.72461641252E+02  0.70000092436E+02 0.  0.
         12    1    1    2    0    0 -0.14830819306E+02 -0.87383067958E+01  0.73732831896E+01  0.18726358748E+02  0.00000000000E+00 0. -1.
         11    1    3    3    0    0  0.33564875468E+02 -0.88569558634E+01 -0.59329401727E+01  0.35217130941E+02  0.51100000000E-03 0.  1.
        -11    1    3    3    0    0 -0.20171619312E+02  0.21004450128E+02  0.52575843041E+01  0.29592623132E+02  0.51100000000E-03 0. -1.
         12    1    3    3    0    0  0.14375631503E+01 -0.34091874690E+01 -0.66979273210E+01  0.76518871795E+01  0.00000000000E+00 0. -1.
</event>
<event>
 7    1  0.1283194E-013  0.7246157E+02  0.7816164E-02  0.1226708E+00
        -11   -1    0    0    0    0  0.00000000000E+00  0.00000000000E+00  0.45593999997E+02  0.45594000000E+02  0.51100000000E-03 0. -1.
         11   -1    0    0    0    0 -0.00000000000E+00 -0.00000000000E+00 -0.45593999997E+02  0.45594000000E+02  0.51100000000E-03 0.  1.
    9900012    2    1    2    0    0 -0.97223051878E+01 -0.15770925219E+02  0.27265099664E+01  0.72461570628E+02  0.70000000435E+02 0.  0.
         12    1    1    2    0    0  0.97223051878E+01  0.15770925219E+02 -0.27265099664E+01  0.18726429372E+02  0.00000000000E+00 0. -1.
         11    1    3    3    0    0  0.87128133447E+01 -0.38769432469E+02  0.71757920024E+01  0.40379128290E+02  0.51100000000E-03 0.  1.
        -11    1    3    3    0    0 -0.58213074876E+01  0.16652238063E+02 -0.29032828743E+01  0.17877743289E+02  0.51100000000E-03 0. -1.
         12    1    3    3    0    0 -0.12613811045E+02  0.63462691872E+01 -0.15459991618E+01  0.14204699049E+02  0.00000000000E+00 0. -1.
</event>
<event>
 7    1  0.1283194E-013  0.7246156E+02  0.7816164E-02  0.1226708E+00
        -11   -1    0    0    0    0  0.00000000000E+00  0.00000000000E+00  0.45593999997E+02  0.45594000000E+02  0.51100000000E-03 0.  1.
         11   -1    0    0    0    0 -0.00000000000E+00 -0.00000000000E+00 -0.45593999997E+02  0.45594000000E+02  0.51100000000E-03 0. -1.
    9900012    2    1    2    0    0 -0.54167183319E+01  0.15271066313E+02  0.93879249847E+01  0.72461563090E+02  0.69999990615E+02 0.  0.
         12    1    1    2    0    0  0.54167183319E+01 -0.15271066313E+02 -0.93879249847E+01  0.18726436910E+02  0.00000000000E+00 0. -1.
         11    1    3    3    0    0 -0.12331636396E+02  0.39573028527E+01  0.12898538712E+00  0.12951684816E+02  0.51100000000E-03 0. -1.
        -11    1    3    3    0    0  0.15260849359E+01  0.34695438829E+02  0.41353829914E+01  0.34974330637E+02  0.51100000000E-03 0.  1.
        -12    1    3    3    0    0  0.53888331286E+01 -0.23381675369E+02  0.51235566062E+01  0.24535547637E+02  0.00000000000E+00 0.  1.
</event>
<event>
 7    1  0.1283194E-013  0.7246174E+02  0.7816164E-02  0.1226708E+00
        -11   -1    0    0    0    0  0.00000000000E+00  0.00000000000E+00  0.45593999997E+02  0.45594000000E+02  0.51100000000E-03 0.  1.
         11   -1    0    0    0    0 -0.00000000000E+00 -0.00000000000E+00 -0.45593999997E+02  0.45594000000E+02  0.51100000000E-03 0. -1.
    9900012    2    1    2    0    0 -0.19117192532E+01 -0.76965113684E+01  0.16964138538E+02  0.72461736249E+02  0.70000216186E+02 0.  0.
         12    1    1    2    0    0  0.19117192532E+01  0.76965113684E+01 -0.16964138538E+02  0.18726263751E+02  0.00000000000E+00 0. -1.
         11    1    3    3    0    0  0.16858217697E+02 -0.15985045182E+02  0.69880405379E+01  0.24260129517E+02  0.51100000000E-03 0. -1.
        -11    1    3    3    0    0 -0.30334297544E+02 -0.26090115492E+01  0.10761607764E+02  0.32292239790E+02  0.51100000000E-03 0.  1.
         12    1    3    3    0    0  0.11564360594E+02  0.10897545362E+02 -0.78550976403E+00  0.15909366941E+02  0.00000000000E+00 0. -1.
</event>
<event>
 7    1  0.1283194E-013  0.7246157E+02  0.7816164E-02  0.1226708E+00
        -11   -1    0    0    0    0  0.00000000000E+00  0.00000000000E+00  0.45593999997E+02  0.45594000000E+02  0.51100000000E-03 0. -1.
         11   -1    0    0    0    0 -0.00000000000E+00 -0.00000000000E+00 -0.45593999997E+02  0.45594000000E+02  0.51100000000E-03 0.  1.
    9900012    2    1    2    0    0  0.47991566688E+01  0.17856365257E+02 -0.29660262132E+01  0.72461574916E+02  0.70000006020E+02 0.  0.
         12    1    1    2    0    0 -0.47991566688E+01 -0.17856365257E+02  0.29660262132E+01  0.18726425084E+02  0.00000000000E+00 0. -1.
         11    1    3    3    0    0 -0.14562343630E+02 -0.41107752456E+01 -0.10105259329E+02  0.18195510201E+02  0.51100000000E-03 0. -1.
        -11    1    3    3    0    0  0.27830077638E+02 -0.14211134366E+01 -0.15717778035E+01  0.27910630062E+02  0.51100000000E-03 0.  1.
        -12    1    3    3    0    0 -0.84685773391E+01  0.23388253940E+02  0.87110109193E+01  0.26355434653E+02  0.00000000000E+00 0.  1.
</event>
<event>
 7    1  0.1283194E-013  0.7246154E+02  0.7816164E-02  0.1226708E+00
        -11   -1    0    0    0    0  0.00000000000E+00  0.00000000000E+00  0.45593999997E+02  0.45594000000E+02  0.51100000000E-03 0.  1.
         11   -1    0    0    0    0 -0.00000000000E+00 -0.00000000000E+00 -0.45593999997E+02  0.45594000000E+02  0.51100000000E-03 0. -1.
    9900012    2    1    2    0    0 -0.78800800837E+01  0.50613453436E+01  0.16216268960E+02  0.72461541237E+02  0.69999962148E+02 0.  0.
         12    1    1    2    0    0  0.78800800837E+01 -0.50613453436E+01 -0.16216268960E+02  0.18726458763E+02  0.00000000000E+00 0. -1.
         11    1    3    3    0    0 -0.14542159871E+02  0.17517231710E+01 -0.21711827078E+02  0.26190578136E+02  0.51100000000E-03 0. -1.
        -11    1    3    3    0    0  0.15492233401E+02  0.58995722102E+01  0.18937445238E+02  0.25168255411E+02  0.51100000000E-03 0.  1.
         12    1    3    3    0    0 -0.88301536140E+01 -0.25899500377E+01  0.18990650800E+02  0.21102707690E+02  0.00000000000E+00 0. -1.
</event>
<event>
 7    1  0.1283194E-013  0.7246157E+02  0.7816164E-02  0.1226708E+00
        -11   -1    0    0    0    0  0.00000000000E+00  0.00000000000E+00  0.45593999997E+02  0.45594000000E+02  0.51100000000E-03 0. -1.
         11   -1    0    0    0    0 -0.00000000000E+00 -0.00000000000E+00 -0.45593999997E+02  0.45594000000E+02  0.51100000000E-03 0.  1.
    9900012    2    1    2    0    0 -0.11535207578E+02  0.10859536278E+02 -0.99844249179E+01  0.72461567265E+02  0.69999996053E+02 0.  0.
         12    1    1    2    0    0  0.11535207578E+02 -0.10859536278E+02  0.99844249179E+01  0.18726432735E+02  0.00000000000E+00 0. -1.
         11    1    3    3    0    0  0.93604866069E+01  0.24104979562E+02 -0.12745042743E+02  0.28828889399E+02  0.51100000000E-03 0. -1.
        -11    1    3    3    0    0 -0.18614916169E+02 -0.11239777206E+02  0.17916589991E+02  0.28175377420E+02  0.51100000000E-03 0.  1.
        -12    1    3    3    0    0 -0.22807780159E+01 -0.20056660773E+01 -0.15155972165E+02  0.15457300445E+02  0.00000000000E+00 0.  1.
</event>
<event>
 7    1  0.1283194E-013  0.7246156E+02  0.7816164E-02  0.1226708E+00
        -11   -1    0    0    0    0  0.00000000000E+00  0.00000000000E+00  0.45593999997E+02  0.45594000000E+02  0.51100000000E-03 0.  1.
         11   -1    0    0    0    0 -0.00000000000E+00 -0.00000000000E+00 -0.45593999997E+02  0.45594000000E+02  0.51100000000E-03 0. -1.
    9900012    2    1    2    0    0  0.61376363618E+01  0.56872621033E+00  0.17682911192E+02  0.72461564733E+02  0.69999992755E+02 0.  0.
         12    1    1    2    0    0 -0.61376363618E+01 -0.56872621033E+00 -0.17682911192E+02  0.18726435267E+02  0.00000000000E+00 0. -1.
         11    1    3    3    0    0  0.11145148808E+02 -0.10161332317E+02 -0.19515855019E+02  0.24664460541E+02  0.51100000000E-03 0. -1.
        -11    1    3    3    0    0 -0.90241818152E+01  0.89196672574E+01  0.40403511887E+02  0.42349027079E+02  0.51100000000E-03 0.  1.
         12    1    3    3    0    0  0.40166693686E+01  0.18103912703E+01 -0.32047456769E+01  0.54480771123E+01  0.00000000000E+00 0. -1.
</event>
<event>
 7    1  0.1283194E-013  0.7246161E+02  0.7816164E-02  0.1226708E+00
        -11   -1    0    0    0    0  0.00000000000E+00  0.00000000000E+00  0.45593999997E+02  0.45594000000E+02  0.51100000000E-03 0.  1.
         11   -1    0    0    0    0 -0.00000000000E+00 -0.00000000000E+00 -0.45593999997E+02  0.45594000000E+02  0.51100000000E-03 0. -1.
    9900012    2    1    2    0    0 -0.14123745133E+02 -0.88646370160E+01  0.85214965519E+01  0.72461605006E+02  0.70000045218E+02 0.  0.
         12    1    1    2    0    0  0.14123745133E+02  0.88646370160E+01 -0.85214965519E+01  0.18726394994E+02  0.00000000000E+00 0. -1.
         11    1    3    3    0    0 -0.38711042016E+01  0.23098188969E+02 -0.11822935055E+02  0.26235349721E+02  0.51100000000E-03 0. -1.
        -11    1    3    3    0    0  0.30828267442E+01 -0.21021846553E+00  0.96988595195E+01  0.10179189004E+02  0.51100000000E-03 0.  1.
         12    1    3    3    0    0 -0.13335467675E+02 -0.31752607519E+02  0.10645572088E+02  0.36047066281E+02  0.00000000000E+00 0. -1.
</event>
<event>
 7    1  0.1283194E-013  0.7246155E+02  0.7816164E-02  0.1226708E+00
        -11   -1    0    0    0    0  0.00000000000E+00  0.00000000000E+00  0.45593999997E+02  0.45594000000E+02  0.51100000000E-03 0.  1.
         11   -1    0    0    0    0 -0.00000000000E+00 -0.00000000000E+00 -0.45593999997E+02  0.45594000000E+02  0.51100000000E-03 0. -1.
    9900012    2    1    2    0    0 -0.11037633456E+02 -0.28286444945E+01 -0.14861002100E+02  0.72461549044E+02  0.69999972317E+02 0.  0.
         12    1    1    2    0    0  0.11037633456E+02  0.28286444945E+01  0.14861002100E+02  0.18726450956E+02  0.00000000000E+00 0. -1.
         11    1    3    3    0    0  0.42934384508E+01  0.41520792191E+01 -0.32092179199E+01  0.67802990710E+01  0.51100000000E-03 0. -1.
        -11    1    3    3    0    0 -0.29818114238E+01 -0.23480671157E+02  0.17883847563E+02  0.29665891546E+02  0.51100000000E-03 0.  1.
        -12    1    3    3    0    0 -0.12349260483E+02  0.16499947443E+02 -0.29535631743E+02  0.36015358426E+02  0.00000000000E+00 0.  1.
</event>
<event>
 7    1  0.1283194E-013  0.7246155E+02  0.7816164E-02  0.1226708E+00
        -11   -1    0    0    0    0  0.00000000000E+00  0.00000000000E+00  0.45593999997E+02  0.45594000000E+02  0.51100000000E-03 0.  1.
         11   -1    0    0    0    0 -0.00000000000E+00 -0.00000000000E+00 -0.45593999997E+02  0.45594000000E+02  0.51100000000E-03 0. -1.
    9900012    2    1    2    0    0  0.13632816301E+02  0.10563469582E+02  0.72965299490E+01  0.72461550278E+02  0.69999973925E+02 0.  0.
         12    1    1    2    0    0 -0.13632816301E+02 -0.10563469582E+02 -0.72965299490E+01  0.18726449722E+02  0.00000000000E+00 0. -1.
         11    1    3    3    0    0  0.12242828362E+01  0.38981623171E+01  0.26831773759E+02  0.27141087326E+02  0.51100000000E-03 0. -1.
        -11    1    3    3    0    0  0.23104935722E+02  0.14700872166E+02 -0.14800325598E+02  0.31128818403E+02  0.51100000000E-03 0.  1.
         12    1    3    3    0    0 -0.10696402257E+02 -0.80355649014E+01 -0.47349182121E+01  0.14191644549E+02  0.00000000000E+00 0. -1.
</event>
<event>
 7    1  0.1283194E-013  0.7246160E+02  0.7816164E-02  0.1226708E+00
        -11   -1    0    0    0    0  0.00000000000E+00  0.00000000000E+00  0.45593999997E+02  0.45594000000E+02  0.51100000000E-03 0.  1.
         11   -1    0    0    0    0 -0.00000000000E+00 -0.00000000000E+00 -0.45593999997E+02  0.45594000000E+02  0.51100000000E-03 0. -1.
    9900012    2    1    2    0    0 -0.11567497079E+02 -0.41697869240E+01  0.14123882397E+02  0.72461597098E+02  0.70000034917E+02 0.  0.
         12    1    1    2    0    0  0.11567497079E+02  0.41697869240E+01 -0.14123882397E+02  0.18726402902E+02  0.00000000000E+00 0. -1.
         11    1    3    3    0    0  0.11541121854E+02  0.94805754875E+01 -0.10233550052E+02  0.18105368048E+02  0.51100000000E-03 0. -1.
        -11    1    3    3    0    0 -0.15003466218E+02 -0.26832974055E+02  0.78491999495E+01  0.31728889601E+02  0.51100000000E-03 0.  1.
         12    1    3    3    0    0 -0.81051527150E+01  0.13182611643E+02  0.16508232500E+02  0.22627339449E+02  0.00000000000E+00 0. -1.
</event>
<event>
 7    1  0.1283194E-013  0.7246150E+02  0.7816164E-02  0.1226708E+00
        -11   -1    0    0    0    0  0.00000000000E+00  0.00000000000E+00  0.45593999997E+02  0.45594000000E+02  0.51100000000E-03 0.  1.
         11   -1    0    0    0    0 -0.00000000000E+00 -0.00000000000E+00 -0.45593999997E+02  0.45594000000E+02  0.51100000000E-03 0. -1.
    9900012    2    1    2    0    0  0.13365391743E+02 -0.10463963642E+02  0.79090910286E+01  0.72461495990E+02  0.69999903205E+02 0.  0.
         12    1    1    2    0    0 -0.13365391743E+02  0.10463963642E+02 -0.79090910286E+01  0.18726504010E+02  0.00000000000E+00 0. -1.
         11    1    3    3    0    0  0.10172601499E+02 -0.20415102542E+02 -0.12578658054E+02  0.26047665380E+02  0.51100000000E-03 0. -1.
        -11    1    3    3    0    0  0.61960429784E+01  0.22791991453E+02  0.19986202387E+01  0.23703592684E+02  0.51100000000E-03 0.  1.
         12    1    3    3    0    0 -0.30032527347E+01 -0.12840852553E+02  0.18489128844E+02  0.22710237926E+02  0.00000000000E+00 0. -1.
</event>
<event>
 7    1  0.1283194E-013  0.7246157E+02  0.7816164E-02  0.1226708E+00
        -11   -1    0    0    0    0  0.00000000000E+00  0.00000000000E+00  0.45593999997E+02  0.45594000000E+02  0.51100000000E-03 0.  1.
         11   -1    0    0    0    0 -0.00000000000E+00 -0.00000000000E+00 -0.45593999997E+02  0.45594000000E+02  0.51100000000E-03 0. -1.
    9900012    2    1    2    0    0 -0.17649121385E+02  0.45343104124E+01  0.43160018801E+01  0.72461566042E+02  0.69999994460E+02 0.  0.
         12    1    1    2    0    0  0.17649121385E+02 -0.45343104124E+01 -0.43160018801E+01  0.18726433958E+02  0.00000000000E+00 0. -1.
         11    1    3    3    0    0 -0.51088188409E+01  0.72438777307E+01 -0.21879014997E+02  0.23606462929E+02  0.51100000000E-03 0. -1.
        -11    1    3    3    0    0 -0.28917589221E+01  0.13536671714E+02  0.26566218042E+02  0.29956096075E+02  0.51100000000E-03 0.  1.
        -12    1    3    3    0    0 -0.96485436215E+01 -0.16246239032E+02 -0.37120116444E+00  0.18899007038E+02  0.00000000000E+00 0.  1.
</event>
<event>
 7    1  0.1283194E-013  0.7246155E+02  0.7816164E-02  0.1226708E+00
        -11   -1    0    0    0    0  0.00000000000E+00  0.00000000000E+00  0.45593999997E+02  0.45594000000E+02  0.51100000000E-03 0. -1.
         11   -1    0    0    0    0 -0.00000000000E+00 -0.00000000000E+00 -0.45593999997E+02  0.45594000000E+02  0.51100000000E-03 0.  1.
    9900012    2    1    2    0    0  0.91773491997E+01 -0.15447702315E+02 -0.52749035692E+01  0.72461552051E+02  0.69999976234E+02 0.  0.
         12    1    1    2    0    0 -0.91773491997E+01  0.15447702315E+02  0.52749035692E+01  0.18726447949E+02  0.00000000000E+00 0. -1.
         11    1    3    3    0    0  0.25945019027E+02 -0.20988366705E+02  0.29229614074E+01  0.33499242572E+02  0.51100000000E-03 0. -1.
        -11    1    3    3    0    0 -0.18038036177E+01  0.18539207484E+00 -0.19421223071E+02  0.19505691056E+02  0.51100000000E-03 0.  1.
         12    1    3    3    0    0 -0.14963866210E+02  0.53552723154E+01  0.11223358095E+02  0.19456618423E+02  0.00000000000E+00 0. -1.
</event>
<event>
 7    1  0.1283194E-013  0.7246155E+02  0.7816164E-02  0.1226708E+00
        -11   -1    0    0    0    0  0.00000000000E+00  0.00000000000E+00  0.45593999997E+02  0.45594000000E+02  0.51100000000E-03 0.  1.
         11   -1    0    0    0    0 -0.00000000000E+00 -0.00000000000E+00 -0.45593999997E+02  0.45594000000E+02  0.51100000000E-03 0. -1.
    9900012    2    1    2    0    0  0.12977029205E+02 -0.12593411246E+02  0.48664985598E+01  0.72461545396E+02  0.69999967565E+02 0.  0.
         12    1    1    2    0    0 -0.12977029205E+02  0.12593411246E+02 -0.48664985598E+01  0.18726454604E+02  0.00000000000E+00 0. -1.
         11    1    3    3    0    0  0.13621534532E+02  0.11555937855E+01  0.19246350995E+02  0.23607279108E+02  0.51100000000E-03 0.  1.
        -11    1    3    3    0    0  0.15574450387E+02 -0.13265536865E+02 -0.22750579799E+02  0.30596190198E+02  0.51100000000E-03 0. -1.
         12    1    3    3    0    0 -0.16218955714E+02 -0.48346816681E+00  0.83707273638E+01  0.18258076090E+02  0.00000000000E+00 0. -1.
</event>
<event>
 7    1  0.1283194E-013  0.7246158E+02  0.7816164E-02  0.1226708E+00
        -11   -1    0    0    0    0  0.00000000000E+00  0.00000000000E+00  0.45593999997E+02  0.45594000000E+02  0.51100000000E-03 0.  1.
         11   -1    0    0    0    0 -0.00000000000E+00 -0.00000000000E+00 -0.45593999997E+02  0.45594000000E+02  0.51100000000E-03 0. -1.
    9900012    2    1    2    0    0 -0.15271563816E+02  0.64311342242E+01  0.87234643001E+01  0.72461575403E+02  0.70000006654E+02 0.  0.
         12    1    1    2    0    0  0.15271563816E+02 -0.64311342242E+01 -0.87234643001E+01  0.18726424597E+02  0.00000000000E+00 0. -1.
         11    1    3    3    0    0 -0.13800842264E+02  0.86563979362E+01 -0.15385034236E+02  0.22407493192E+02  0.51100000000E-03 0. -1.
        -11    1    3    3    0    0  0.96054280293E+01  0.93033504741E+01  0.30135039875E+02  0.32968730734E+02  0.51100000000E-03 0.  1.
        -12    1    3    3    0    0 -0.11076149581E+02 -0.11528614186E+02 -0.60265413388E+01  0.17085351478E+02  0.00000000000E+00 0.  1.
</event>
<event>
 7    1  0.1283194E-013  0.7246154E+02  0.7816164E-02  0.1226708E+00
        -11   -1    0    0    0    0  0.00000000000E+00  0.00000000000E+00  0.45593999997E+02  0.45594000000E+02  0.51100000000E-03 0. -1.
         11   -1    0    0    0    0 -0.00000000000E+00 -0.00000000000E+00 -0.45593999997E+02  0.45594000000E+02  0.51100000000E-03 0.  1.
    9900012    2    1    2    0    0  0.10847422510E+02  0.14674964204E+02 -0.42022584879E+01  0.72461544759E+02  0.69999966736E+02 0.  0.
         12    1    1    2    0    0 -0.10847422510E+02 -0.14674964204E+02  0.42022584879E+01  0.18726455241E+02  0.00000000000E+00 0. -1.
         11    1    3    3    0    0 -0.64712971810E+01 -0.28100642807E+01  0.87345429043E+01  0.11227928949E+02  0.51100000000E-03 0. -1.
        -11    1    3    3    0    0  0.64803791310E+01  0.33074382947E+02 -0.21945193628E+02  0.40218175551E+02  0.51100000000E-03 0.  1.
        -12    1    3    3    0    0  0.10838340560E+02 -0.15589354462E+02  0.90083922355E+01  0.21015440260E+02  0.00000000000E+00 0.  1.
</event>
<event>
 7    1  0.1283194E-013  0.7246142E+02  0.7816164E-02  0.1226708E+00
        -11   -1    0    0    0    0  0.00000000000E+00  0.00000000000E+00  0.45593999997E+02  0.45594000000E+02  0.51100000000E-03 0.  1.
         11   -1    0    0    0    0 -0.00000000000E+00 -0.00000000000E+00 -0.45593999997E+02  0.45594000000E+02  0.51100000000E-03 0. -1.
    9900012    2    1    2    0    0 -0.98826183563E+01 -0.85247166077E+01  0.13429360604E+02  0.72461423563E+02  0.69999808855E+02 0.  0.
         12    1    1    2    0    0  0.98826183563E+01  0.85247166077E+01 -0.13429360604E+02  0.18726576437E+02  0.00000000000E+00 0. -1.
         11    1    3    3    0    0 -0.12120504265E+02  0.24398619206E+02  0.44495296516E+00  0.27246967284E+02  0.51100000000E-03 0. -1.
        -11    1    3    3    0    0  0.78152107751E+01 -0.14149723839E+02  0.18791249347E+02  0.24787159104E+02  0.51100000000E-03 0.  1.
         12    1    3    3    0    0 -0.55773248666E+01 -0.18773611974E+02 -0.58068417077E+01  0.20427297174E+02  0.00000000000E+00 0. -1.
</event>
<event>
 7    1  0.1283194E-013  0.7246154E+02  0.7816164E-02  0.1226708E+00
        -11   -1    0    0    0    0  0.00000000000E+00  0.00000000000E+00  0.45593999997E+02  0.45594000000E+02  0.51100000000E-03 0.  1.
         11   -1    0    0    0    0 -0.00000000000E+00 -0.00000000000E+00 -0.45593999997E+02  0.45594000000E+02  0.51100000000E-03 0. -1.
    9900012    2    1    2    0    0  0.16140769752E+02  0.72500087394E+01 -0.61313258550E+01  0.72461541935E+02  0.69999963057E+02 0.  0.
         12    1    1    2    0    0 -0.16140769752E+02 -0.72500087394E+01  0.61313258550E+01  0.18726458065E+02  0.00000000000E+00 0. -1.
         11    1    3    3    0    0 -0.17847180754E+02  0.50004355061E+01  0.39689887587E+00  0.18538709369E+02  0.51100000000E-03 0. -1.
        -11    1    3    3    0    0  0.10116031314E+02 -0.18703475542E+02 -0.62318050632E+01  0.22158282459E+02  0.51100000000E-03 0.  1.
         12    1    3    3    0    0  0.23871919192E+02  0.20953048776E+02 -0.29641966762E+00  0.31764550107E+02  0.00000000000E+00 0. -1.
</event>
<event>
 7    1  0.1283194E-013  0.7246165E+02  0.7816164E-02  0.1226708E+00
        -11   -1    0    0    0    0  0.00000000000E+00  0.00000000000E+00  0.45593999997E+02  0.45594000000E+02  0.51100000000E-03 0. -1.
         11   -1    0    0    0    0 -0.00000000000E+00 -0.00000000000E+00 -0.45593999997E+02  0.45594000000E+02  0.51100000000E-03 0.  1.
    9900012    2    1    2    0    0 -0.35460266700E+01 -0.17651033118E+02  0.51519891053E+01  0.72461647792E+02  0.70000100955E+02 0.  0.
         12    1    1    2    0    0  0.35460266700E+01  0.17651033118E+02 -0.51519891053E+01  0.18726352208E+02  0.00000000000E+00 0. -1.
         11    1    3    3    0    0  0.69740953885E+01  0.22546921066E+02  0.15771166409E+02  0.28385407276E+02  0.51100000000E-03 0. -1.
        -11    1    3    3    0    0 -0.46151665007E+01 -0.33305785145E+02 -0.72612108414E+01  0.34399131808E+02  0.51100000000E-03 0.  1.
         12    1    3    3    0    0 -0.59049555578E+01 -0.68921690385E+01 -0.33579664628E+01  0.96771087087E+01  0.00000000000E+00 0. -1.
</event>
<event>
 7    1  0.1283194E-013  0.7246153E+02  0.7816164E-02  0.1226708E+00
        -11   -1    0    0    0    0  0.00000000000E+00  0.00000000000E+00  0.45593999997E+02  0.45594000000E+02  0.51100000000E-03 0. -1.
         11   -1    0    0    0    0 -0.00000000000E+00 -0.00000000000E+00 -0.45593999997E+02  0.45594000000E+02  0.51100000000E-03 0.  1.
    9900012    2    1    2    0    0 -0.72917780797E+01 -0.16079839596E+02 -0.62409394184E+01  0.72461532265E+02  0.69999950460E+02 0.  0.
         12    1    1    2    0    0  0.72917780797E+01  0.16079839596E+02  0.62409394184E+01  0.18726467735E+02  0.00000000000E+00 0. -1.
         11    1    3    3    0    0  0.15983240398E+02 -0.19786449369E+02  0.16762352352E+02  0.30462173410E+02  0.51100000000E-03 0. -1.
        -11    1    3    3    0    0 -0.18174831061E+02 -0.24625625883E+01 -0.75662782518E+00  0.18356502514E+02  0.51100000000E-03 0.  1.
         12    1    3    3    0    0 -0.51001874158E+01  0.61691723613E+01 -0.22246663945E+02  0.23642856342E+02  0.00000000000E+00 0. -1.
</event>
<event>
 7    1  0.1283194E-013  0.7246162E+02  0.7816164E-02  0.1226708E+00
        -11   -1    0    0    0    0  0.00000000000E+00  0.00000000000E+00  0.45593999997E+02  0.45594000000E+02  0.51100000000E-03 0.  1.
         11   -1    0    0    0    0 -0.00000000000E+00 -0.00000000000E+00 -0.45593999997E+02  0.45594000000E+02  0.51100000000E-03 0. -1.
    9900012    2    1    2    0    0  0.16376478749E+02 -0.39454081916E+01  0.81805819157E+01  0.72461622280E+02  0.70000067722E+02 0.  0.
         12    1    1    2    0    0 -0.16376478749E+02  0.39454081916E+01 -0.81805819157E+01  0.18726377720E+02  0.00000000000E+00 0. -1.
         11    1    3    3    0    0 -0.50694418469E+01 -0.12383450535E+02  0.50044240266E+01  0.14286124313E+02  0.51100000000E-03 0. -1.
        -11    1    3    3    0    0  0.39170642824E+02  0.42759269670E+01 -0.13063417307E+01  0.39424983699E+02  0.51100000000E-03 0.  1.
        -12    1    3    3    0    0 -0.17724722229E+02  0.41621153761E+01  0.44824996198E+01  0.18750514268E+02  0.00000000000E+00 0.  1.
</event>
<event>
 7    1  0.1283194E-013  0.7246160E+02  0.7816164E-02  0.1226708E+00
        -11   -1    0    0    0    0  0.00000000000E+00  0.00000000000E+00  0.45593999997E+02  0.45594000000E+02  0.51100000000E-03 0.  1.
         11   -1    0    0    0    0 -0.00000000000E+00 -0.00000000000E+00 -0.45593999997E+02  0.45594000000E+02  0.51100000000E-03 0. -1.
    9900012    2    1    2    0    0  0.15137721748E+02 -0.11021121634E+02 -0.24935568516E+00  0.72461603656E+02  0.70000043459E+02 0.  0.
         12    1    1    2    0    0 -0.15137721748E+02  0.11021121634E+02  0.24935568516E+00  0.18726396344E+02  0.00000000000E+00 0. -1.
         11    1    3    3    0    0 -0.87748747267E+00  0.21476056403E+02 -0.19844313276E+02  0.29253850218E+02  0.51100000000E-03 0. -1.
        -11    1    3    3    0    0  0.43620983047E+01 -0.18094361022E+02  0.41080370343E+01  0.19060686529E+02  0.51100000000E-03 0.  1.
         12    1    3    3    0    0  0.11653110916E+02 -0.14402817015E+02  0.15486920557E+02  0.24147066909E+02  0.00000000000E+00 0. -1.
</event>
<event>
 7    1  0.1283194E-013  0.7246152E+02  0.7816164E-02  0.1226708E+00
        -11   -1    0    0    0    0  0.00000000000E+00  0.00000000000E+00  0.45593999997E+02  0.45594000000E+02  0.51100000000E-03 0.  1.
         11   -1    0    0    0    0 -0.00000000000E+00 -0.00000000000E+00 -0.45593999997E+02  0.45594000000E+02  0.51100000000E-03 0. -1.
    9900012    2    1    2    0    0  0.10679372048E+02 -0.88133338881E+01  0.12607819484E+02  0.72461522657E+02  0.69999937943E+02 0.  0.
         12    1    1    2    0    0 -0.10679372048E+02  0.88133338881E+01 -0.12607819484E+02  0.18726477343E+02  0.00000000000E+00 0. -1.
         11    1    3    3    0    0  0.72364491488E+00 -0.28953779411E+01 -0.22696881683E+02  0.22892254449E+02  0.51100000000E-03 0. -1.
        -11    1    3    3    0    0  0.33412956702E+01 -0.16802165413E+02  0.69534742413E+01  0.18488586306E+02  0.51100000000E-03 0.  1.
         12    1    3    3    0    0  0.66144314631E+01  0.10884209466E+02  0.28351226925E+02  0.31080681901E+02  0.00000000000E+00 0. -1.
</event>
<event>
 7    1  0.1283194E-013  0.7246158E+02  0.7816164E-02  0.1226708E+00
        -11   -1    0    0    0    0  0.00000000000E+00  0.00000000000E+00  0.45593999997E+02  0.45594000000E+02  0.51100000000E-03 0. -1.
         11   -1    0    0    0    0 -0.00000000000E+00 -0.00000000000E+00 -0.45593999997E+02  0.45594000000E+02  0.51100000000E-03 0.  1.
    9900012    2    1    2    0    0 -0.93922873418E+01  0.12951171251E+02 -0.97329799912E+01  0.72461580220E+02  0.70000012930E+02 0.  0.
         12    1    1    2    0    0  0.93922873418E+01 -0.12951171251E+02  0.97329799912E+01  0.18726419780E+02  0.00000000000E+00 0. -1.
         11    1    3    3    0    0  0.12577263448E+02  0.26261764559E+01  0.27474942958E+01  0.13138990973E+02  0.51100000000E-03 0. -1.
        -11    1    3    3    0    0 -0.25132860560E+02 -0.15232825543E+02 -0.15783264802E+02  0.33358823451E+02  0.51100000000E-03 0.  1.
        -12    1    3    3    0    0  0.31633097698E+01  0.25557820338E+02  0.33027905146E+01  0.25963765796E+02  0.00000000000E+00 0.  1.
</event>
<event>
 7    1  0.1283194E-013  0.7246159E+02  0.7816164E-02  0.1226708E+00
        -11   -1    0    0    0    0  0.00000000000E+00  0.00000000000E+00  0.45593999997E+02  0.45594000000E+02  0.51100000000E-03 0.  1.
         11   -1    0    0    0    0 -0.00000000000E+00 -0.00000000000E+00 -0.45593999997E+02  0.45594000000E+02  0.51100000000E-03 0. -1.
    9900012    2    1    2    0    0 -0.12775190203E+02  0.19661371824E+01  0.13550169736E+02  0.72461594044E+02  0.70000030938E+02 0.  0.
         12    1    1    2    0    0  0.12775190203E+02 -0.19661371824E+01 -0.13550169736E+02  0.18726405956E+02  0.00000000000E+00 0. -1.
         11    1    3    3    0    0 -0.65755379101E+00 -0.13252852714E+02 -0.63030033676E+01  0.14690076030E+02  0.51100000000E-03 0. -1.
        -11    1    3    3    0    0  0.19941480680E+02  0.48681379550E+01  0.85595927253E+01  0.22240234863E+02  0.51100000000E-03 0.  1.
        -12    1    3    3    0    0 -0.32059117092E+02  0.10350851941E+02  0.11293580378E+02  0.35531283152E+02  0.00000000000E+00 0.  1.
</event>
<event>
 7    1  0.1283194E-013  0.7246187E+02  0.7816164E-02  0.1226707E+00
        -11   -1    0    0    0    0  0.00000000000E+00  0.00000000000E+00  0.45593999997E+02  0.45594000000E+02  0.51100000000E-03 0. -1.
         11   -1    0    0    0    0 -0.00000000000E+00 -0.00000000000E+00 -0.45593999997E+02  0.45594000000E+02  0.51100000000E-03 0.  1.
    9900012    2    1    2    0    0 -0.14664518079E+01 -0.14650954769E+02 -0.11570090977E+02  0.72461869547E+02  0.70000389830E+02 0.  0.
         12    1    1    2    0    0  0.14664518079E+01  0.14650954769E+02  0.11570090977E+02  0.18726130453E+02  0.00000000000E+00 0. -1.
         11    1    3    3    0    0  0.71703110286E+00 -0.69205187919E+01  0.24869351557E+02  0.25824259158E+02  0.51100000000E-03 0. -1.
        -11    1    3    3    0    0  0.10850693733E+02 -0.98887131903E+01 -0.12442766025E+02  0.19244392161E+02  0.51100000000E-03 0.  1.
         12    1    3    3    0    0 -0.13034176644E+02  0.21582772136E+01 -0.23996676510E+02  0.27393218227E+02  0.00000000000E+00 0. -1.
</event>
<event>
 7    1  0.1283194E-013  0.7246160E+02  0.7816164E-02  0.1226708E+00
        -11   -1    0    0    0    0  0.00000000000E+00  0.00000000000E+00  0.45593999997E+02  0.45594000000E+02  0.51100000000E-03 0.  1.
         11   -1    0    0    0    0 -0.00000000000E+00 -0.00000000000E+00 -0.45593999997E+02  0.45594000000E+02  0.51100000000E-03 0. -1.
    9900012    2    1    2    0    0 -0.19703267739E+01 -0.52729163995E+01  0.17860357518E+02  0.72461596030E+02  0.70000033526E+02 0.  0.
         12    1    1    2    0    0  0.19703267739E+01  0.52729163995E+01 -0.17860357518E+02  0.18726403970E+02  0.00000000000E+00 0. -1.
         11    1    3    3    0    0 -0.22193332386E+02 -0.17110464983E+02 -0.98418451955E+01  0.29701412954E+02  0.51100000000E-03 0. -1.
        -11    1    3    3    0    0  0.21488333859E+02  0.13666501348E+02  0.30141491677E+02  0.39459235572E+02  0.51100000000E-03 0.  1.
        -12    1    3    3    0    0 -0.12653282468E+01 -0.18289527649E+01 -0.24392889629E+01  0.33009475053E+01  0.00000000000E+00 0.  1.
</event>
<event>
 7    1  0.1283194E-013  0.7246155E+02  0.7816164E-02  0.1226708E+00
        -11   -1    0    0    0    0  0.00000000000E+00  0.00000000000E+00  0.45593999997E+02  0.45594000000E+02  0.51100000000E-03 0.  1.
         11   -1    0    0    0    0 -0.00000000000E+00 -0.00000000000E+00 -0.45593999997E+02  0.45594000000E+02  0.51100000000E-03 0. -1.
    9900012    2    1    2    0    0 -0.12360007020E+01 -0.19446926048E+01  0.18584147040E+02  0.72461546831E+02  0.69999969435E+02 0.  0.
         12    1    1    2    0    0  0.12360007020E+01  0.19446926048E+01 -0.18584147040E+02  0.18726453169E+02  0.00000000000E+00 0. -1.
         11    1    3    3    0    0  0.21207789980E+01 -0.20364203215E+01 -0.52810148317E+00  0.29872399840E+01  0.51100000000E-03 0. -1.
        -11    1    3    3    0    0 -0.26791219143E+02 -0.13033486665E+01  0.32743887194E+02  0.42327653960E+02  0.51100000000E-03 0.  1.
        -12    1    3    3    0    0  0.23434439443E+02  0.13950763833E+01 -0.13631638670E+02  0.27146652887E+02  0.00000000000E+00 0.  1.
</event>
<event>
 7    1  0.1283194E-013  0.7246158E+02  0.7816164E-02  0.1226708E+00
        -11   -1    0    0    0    0  0.00000000000E+00  0.00000000000E+00  0.45593999997E+02  0.45594000000E+02  0.51100000000E-03 0. -1.
         11   -1    0    0    0    0 -0.00000000000E+00 -0.00000000000E+00 -0.45593999997E+02  0.45594000000E+02  0.51100000000E-03 0.  1.
    9900012    2    1    2    0    0  0.53828245706E+01 -0.11061677351E+01 -0.17901965477E+02  0.72461580819E+02  0.70000013710E+02 0.  0.
         12    1    1    2    0    0 -0.53828245706E+01  0.11061677351E+01  0.17901965477E+02  0.18726419181E+02  0.00000000000E+00 0. -1.
         11    1    3    3    0    0  0.26356890858E+02  0.35453423049E+01  0.16282707499E+02  0.31183035637E+02  0.51100000000E-03 0.  1.
        -11    1    3    3    0    0 -0.17847047938E+02 -0.37428174758E+01 -0.21544817513E+02  0.28225962600E+02  0.51100000000E-03 0. -1.
        -12    1    3    3    0    0 -0.31270183493E+01 -0.90869256423E+00 -0.12639855463E+02  0.13052582582E+02  0.00000000000E+00 0.  1.
</event>
<event>
 7    1  0.1283194E-013  0.7246152E+02  0.7816164E-02  0.1226708E+00
        -11   -1    0    0    0    0  0.00000000000E+00  0.00000000000E+00  0.45593999997E+02  0.45594000000E+02  0.51100000000E-03 0.  1.
         11   -1    0    0    0    0 -0.00000000000E+00 -0.00000000000E+00 -0.45593999997E+02  0.45594000000E+02  0.51100000000E-03 0. -1.
    9900012    2    1    2    0    0  0.52701172197E+01  0.12611150850E+02  0.12801011341E+02  0.72461517345E+02  0.69999931024E+02 0.  0.
         12    1    1    2    0    0 -0.52701172197E+01 -0.12611150850E+02 -0.12801011341E+02  0.18726482655E+02  0.00000000000E+00 0. -1.
         11    1    3    3    0    0 -0.11613933963E+02  0.60212912467E+01 -0.13287487808E+02  0.18646628191E+02  0.51100000000E-03 0. -1.
        -11    1    3    3    0    0 -0.13066788100E+01 -0.93559999229E+01  0.27998501414E+02  0.29549250849E+02  0.51100000000E-03 0.  1.
        -12    1    3    3    0    0  0.18190729993E+02  0.15945859526E+02 -0.19100022646E+01  0.24265638305E+02  0.00000000000E+00 0.  1.
</event>
<event>
 7    1  0.1283194E-013  0.7246161E+02  0.7816164E-02  0.1226708E+00
        -11   -1    0    0    0    0  0.00000000000E+00  0.00000000000E+00  0.45593999997E+02  0.45594000000E+02  0.51100000000E-03 0.  1.
         11   -1    0    0    0    0 -0.00000000000E+00 -0.00000000000E+00 -0.45593999997E+02  0.45594000000E+02  0.51100000000E-03 0. -1.
    9900012    2    1    2    0    0  0.44923255505E+00 -0.13824404561E+02  0.12623855634E+02  0.72461609466E+02  0.70000051029E+02 0.  0.
         12    1    1    2    0    0 -0.44923255505E+00  0.13824404561E+02 -0.12623855634E+02  0.18726390534E+02  0.00000000000E+00 0. -1.
         11    1    3    3    0    0  0.91412922658E+01  0.21500786829E+02 -0.43840709587E+01  0.23771140843E+02  0.51100000000E-03 0. -1.
        -11    1    3    3    0    0  0.94998208257E+01 -0.18138835845E+02  0.94221670964E+01  0.22539769177E+02  0.51100000000E-03 0.  1.
         12    1    3    3    0    0 -0.18191880536E+02 -0.17186355545E+02  0.75857594962E+01  0.26150699446E+02  0.00000000000E+00 0. -1.
</event>
<event>
 7    1  0.1283194E-013  0.7246157E+02  0.7816164E-02  0.1226708E+00
        -11   -1    0    0    0    0  0.00000000000E+00  0.00000000000E+00  0.45593999997E+02  0.45594000000E+02  0.51100000000E-03 0. -1.
         11   -1    0    0    0    0 -0.00000000000E+00 -0.00000000000E+00 -0.45593999997E+02  0.45594000000E+02  0.51100000000E-03 0.  1.
    9900012    2    1    2    0    0  0.35459753244E+01 -0.62316018410E+01 -0.17299495237E+02  0.72461565797E+02  0.69999994141E+02 0.  0.
         12    1    1    2    0    0 -0.35459753244E+01  0.62316018410E+01  0.17299495237E+02  0.18726434203E+02  0.00000000000E+00 0. -1.
         11    1    3    3    0    0 -0.97813104092E+01  0.14747878869E+02  0.16530380729E+02  0.24216264199E+02  0.51100000000E-03 0. -1.
        -11    1    3    3    0    0  0.13803139067E+02 -0.21710632271E+02 -0.15793746866E+02  0.30188087750E+02  0.51100000000E-03 0.  1.
        -12    1    3    3    0    0 -0.47585333311E+00  0.73115156071E+00 -0.18036129100E+02  0.18057213847E+02  0.00000000000E+00 0.  1.
</event>
<event>
 7    1  0.1283194E-013  0.7246158E+02  0.7816164E-02  0.1226708E+00
        -11   -1    0    0    0    0  0.00000000000E+00  0.00000000000E+00  0.45593999997E+02  0.45594000000E+02  0.51100000000E-03 0.  1.
         11   -1    0    0    0    0 -0.00000000000E+00 -0.00000000000E+00 -0.45593999997E+02  0.45594000000E+02  0.51100000000E-03 0. -1.
    9900012    2    1    2    0    0  0.16897869738E+02  0.78190237754E+01 -0.20008942983E+01  0.72461582498E+02  0.70000015897E+02 0.  0.
         12    1    1    2    0    0 -0.16897869738E+02 -0.78190237754E+01  0.20008942983E+01  0.18726417502E+02  0.00000000000E+00 0. -1.
         11    1    3    3    0    0  0.26667576640E+02  0.12891392136E+02 -0.46280215199E+01  0.29979429923E+02  0.51100000000E-03 0. -1.
        -11    1    3    3    0    0 -0.13509923311E+02  0.39111804094E+01  0.18877530932E+02  0.23540954407E+02  0.51100000000E-03 0.  1.
        -12    1    3    3    0    0  0.37402164081E+01 -0.89835487700E+01 -0.16250403710E+02  0.18941198168E+02  0.00000000000E+00 0.  1.
</event>
<event>
 7    1  0.1283194E-013  0.7246135E+02  0.7816164E-02  0.1226709E+00
        -11   -1    0    0    0    0  0.00000000000E+00  0.00000000000E+00  0.45593999997E+02  0.45594000000E+02  0.51100000000E-03 0.  1.
         11   -1    0    0    0    0 -0.00000000000E+00 -0.00000000000E+00 -0.45593999997E+02  0.45594000000E+02  0.51100000000E-03 0. -1.
    9900012    2    1    2    0    0  0.12473571334E+02  0.68801251304E+01  0.12155713568E+02  0.72461348511E+02  0.69999711085E+02 0.  0.
         12    1    1    2    0    0 -0.12473571334E+02 -0.68801251304E+01 -0.12155713568E+02  0.18726651489E+02  0.00000000000E+00 0. -1.
         11    1    3    3    0    0 -0.19863022981E+02 -0.14830366779E+02  0.48625419873E+01  0.25261111923E+02  0.51100000000E-03 0. -1.
        -11    1    3    3    0    0  0.30573498078E+02  0.16289924244E+02 -0.36775054792E+01  0.34837113305E+02  0.51100000000E-03 0.  1.
         12    1    3    3    0    0  0.17630962377E+01  0.54205676654E+01  0.10970677060E+02  0.12363123283E+02  0.00000000000E+00 0. -1.
</event>
<event>
 7    1  0.1283194E-013  0.7246156E+02  0.7816164E-02  0.1226708E+00
        -11   -1    0    0    0    0  0.00000000000E+00  0.00000000000E+00  0.45593999997E+02  0.45594000000E+02  0.51100000000E-03 0.  1.
         11   -1    0    0    0    0 -0.00000000000E+00 -0.00000000000E+00 -0.45593999997E+02  0.45594000000E+02  0.51100000000E-03 0. -1.
    9900012    2    1    2    0    0  0.17714630510E+02  0.18045293600E+00 -0.60695074089E+01  0.72461558332E+02  0.69999984417E+02 0.  0.
         12    1    1    2    0    0 -0.17714630510E+02 -0.18045293600E+00  0.60695074089E+01  0.18726441668E+02  0.00000000000E+00 0. -1.
         11    1    3    3    0    0  0.31630199277E+02 -0.11548569342E+02  0.40541489156E+01  0.33915705563E+02  0.51100000000E-03 0.  1.
        -11    1    3    3    0    0 -0.11625060360E+02  0.92241432158E+01  0.10157021609E+02  0.17983101364E+02  0.51100000000E-03 0. -1.
         12    1    3    3    0    0 -0.22905084081E+01  0.25048790625E+01 -0.20280677934E+02  0.20562751405E+02  0.00000000000E+00 0. -1.
</event>
<event>
 7    1  0.1283194E-013  0.7246153E+02  0.7816164E-02  0.1226708E+00
        -11   -1    0    0    0    0  0.00000000000E+00  0.00000000000E+00  0.45593999997E+02  0.45594000000E+02  0.51100000000E-03 0.  1.
         11   -1    0    0    0    0 -0.00000000000E+00 -0.00000000000E+00 -0.45593999997E+02  0.45594000000E+02  0.51100000000E-03 0. -1.
    9900012    2    1    2    0    0 -0.16920775987E+01 -0.10171122782E+02  0.15632202505E+02  0.72461531556E+02  0.69999949536E+02 0.  0.
         12    1    1    2    0    0  0.16920775987E+01  0.10171122782E+02 -0.15632202505E+02  0.18726468444E+02  0.00000000000E+00 0. -1.
         11    1    3    3    0    0  0.36048013231E+01 -0.15110051523E+02 -0.14045020556E+02  0.20942083284E+02  0.51100000000E-03 0. -1.
        -11    1    3    3    0    0 -0.19673916577E+02  0.28205273250E+01  0.31109909513E+02  0.36916728430E+02  0.51100000000E-03 0.  1.
         12    1    3    3    0    0  0.14377037655E+02  0.21184014158E+01 -0.14326864523E+01  0.14602719841E+02  0.00000000000E+00 0. -1.
</event>
<event>
 7    1  0.1283194E-013  0.7246154E+02  0.7816164E-02  0.1226708E+00
        -11   -1    0    0    0    0  0.00000000000E+00  0.00000000000E+00  0.45593999997E+02  0.45594000000E+02  0.51100000000E-03 0. -1.
         11   -1    0    0    0    0 -0.00000000000E+00 -0.00000000000E+00 -0.45593999997E+02  0.45594000000E+02  0.51100000000E-03 0.  1.
    9900012    2    1    2    0    0  0.89022807176E+01  0.81111930648E+01 -0.14340092123E+02  0.72461540190E+02  0.69999960784E+02 0.  0.
         12    1    1    2    0    0 -0.89022807176E+01 -0.81111930648E+01  0.14340092123E+02  0.18726459810E+02  0.00000000000E+00 0. -1.
         11    1    3    3    0    0  0.14414532133E+02 -0.62470037034E+01  0.16150203407E+02  0.22530709315E+02  0.51100000000E-03 0. -1.
        -11    1    3    3    0    0 -0.12934208627E+02 -0.83838402383E+01 -0.14454958165E+02  0.21131217328E+02  0.51100000000E-03 0.  1.
        -12    1    3    3    0    0  0.74219572122E+01  0.22742037006E+02 -0.16035337365E+02  0.28799613547E+02  0.00000000000E+00 0.  1.
</event>
<event>
 7    1  0.1283194E-013  0.7246149E+02  0.7816164E-02  0.1226708E+00
        -11   -1    0    0    0    0  0.00000000000E+00  0.00000000000E+00  0.45593999997E+02  0.45594000000E+02  0.51100000000E-03 0. -1.
         11   -1    0    0    0    0 -0.00000000000E+00 -0.00000000000E+00 -0.45593999997E+02  0.45594000000E+02  0.51100000000E-03 0.  1.
    9900012    2    1    2    0    0 -0.16144727706E+02  0.51312734396E+01 -0.79812230341E+01  0.72461491491E+02  0.69999897344E+02 0.  0.
         12    1    1    2    0    0  0.16144727706E+02 -0.51312734396E+01  0.79812230341E+01  0.18726508509E+02  0.00000000000E+00 0. -1.
         11    1    3    3    0    0  0.12204538763E+02 -0.21029106036E+02 -0.10307897553E+02  0.26408839795E+02  0.51100000000E-03 0. -1.
        -11    1    3    3    0    0 -0.16274733833E+02  0.15743336627E+02  0.13700105517E+02  0.26465307497E+02  0.51100000000E-03 0.  1.
         12    1    3    3    0    0 -0.12074532636E+02  0.10417042849E+02 -0.11373430998E+02  0.19587344199E+02  0.00000000000E+00 0. -1.
</event>
<event>
 7    1  0.1283194E-013  0.7246163E+02  0.7816164E-02  0.1226708E+00
        -11   -1    0    0    0    0  0.00000000000E+00  0.00000000000E+00  0.45593999997E+02  0.45594000000E+02  0.51100000000E-03 0. -1.
         11   -1    0    0    0    0 -0.00000000000E+00 -0.00000000000E+00 -0.45593999997E+02  0.45594000000E+02  0.51100000000E-03 0.  1.
    9900012    2    1    2    0    0 -0.14445296602E+02  0.89432112541E+01 -0.78758721326E+01  0.72461628667E+02  0.70000076041E+02 0.  0.
         12    1    1    2    0    0  0.14445296602E+02 -0.89432112541E+01  0.78758721326E+01  0.18726371333E+02  0.00000000000E+00 0. -1.
         11    1    3    3    0    0  0.19918100352E+01  0.12457735188E+02  0.16135137746E+02  0.20481824713E+02  0.51100000000E-03 0. -1.
        -11    1    3    3    0    0 -0.16778263946E+01  0.57181025189E+01 -0.32195789613E+02  0.32742642943E+02  0.51100000000E-03 0.  1.
        -12    1    3    3    0    0 -0.14759280242E+02 -0.92326264523E+01  0.81847797340E+01  0.19237161011E+02  0.00000000000E+00 0.  1.
</event>
<event>
 7    1  0.1283194E-013  0.7246163E+02  0.7816164E-02  0.1226708E+00
        -11   -1    0    0    0    0  0.00000000000E+00  0.00000000000E+00  0.45593999997E+02  0.45594000000E+02  0.51100000000E-03 0. -1.
         11   -1    0    0    0    0 -0.00000000000E+00 -0.00000000000E+00 -0.45593999997E+02  0.45594000000E+02  0.51100000000E-03 0.  1.
    9900012    2    1    2    0    0  0.16124249837E+02  0.83417780906E+01 -0.45935133236E+01  0.72461626641E+02  0.70000073402E+02 0.  0.
         12    1    1    2    0    0 -0.16124249837E+02 -0.83417780906E+01  0.45935133236E+01  0.18726373359E+02  0.00000000000E+00 0. -1.
         11    1    3    3    0    0 -0.47101450778E+01 -0.49127863150E+01 -0.16771938673E+01  0.70095588706E+01  0.51100000000E-03 0. -1.
        -11    1    3    3    0    0  0.25257809665E+02  0.24793016547E+01  0.24740295149E+02  0.35442715614E+02  0.51100000000E-03 0.  1.
        -12    1    3    3    0    0 -0.44234147502E+01  0.10775262751E+02 -0.27656614606E+02  0.30009352156E+02  0.00000000000E+00 0.  1.
</event>
<event>
 7    1  0.1283194E-013  0.7246153E+02  0.7816164E-02  0.1226708E+00
        -11   -1    0    0    0    0  0.00000000000E+00  0.00000000000E+00  0.45593999997E+02  0.45594000000E+02  0.51100000000E-03 0.  1.
         11   -1    0    0    0    0 -0.00000000000E+00 -0.00000000000E+00 -0.45593999997E+02  0.45594000000E+02  0.51100000000E-03 0. -1.
    9900012    2    1    2    0    0  0.50004454121E+01  0.10236807670E+02  0.14862163534E+02  0.72461532354E+02  0.69999950576E+02 0.  0.
         12    1    1    2    0    0 -0.50004454121E+01 -0.10236807670E+02 -0.14862163534E+02  0.18726467646E+02  0.00000000000E+00 0. -1.
         11    1    3    3    0    0  0.28963321204E+02  0.46398009166E+01 -0.63685554814E+01  0.30015999515E+02  0.51100000000E-03 0. -1.
        -11    1    3    3    0    0 -0.66737882496E+01  0.99253814028E+01 -0.30334089450E+01  0.12339133506E+02  0.51100000000E-03 0.  1.
         12    1    3    3    0    0 -0.17289087542E+02 -0.43283746497E+01  0.24264127960E+02  0.30106399333E+02  0.00000000000E+00 0. -1.
</event>
<event>
 7    1  0.1283194E-013  0.7246191E+02  0.7816164E-02  0.1226707E+00
        -11   -1    0    0    0    0  0.00000000000E+00  0.00000000000E+00  0.45593999997E+02  0.45594000000E+02  0.51100000000E-03 0.  1.
         11   -1    0    0    0    0 -0.00000000000E+00 -0.00000000000E+00 -0.45593999997E+02  0.45594000000E+02  0.51100000000E-03 0. -1.
    9900012    2    1    2    0    0  0.97892338498E+01  0.15958440162E+01  0.15883657607E+02  0.72461911341E+02  0.70000444275E+02 0.  0.
         12    1    1    2    0    0 -0.97892338498E+01 -0.15958440162E+01 -0.15883657607E+02  0.18726088659E+02  0.00000000000E+00 0. -1.
         11    1    3    3    0    0 -0.36278390038E+01  0.12047398223E+02  0.38528427880E+01  0.13158473224E+02  0.51100000000E-03 0. -1.
        -11    1    3    3    0    0  0.28633254565E+02  0.76157510164E+01  0.18350903238E+02  0.34851378458E+02  0.51100000000E-03 0.  1.
        -12    1    3    3    0    0 -0.15216181711E+02 -0.18067305223E+02 -0.63200884191E+01  0.24452059658E+02  0.00000000000E+00 0.  1.
</event>
<event>
 7    1  0.1283194E-013  0.7246156E+02  0.7816164E-02  0.1226708E+00
        -11   -1    0    0    0    0  0.00000000000E+00  0.00000000000E+00  0.45593999997E+02  0.45594000000E+02  0.51100000000E-03 0. -1.
         11   -1    0    0    0    0 -0.00000000000E+00 -0.00000000000E+00 -0.45593999997E+02  0.45594000000E+02  0.51100000000E-03 0.  1.
    9900012    2    1    2    0    0 -0.10023610485E+02 -0.12228160799E+02 -0.10033877914E+02  0.72461564416E+02  0.69999992342E+02 0.  0.
         12    1    1    2    0    0  0.10023610485E+02  0.12228160799E+02  0.10033877914E+02  0.18726435584E+02  0.00000000000E+00 0. -1.
         11    1    3    3    0    0 -0.23982912343E+02 -0.18301975717E+01  0.35563532200E+01  0.24314139016E+02  0.51100000000E-03 0. -1.
        -11    1    3    3    0    0  0.26613656393E+02 -0.13843298086E+02 -0.10732012754E+01  0.30017917478E+02  0.51100000000E-03 0.  1.
        -12    1    3    3    0    0 -0.12654354535E+02  0.34453348590E+01 -0.12517029859E+02  0.18129507922E+02  0.00000000000E+00 0.  1.
</event>
<event>
 7    1  0.1283194E-013  0.7246133E+02  0.7816164E-02  0.1226709E+00
        -11   -1    0    0    0    0  0.00000000000E+00  0.00000000000E+00  0.45593999997E+02  0.45594000000E+02  0.51100000000E-03 0. -1.
         11   -1    0    0    0    0 -0.00000000000E+00 -0.00000000000E+00 -0.45593999997E+02  0.45594000000E+02  0.51100000000E-03 0.  1.
    9900012    2    1    2    0    0  0.85764367031E+01 -0.10959493632E+02 -0.12530864673E+02  0.72461325532E+02  0.69999681150E+02 0.  0.
         12    1    1    2    0    0 -0.85764367031E+01  0.10959493632E+02  0.12530864673E+02  0.18726674468E+02  0.00000000000E+00 0. -1.
         11    1    3    3    0    0 -0.10633048871E+02  0.74140199436E+01 -0.96046049596E+01  0.16133129167E+02  0.51100000000E-03 0. -1.
        -11    1    3    3    0    0  0.13199203628E+02 -0.17954267908E+02  0.21623004248E+02  0.31050427139E+02  0.51100000000E-03 0.  1.
        -12    1    3    3    0    0  0.60102819466E+01 -0.41924566770E+00 -0.24549263961E+02  0.25277769226E+02  0.00000000000E+00 0.  1.
</event>
<event>
 7    1  0.1283194E-013  0.7246156E+02  0.7816164E-02  0.1226708E+00
        -11   -1    0    0    0    0  0.00000000000E+00  0.00000000000E+00  0.45593999997E+02  0.45594000000E+02  0.51100000000E-03 0.  1.
         11   -1    0    0    0    0 -0.00000000000E+00 -0.00000000000E+00 -0.45593999997E+02  0.45594000000E+02  0.51100000000E-03 0. -1.
    9900012    2    1    2    0    0 -0.80843422781E+01 -0.44901645763E+01  0.16283775796E+02  0.72461560878E+02  0.69999987734E+02 0.  0.
         12    1    1    2    0    0  0.80843422781E+01  0.44901645763E+01 -0.16283775796E+02  0.18726439122E+02  0.00000000000E+00 0. -1.
         11    1    3    3    0    0  0.51370043265E+01  0.73184723146E+01 -0.45003428269E+01  0.10010091722E+02  0.51100000000E-03 0. -1.
        -11    1    3    3    0    0 -0.25717251368E+02 -0.16985340767E+02  0.32330967987E+02  0.44667329337E+02  0.51100000000E-03 0.  1.
        -12    1    3    3    0    0  0.12495904763E+02  0.51767038757E+01 -0.11546849364E+02  0.17784139819E+02  0.00000000000E+00 0.  1.
</event>
<event>
 7    1  0.1283194E-013  0.7246157E+02  0.7816164E-02  0.1226708E+00
        -11   -1    0    0    0    0  0.00000000000E+00  0.00000000000E+00  0.45593999997E+02  0.45594000000E+02  0.51100000000E-03 0. -1.
         11   -1    0    0    0    0 -0.00000000000E+00 -0.00000000000E+00 -0.45593999997E+02  0.45594000000E+02  0.51100000000E-03 0.  1.
    9900012    2    1    2    0    0  0.73029326380E+01  0.14118338199E+02  0.99004446843E+01  0.72461572055E+02  0.70000002294E+02 0.  0.
         12    1    1    2    0    0 -0.73029326380E+01 -0.14118338199E+02 -0.99004446843E+01  0.18726427945E+02  0.00000000000E+00 0. -1.
         11    1    3    3    0    0  0.21356952827E+02 -0.13880648634E+02  0.11360005393E+02  0.27889811103E+02  0.51100000000E-03 0. -1.
        -11    1    3    3    0    0 -0.20793229755E+02  0.14048209830E+02 -0.98434018278E+01  0.26955577584E+02  0.51100000000E-03 0.  1.
        -12    1    3    3    0    0  0.67392095664E+01  0.13950777003E+02  0.83838411189E+01  0.17616183368E+02  0.00000000000E+00 0.  1.
</event>
<event>
 7    1  0.1319072E-013  0.7246154E+02  0.7816164E-02  0.1226708E+00
        -11   -1    0    0    0    0  0.00000000000E+00  0.00000000000E+00  0.45593999997E+02  0.45594000000E+02  0.51100000000E-03 0. -1.
         11   -1    0    0    0    0 -0.00000000000E+00 -0.00000000000E+00 -0.45593999997E+02  0.45594000000E+02  0.51100000000E-03 0.  1.
    9900012    2    1    2    0    0 -0.14217695151E+02 -0.12838368527E+01 -0.12119786029E+02  0.72461539954E+02  0.69999960476E+02 0.  0.
         12    1    1    2    0    0  0.14217695151E+02  0.12838368527E+01  0.12119786029E+02  0.18726460046E+02  0.00000000000E+00 0. -1.
         11    1    3    3    0    0 -0.20463606557E+02  0.36427205494E+01  0.10211380913E+02  0.23158171489E+02  0.51100000000E-03 0. -1.
        -11    1    3    3    0    0  0.66984397745E+01  0.14008723957E+02 -0.25737501954E+02  0.30058816501E+02  0.51100000000E-03 0.  1.
        -12    1    3    3    0    0 -0.45252836830E+00 -0.18935281359E+02  0.34063350120E+01  0.19244551964E+02  0.00000000000E+00 0.  1.
</event>
<event>
 7    1  0.1283194E-013  0.7246154E+02  0.7816164E-02  0.1226708E+00
        -11   -1    0    0    0    0  0.00000000000E+00  0.00000000000E+00  0.45593999997E+02  0.45594000000E+02  0.51100000000E-03 0.  1.
         11   -1    0    0    0    0 -0.00000000000E+00 -0.00000000000E+00 -0.45593999997E+02  0.45594000000E+02  0.51100000000E-03 0. -1.
    9900012    2    1    2    0    0  0.60960403350E+01 -0.17700678796E+02 -0.45235763069E+00  0.72461538374E+02  0.69999958418E+02 0.  0.
         12    1    1    2    0    0 -0.60960403350E+01  0.17700678796E+02  0.45235763069E+00  0.18726461626E+02  0.00000000000E+00 0. -1.
         11    1    3    3    0    0  0.39682055070E+01  0.21101879467E+01 -0.10391475151E+02  0.11321762415E+02  0.51100000000E-03 0. -1.
        -11    1    3    3    0    0  0.66725998767E+01 -0.39483391979E+02  0.82010966700E+01  0.40874439668E+02  0.51100000000E-03 0.  1.
        -12    1    3    3    0    0 -0.45447650487E+01  0.19672525237E+02  0.17380208499E+01  0.20265336292E+02  0.00000000000E+00 0.  1.
</event>
<event>
 7    1  0.1283194E-013  0.7246156E+02  0.7816164E-02  0.1226708E+00
        -11   -1    0    0    0    0  0.00000000000E+00  0.00000000000E+00  0.45593999997E+02  0.45594000000E+02  0.51100000000E-03 0.  1.
         11   -1    0    0    0    0 -0.00000000000E+00 -0.00000000000E+00 -0.45593999997E+02  0.45594000000E+02  0.51100000000E-03 0. -1.
    9900012    2    1    2    0    0  0.17106718236E+02  0.20792586543E+01  0.73291539822E+01  0.72461558175E+02  0.69999984212E+02 0.  0.
         12    1    1    2    0    0 -0.17106718236E+02 -0.20792586543E+01 -0.73291539822E+01  0.18726441825E+02  0.00000000000E+00 0. -1.
         11    1    3    3    0    0  0.17442270949E+02  0.24685191553E+01 -0.13830561271E+02  0.22396670021E+02  0.51100000000E-03 0. -1.
        -11    1    3    3    0    0 -0.15516673785E+02  0.92627326029E+01 -0.45980372979E+01  0.18646912020E+02  0.51100000000E-03 0.  1.
        -12    1    3    3    0    0  0.15181121071E+02 -0.96519931039E+01  0.25757752551E+02  0.31417976134E+02  0.00000000000E+00 0.  1.
</event>
<event>
 7    1  0.1283194E-013  0.7246152E+02  0.7816164E-02  0.1226708E+00
        -11   -1    0    0    0    0  0.00000000000E+00  0.00000000000E+00  0.45593999997E+02  0.45594000000E+02  0.51100000000E-03 0. -1.
         11   -1    0    0    0    0 -0.00000000000E+00 -0.00000000000E+00 -0.45593999997E+02  0.45594000000E+02  0.51100000000E-03 0.  1.
    9900012    2    1    2    0    0 -0.35991764097E+01  0.18299879499E+02  0.16856920385E+01  0.72461515595E+02  0.69999928744E+02 0.  0.
         12    1    1    2    0    0  0.35991764097E+01 -0.18299879499E+02 -0.16856920385E+01  0.18726484405E+02  0.00000000000E+00 0. -1.
         11    1    3    3    0    0  0.15280970382E+02  0.21673881033E+02 -0.74694542122E+00  0.26529664577E+02  0.51100000000E-03 0.  1.
        -11    1    3    3    0    0 -0.27520706673E+02  0.91552653418E+01 -0.42431854609E+01  0.29312331917E+02  0.51100000000E-03 0. -1.
        -12    1    3    3    0    0  0.86405598819E+01 -0.12529266875E+02  0.66758229206E+01  0.16619519102E+02  0.00000000000E+00 0.  1.
</event>
<event>
 7    1  0.1283194E-013  0.7246153E+02  0.7816164E-02  0.1226708E+00
        -11   -1    0    0    0    0  0.00000000000E+00  0.00000000000E+00  0.45593999997E+02  0.45594000000E+02  0.51100000000E-03 0.  1.
         11   -1    0    0    0    0 -0.00000000000E+00 -0.00000000000E+00 -0.45593999997E+02  0.45594000000E+02  0.51100000000E-03 0. -1.
    9900012    2    1    2    0    0 -0.14747650658E+01 -0.67199394407E+01  0.17416895773E+02  0.72461527389E+02  0.69999944108E+02 0.  0.
         12    1    1    2    0    0  0.14747650658E+01  0.67199394407E+01 -0.17416895773E+02  0.18726472611E+02  0.00000000000E+00 0. -1.
         11    1    3    3    0    0 -0.74159888186E+01  0.15614822052E+02  0.15240643717E+02  0.23045537074E+02  0.51100000000E-03 0. -1.
        -11    1    3    3    0    0 -0.40053060322E+01 -0.29652898364E+02  0.13347412370E+02  0.32764161442E+02  0.51100000000E-03 0.  1.
         12    1    3    3    0    0  0.99465297851E+01  0.73181368710E+01 -0.11171160315E+02  0.16651828873E+02  0.00000000000E+00 0. -1.
</event>
<event>
 7    1  0.1283194E-013  0.7246153E+02  0.7816164E-02  0.1226708E+00
        -11   -1    0    0    0    0  0.00000000000E+00  0.00000000000E+00  0.45593999997E+02  0.45594000000E+02  0.51100000000E-03 0.  1.
         11   -1    0    0    0    0 -0.00000000000E+00 -0.00000000000E+00 -0.45593999997E+02  0.45594000000E+02  0.51100000000E-03 0. -1.
    9900012    2    1    2    0    0  0.96949001169E+01  0.96037331890E+01  0.12824111041E+02  0.72461532008E+02  0.69999950125E+02 0.  0.
         12    1    1    2    0    0 -0.96949001169E+01 -0.96037331890E+01 -0.12824111041E+02  0.18726467992E+02  0.00000000000E+00 0. -1.
         11    1    3    3    0    0  0.42279722615E+00 -0.72785266396E+01 -0.35814444451E+01  0.81229583350E+01  0.51100000000E-03 0. -1.
        -11    1    3    3    0    0 -0.18473954564E+02  0.26890075401E+02  0.10356331567E+02  0.34228887742E+02  0.51100000000E-03 0.  1.
        -12    1    3    3    0    0  0.27746057455E+02 -0.10007815572E+02  0.60492239199E+01  0.30109685931E+02  0.00000000000E+00 0.  1.
</event>
<event>
 7    1  0.1283194E-013  0.7246152E+02  0.7816164E-02  0.1226708E+00
        -11   -1    0    0    0    0  0.00000000000E+00  0.00000000000E+00  0.45593999997E+02  0.45594000000E+02  0.51100000000E-03 0.  1.
         11   -1    0    0    0    0 -0.00000000000E+00 -0.00000000000E+00 -0.45593999997E+02  0.45594000000E+02  0.51100000000E-03 0. -1.
    9900012    2    1    2    0    0  0.12026939588E+02  0.10263956939E+02  0.10034186555E+02  0.72461521748E+02  0.69999936759E+02 0.  0.
         12    1    1    2    0    0 -0.12026939588E+02 -0.10263956939E+02 -0.10034186555E+02  0.18726478252E+02  0.00000000000E+00 0. -1.
         11    1    3    3    0    0  0.16933418107E+02  0.11099465960E+02 -0.22414855599E+02  0.30205372787E+02  0.51100000000E-03 0. -1.
        -11    1    3    3    0    0 -0.44288485249E+01 -0.13595079245E+02  0.17004879447E+02  0.22217263652E+02  0.51100000000E-03 0.  1.
         12    1    3    3    0    0 -0.47762999335E+00  0.12759570224E+02  0.15444162707E+02  0.20038885309E+02  0.00000000000E+00 0. -1.
</event>
<event>
 7    1  0.1283194E-013  0.7246156E+02  0.7816164E-02  0.1226708E+00
        -11   -1    0    0    0    0  0.00000000000E+00  0.00000000000E+00  0.45593999997E+02  0.45594000000E+02  0.51100000000E-03 0. -1.
         11   -1    0    0    0    0 -0.00000000000E+00 -0.00000000000E+00 -0.45593999997E+02  0.45594000000E+02  0.51100000000E-03 0.  1.
    9900012    2    1    2    0    0 -0.34846481686E+01 -0.17291617619E+02 -0.62878138496E+01  0.72461563720E+02  0.69999991435E+02 0.  0.
         12    1    1    2    0    0  0.34846481686E+01  0.17291617619E+02  0.62878138496E+01  0.18726436280E+02  0.00000000000E+00 0. -1.
         11    1    3    3    0    0  0.64325378829E+01  0.34947773462E+01 -0.17647909666E+01  0.75303054208E+01  0.51100000000E-03 0. -1.
        -11    1    3    3    0    0 -0.19112568536E+02 -0.37099933321E+02 -0.13900758217E+02  0.43987798396E+02  0.51100000000E-03 0.  1.
        -12    1    3    3    0    0  0.91953824846E+01  0.16313538355E+02  0.93777353340E+01  0.20943459903E+02  0.00000000000E+00 0.  1.
</event>
<event>
 7    1  0.1283194E-013  0.7246159E+02  0.7816164E-02  0.1226708E+00
        -11   -1    0    0    0    0  0.00000000000E+00  0.00000000000E+00  0.45593999997E+02  0.45594000000E+02  0.51100000000E-03 0.  1.
         11   -1    0    0    0    0 -0.00000000000E+00 -0.00000000000E+00 -0.45593999997E+02  0.45594000000E+02  0.51100000000E-03 0. -1.
    9900012    2    1    2    0    0  0.17615737328E+02  0.10588991934E+00 -0.63523919615E+01  0.72461593566E+02  0.70000030316E+02 0.  0.
         12    1    1    2    0    0 -0.17615737328E+02 -0.10588991934E+00  0.63523919615E+01  0.18726406434E+02  0.00000000000E+00 0. -1.
         11    1    3    3    0    0  0.10112052986E+02 -0.14258105098E+02 -0.28694239200E+02  0.33599204457E+02  0.51100000000E-03 0. -1.
        -11    1    3    3    0    0  0.62792321141E+01 -0.22754155619E+01  0.21100047107E+02  0.22131838155E+02  0.51100000000E-03 0.  1.
         12    1    3    3    0    0  0.12244522278E+01  0.16639410579E+02  0.12418001320E+01  0.16730550955E+02  0.00000000000E+00 0. -1.
</event>
<event>
 7    1  0.1283194E-013  0.7246156E+02  0.7816164E-02  0.1226708E+00
        -11   -1    0    0    0    0  0.00000000000E+00  0.00000000000E+00  0.45593999997E+02  0.45594000000E+02  0.51100000000E-03 0. -1.
         11   -1    0    0    0    0 -0.00000000000E+00 -0.00000000000E+00 -0.45593999997E+02  0.45594000000E+02  0.51100000000E-03 0.  1.
    9900012    2    1    2    0    0  0.14505008434E+02  0.90932142528E+01  0.75893276608E+01  0.72461555877E+02  0.69999981219E+02 0.  0.
         12    1    1    2    0    0 -0.14505008434E+02 -0.90932142528E+01 -0.75893276608E+01  0.18726444123E+02  0.00000000000E+00 0. -1.
         11    1    3    3    0    0 -0.18453895509E+02 -0.63388130987E+01 -0.71810568009E+01  0.20791690359E+02  0.51100000000E-03 0. -1.
        -11    1    3    3    0    0  0.31885661443E+02 -0.40628097517E+00  0.16132718354E+02  0.35736886709E+02  0.51100000000E-03 0.  1.
        -12    1    3    3    0    0  0.10732425000E+01  0.15838308327E+02 -0.13623338921E+01  0.15932978810E+02  0.00000000000E+00 0.  1.
</event>
<event>
 7    1  0.1283194E-013  0.7246163E+02  0.7816164E-02  0.1226708E+00
        -11   -1    0    0    0    0  0.00000000000E+00  0.00000000000E+00  0.45593999997E+02  0.45594000000E+02  0.51100000000E-03 0.  1.
         11   -1    0    0    0    0 -0.00000000000E+00 -0.00000000000E+00 -0.45593999997E+02  0.45594000000E+02  0.51100000000E-03 0. -1.
    9900012    2    1    2    0    0 -0.79445088288E-01 -0.42626802527E+01  0.18234587880E+02  0.72461629566E+02  0.70000077212E+02 0.  0.
         12    1    1    2    0    0  0.79445088288E-01  0.42626802527E+01 -0.18234587880E+02  0.18726370434E+02  0.00000000000E+00 0. -1.
         11    1    3    3    0    0  0.10695621031E+02  0.27500392838E+01 -0.15058509368E+02  0.18673985379E+02  0.51100000000E-03 0. -1.
        -11    1    3    3    0    0  0.45374133413E+01 -0.17662732924E+02  0.29610568083E+02  0.34775652354E+02  0.51100000000E-03 0.  1.
        -12    1    3    3    0    0 -0.15312479461E+02  0.10650013388E+02  0.36825291650E+01  0.19011991833E+02  0.00000000000E+00 0.  1.
</event>
<event>
 7    1  0.1283194E-013  0.7246144E+02  0.7816164E-02  0.1226708E+00
        -11   -1    0    0    0    0  0.00000000000E+00  0.00000000000E+00  0.45593999997E+02  0.45594000000E+02  0.51100000000E-03 0. -1.
         11   -1    0    0    0    0 -0.00000000000E+00 -0.00000000000E+00 -0.45593999997E+02  0.45594000000E+02  0.51100000000E-03 0.  1.
    9900012    2    1    2    0    0 -0.16109976675E+02 -0.74220558049E+01 -0.60054885764E+01  0.72461437211E+02  0.69999826635E+02 0.  0.
         12    1    1    2    0    0  0.16109976675E+02  0.74220558049E+01  0.60054885764E+01  0.18726562789E+02  0.00000000000E+00 0. -1.
         11    1    3    3    0    0 -0.23318201840E+02 -0.18082698330E+02  0.20161664765E+01  0.29576805836E+02  0.51100000000E-03 0. -1.
        -11    1    3    3    0    0  0.49274136347E+01 -0.40292364298E+01 -0.21742205379E+02  0.22654748869E+02  0.51100000000E-03 0.  1.
         12    1    3    3    0    0  0.22808115305E+01  0.14689878955E+02  0.13720550326E+02  0.20229882506E+02  0.00000000000E+00 0. -1.
</event>
<event>
 7    1  0.1283194E-013  0.7246179E+02  0.7816164E-02  0.1226707E+00
        -11   -1    0    0    0    0  0.00000000000E+00  0.00000000000E+00  0.45593999997E+02  0.45594000000E+02  0.51100000000E-03 0.  1.
         11   -1    0    0    0    0 -0.00000000000E+00 -0.00000000000E+00 -0.45593999997E+02  0.45594000000E+02  0.51100000000E-03 0. -1.
    9900012    2    1    2    0    0 -0.18067437247E+02  0.46351426902E+01 -0.16595962610E+01  0.72461785856E+02  0.70000280808E+02 0.  0.
         12    1    1    2    0    0  0.18067437247E+02 -0.46351426902E+01  0.16595962610E+01  0.18726214144E+02  0.00000000000E+00 0. -1.
         11    1    3    3    0    0  0.18582206289E+02  0.44338218426E+01 -0.20715854863E+02  0.28179847581E+02  0.51100000000E-03 0. -1.
        -11    1    3    3    0    0 -0.37399223976E+02 -0.90464488354E+00  0.15520056923E+02  0.40501759265E+02  0.51100000000E-03 0.  1.
        -12    1    3    3    0    0  0.74958044079E+00  0.11059657311E+01  0.35362016792E+01  0.37801790105E+01  0.00000000000E+00 0.  1.
</event>
<event>
 7    1  0.1283194E-013  0.7246158E+02  0.7816164E-02  0.1226708E+00
        -11   -1    0    0    0    0  0.00000000000E+00  0.00000000000E+00  0.45593999997E+02  0.45594000000E+02  0.51100000000E-03 0.  1.
         11   -1    0    0    0    0 -0.00000000000E+00 -0.00000000000E+00 -0.45593999997E+02  0.45594000000E+02  0.51100000000E-03 0. -1.
    9900012    2    1    2    0    0 -0.12867645156E+02 -0.41274569464E+01  0.12964047718E+02  0.72461582138E+02  0.70000015429E+02 0.  0.
         12    1    1    2    0    0  0.12867645156E+02  0.41274569464E+01 -0.12964047718E+02  0.18726417862E+02  0.00000000000E+00 0. -1.
         11    1    3    3    0    0 -0.49198678990E+01 -0.10455763576E+02 -0.13583553155E+02  0.17833704289E+02  0.51100000000E-03 0. -1.
        -11    1    3    3    0    0  0.17788768837E+02  0.11875648984E+02  0.12818172396E+02  0.24935454264E+02  0.51100000000E-03 0.  1.
        -12    1    3    3    0    0 -0.25736546094E+02 -0.55473423541E+01  0.13729428477E+02  0.29692423585E+02  0.00000000000E+00 0.  1.
</event>
<event>
 7    1  0.1283194E-013  0.7246155E+02  0.7816164E-02  0.1226708E+00
        -11   -1    0    0    0    0  0.00000000000E+00  0.00000000000E+00  0.45593999997E+02  0.45594000000E+02  0.51100000000E-03 0.  1.
         11   -1    0    0    0    0 -0.00000000000E+00 -0.00000000000E+00 -0.45593999997E+02  0.45594000000E+02  0.51100000000E-03 0. -1.
    9900012    2    1    2    0    0 -0.41680802044E+00 -0.11848590518E+02  0.14495418968E+02  0.72461548194E+02  0.69999971211E+02 0.  0.
         12    1    1    2    0    0  0.41680802044E+00  0.11848590518E+02 -0.14495418968E+02  0.18726451806E+02  0.00000000000E+00 0. -1.
         11    1    3    3    0    0 -0.16748307012E+02  0.10246618167E+02  0.35231488712E+01  0.19947720417E+02  0.51100000000E-03 0. -1.
        -11    1    3    3    0    0  0.25268571210E+01 -0.27353965575E+02  0.21069746798E+02  0.34620206094E+02  0.51100000000E-03 0.  1.
         12    1    3    3    0    0  0.13804641870E+02  0.52587568908E+01 -0.10097476701E+02  0.17893621683E+02  0.00000000000E+00 0. -1.
</event>
<event>
 7    1  0.1283194E-013  0.7246164E+02  0.7816164E-02  0.1226708E+00
        -11   -1    0    0    0    0  0.00000000000E+00  0.00000000000E+00  0.45593999997E+02  0.45594000000E+02  0.51100000000E-03 0. -1.
         11   -1    0    0    0    0 -0.00000000000E+00 -0.00000000000E+00 -0.45593999997E+02  0.45594000000E+02  0.51100000000E-03 0.  1.
    9900012    2    1    2    0    0  0.10285201372E+02  0.11624332491E+02 -0.10476927286E+02  0.72461642145E+02  0.70000093599E+02 0.  0.
         12    1    1    2    0    0 -0.10285201372E+02 -0.11624332491E+02  0.10476927286E+02  0.18726357855E+02  0.00000000000E+00 0. -1.
         11    1    3    3    0    0  0.50371222667E+01  0.82344641492E+01 -0.24451289088E+02  0.26287726012E+02  0.51100000000E-03 0.  1.
        -11    1    3    3    0    0  0.84088462411E+01 -0.17251361031E+02  0.16278161855E+02  0.25165387066E+02  0.51100000000E-03 0. -1.
        -12    1    3    3    0    0 -0.31607671355E+01  0.20641229373E+02 -0.23038000537E+01  0.21008529068E+02  0.00000000000E+00 0.  1.
</event>
<event>
 7    1  0.1283194E-013  0.7246172E+02  0.7816164E-02  0.1226708E+00
        -11   -1    0    0    0    0  0.00000000000E+00  0.00000000000E+00  0.45593999997E+02  0.45594000000E+02  0.51100000000E-03 0.  1.
         11   -1    0    0    0    0 -0.00000000000E+00 -0.00000000000E+00 -0.45593999997E+02  0.45594000000E+02  0.51100000000E-03 0. -1.
    9900012    2    1    2    0    0 -0.17565493267E+02  0.71067736909E+00  0.64515169463E+01  0.72461716681E+02  0.70000190695E+02 0.  0.
         12    1    1    2    0    0  0.17565493267E+02 -0.71067736909E+00 -0.64515169463E+01  0.18726283319E+02  0.00000000000E+00 0. -1.
         11    1    3    3    0    0  0.47767206589E+01 -0.15378905308E+02  0.20577777009E+02  0.26129919548E+02  0.51100000000E-03 0. -1.
        -11    1    3    3    0    0 -0.10729834464E+02  0.20950472937E+02  0.43873007651E+01  0.23943685434E+02  0.51100000000E-03 0.  1.
         12    1    3    3    0    0 -0.11612379463E+02 -0.48608902599E+01 -0.18513560827E+02  0.22388111698E+02  0.00000000000E+00 0. -1.
</event>
<event>
 7    1  0.1283194E-013  0.7246205E+02  0.7816164E-02  0.1226707E+00
        -11   -1    0    0    0    0  0.00000000000E+00  0.00000000000E+00  0.45593999997E+02  0.45594000000E+02  0.51100000000E-03 0. -1.
         11   -1    0    0    0    0 -0.00000000000E+00 -0.00000000000E+00 -0.45593999997E+02  0.45594000000E+02  0.51100000000E-03 0.  1.
    9900012    2    1    2    0    0 -0.10549019701E+02  0.14526727372E+02 -0.53248187924E+01  0.72462046888E+02  0.70000620849E+02 0.  0.
         12    1    1    2    0    0  0.10549019701E+02 -0.14526727372E+02  0.53248187924E+01  0.18725953112E+02  0.00000000000E+00 0. -1.
         11    1    3    3    0    0  0.48237144633E+01  0.30747496691E+02  0.22655947572E+01  0.31205924019E+02  0.51100000000E-03 0. -1.
        -11    1    3    3    0    0 -0.29177956223E+01 -0.12219925697E+02 -0.19742504650E+02  0.23400995822E+02  0.51100000000E-03 0.  1.
        -12    1    3    3    0    0 -0.12454938542E+02 -0.40008436218E+01  0.12152091100E+02  0.17855127047E+02  0.00000000000E+00 0.  1.
</event>
<event>
 7    1  0.1283194E-013  0.7246157E+02  0.7816164E-02  0.1226708E+00
        -11   -1    0    0    0    0  0.00000000000E+00  0.00000000000E+00  0.45593999997E+02  0.45594000000E+02  0.51100000000E-03 0.  1.
         11   -1    0    0    0    0 -0.00000000000E+00 -0.00000000000E+00 -0.45593999997E+02  0.45594000000E+02  0.51100000000E-03 0. -1.
    9900012    2    1    2    0    0  0.12267607350E+02  0.84525733976E+01  0.11346325978E+02  0.72461566802E+02  0.69999995450E+02 0.  0.
         12    1    1    2    0    0 -0.12267607350E+02 -0.84525733976E+01 -0.11346325978E+02  0.18726433198E+02  0.00000000000E+00 0. -1.
         11    1    3    3    0    0  0.28563012081E+01  0.12128749442E+02 -0.24030234572E+02  0.27068749389E+02  0.51100000000E-03 0. -1.
        -11    1    3    3    0    0  0.53591506595E+01 -0.11256687987E+02  0.43607071250E+01  0.13207925163E+02  0.51100000000E-03 0.  1.
         12    1    3    3    0    0  0.40521554822E+01  0.75805119425E+01  0.31015853426E+02  0.32184892249E+02  0.00000000000E+00 0. -1.
</event>
<event>
 7    1  0.1283194E-013  0.7246156E+02  0.7816164E-02  0.1226708E+00
        -11   -1    0    0    0    0  0.00000000000E+00  0.00000000000E+00  0.45593999997E+02  0.45594000000E+02  0.51100000000E-03 0.  1.
         11   -1    0    0    0    0 -0.00000000000E+00 -0.00000000000E+00 -0.45593999997E+02  0.45594000000E+02  0.51100000000E-03 0. -1.
    9900012    2    1    2    0    0 -0.81659764041E+01 -0.62524962825E+00  0.16840594666E+02  0.72461555158E+02  0.69999980282E+02 0.  0.
         12    1    1    2    0    0  0.81659764041E+01  0.62524962825E+00 -0.16840594666E+02  0.18726444842E+02  0.00000000000E+00 0. -1.
         11    1    3    3    0    0  0.32526878851E+01  0.15345071390E+02 -0.11748274292E+02  0.19597784148E+02  0.51100000000E-03 0. -1.
        -11    1    3    3    0    0 -0.11794241211E+02 -0.18174306337E+02 -0.23963620363E+01  0.21797983573E+02  0.51100000000E-03 0.  1.
        -12    1    3    3    0    0  0.37557692177E+00  0.22039853195E+01  0.30985230994E+02  0.31065787436E+02  0.00000000000E+00 0.  1.
</event>
<event>
 7    1  0.1283194E-013  0.7246156E+02  0.7816164E-02  0.1226708E+00
        -11   -1    0    0    0    0  0.00000000000E+00  0.00000000000E+00  0.45593999997E+02  0.45594000000E+02  0.51100000000E-03 0.  1.
         11   -1    0    0    0    0 -0.00000000000E+00 -0.00000000000E+00 -0.45593999997E+02  0.45594000000E+02  0.51100000000E-03 0. -1.
    9900012    2    1    2    0    0  0.12934982088E+02  0.13541157078E+02  0.52059313171E-01  0.72461563958E+02  0.69999991746E+02 0.  0.
         12    1    1    2    0    0 -0.12934982088E+02 -0.13541157078E+02 -0.52059313171E-01  0.18726436042E+02  0.00000000000E+00 0. -1.
         11    1    3    3    0    0  0.21783164892E+00  0.33593230066E+02 -0.12196160010E+02  0.35739318350E+02  0.51100000000E-03 0. -1.
        -11    1    3    3    0    0  0.18502519498E+02 -0.78151597911E+01  0.29503994834E+01  0.20300857314E+02  0.51100000000E-03 0.  1.
         12    1    3    3    0    0 -0.57853690582E+01 -0.12236913197E+02  0.92978198394E+01  0.16421388294E+02  0.00000000000E+00 0. -1.
</event>
<event>
 7    1  0.1283194E-013  0.7246156E+02  0.7816164E-02  0.1226708E+00
        -11   -1    0    0    0    0  0.00000000000E+00  0.00000000000E+00  0.45593999997E+02  0.45594000000E+02  0.51100000000E-03 0. -1.
         11   -1    0    0    0    0 -0.00000000000E+00 -0.00000000000E+00 -0.45593999997E+02  0.45594000000E+02  0.51100000000E-03 0.  1.
    9900012    2    1    2    0    0  0.65399126384E+01 -0.15987603200E+02 -0.72322722991E+01  0.72461556771E+02  0.69999982383E+02 0.  0.
         12    1    1    2    0    0 -0.65399126384E+01  0.15987603200E+02  0.72322722991E+01  0.18726443229E+02  0.00000000000E+00 0. -1.
         11    1    3    3    0    0 -0.87356179212E+01  0.12374549126E+02  0.10948948569E+02  0.18690103305E+02  0.51100000000E-03 0. -1.
        -11    1    3    3    0    0  0.24896416412E+02 -0.21842034475E+02 -0.11334537739E+01  0.33138961026E+02  0.51100000000E-03 0.  1.
        -12    1    3    3    0    0 -0.96208858527E+01 -0.65201178516E+01 -0.17047767094E+02  0.20632492440E+02  0.00000000000E+00 0.  1.
</event>
<event>
 7    1  0.1283194E-013  0.7246156E+02  0.7816164E-02  0.1226708E+00
        -11   -1    0    0    0    0  0.00000000000E+00  0.00000000000E+00  0.45593999997E+02  0.45594000000E+02  0.51100000000E-03 0.  1.
         11   -1    0    0    0    0 -0.00000000000E+00 -0.00000000000E+00 -0.45593999997E+02  0.45594000000E+02  0.51100000000E-03 0. -1.
    9900012    2    1    2    0    0  0.11368299162E+02  0.14816095568E+02 -0.13872470285E+01  0.72461564994E+02  0.69999993095E+02 0.  0.
         12    1    1    2    0    0 -0.11368299162E+02 -0.14816095568E+02  0.13872470285E+01  0.18726435006E+02  0.00000000000E+00 0. -1.
         11    1    3    3    0    0 -0.15901442733E+02 -0.29054049499E+01 -0.17093626675E+02  0.23526353990E+02  0.51100000000E-03 0. -1.
        -11    1    3    3    0    0  0.29607169890E+02  0.13939171091E+01  0.12312789121E+02  0.32095674007E+02  0.51100000000E-03 0.  1.
        -12    1    3    3    0    0 -0.23374279947E+01  0.16327583408E+02  0.33935905256E+01  0.16839536996E+02  0.00000000000E+00 0.  1.
</event>
<event>
 7    1  0.1283194E-013  0.7246156E+02  0.7816164E-02  0.1226708E+00
        -11   -1    0    0    0    0  0.00000000000E+00  0.00000000000E+00  0.45593999997E+02  0.45594000000E+02  0.51100000000E-03 0. -1.
         11   -1    0    0    0    0 -0.00000000000E+00 -0.00000000000E+00 -0.45593999997E+02  0.45594000000E+02  0.51100000000E-03 0.  1.
    9900012    2    1    2    0    0  0.16428250073E+02 -0.89107788507E+01 -0.11790412377E+01  0.72461560979E+02  0.69999987865E+02 0.  0.
         12    1    1    2    0    0 -0.16428250073E+02  0.89107788507E+01  0.11790412377E+01  0.18726439021E+02  0.00000000000E+00 0. -1.
         11    1    3    3    0    0  0.87511239168E+01  0.27579920477E+02  0.80099451292E+01  0.30023214427E+02  0.51100000000E-03 0. -1.
        -11    1    3    3    0    0 -0.49222730988E+01 -0.14560455383E+02 -0.74673351910E+01  0.17087911766E+02  0.51100000000E-03 0.  1.
         12    1    3    3    0    0  0.12599399254E+02 -0.21930243944E+02 -0.17216511759E+01  0.25350434785E+02  0.00000000000E+00 0. -1.
</event>
<event>
 7    1  0.1283194E-013  0.7246174E+02  0.7816164E-02  0.1226708E+00
        -11   -1    0    0    0    0  0.00000000000E+00  0.00000000000E+00  0.45593999997E+02  0.45594000000E+02  0.51100000000E-03 0.  1.
         11   -1    0    0    0    0 -0.00000000000E+00 -0.00000000000E+00 -0.45593999997E+02  0.45594000000E+02  0.51100000000E-03 0. -1.
    9900012    2    1    2    0    0 -0.18189148811E+02  0.11421009462E+01 -0.43038697741E+01  0.72461739720E+02  0.70000220709E+02 0.  0.
         12    1    1    2    0    0  0.18189148811E+02 -0.11421009462E+01  0.43038697741E+01  0.18726260280E+02  0.00000000000E+00 0. -1.
         11    1    3    3    0    0 -0.35224543821E+01 -0.91552867411E+01 -0.31700470531E+02  0.33183531945E+02  0.51100000000E-03 0. -1.
        -11    1    3    3    0    0 -0.19622254527E+02  0.10614404504E+02  0.25696555955E+02  0.34029567202E+02  0.51100000000E-03 0.  1.
         12    1    3    3    0    0  0.49555600983E+01 -0.31701681702E+00  0.17000448013E+01  0.52486405742E+01  0.00000000000E+00 0. -1.
</event>
<event>
 7    1  0.1283194E-013  0.7246159E+02  0.7816164E-02  0.1226708E+00
        -11   -1    0    0    0    0  0.00000000000E+00  0.00000000000E+00  0.45593999997E+02  0.45594000000E+02  0.51100000000E-03 0.  1.
         11   -1    0    0    0    0 -0.00000000000E+00 -0.00000000000E+00 -0.45593999997E+02  0.45594000000E+02  0.51100000000E-03 0. -1.
    9900012    2    1    2    0    0  0.14165132409E+02  0.12189914367E+02  0.11972266962E+01  0.72461592437E+02  0.70000028845E+02 0.  0.
         12    1    1    2    0    0 -0.14165132409E+02 -0.12189914367E+02 -0.11972266962E+01  0.18726407563E+02  0.00000000000E+00 0. -1.
         11    1    3    3    0    0  0.31022979975E+02  0.21369202174E+02  0.69085078047E+01  0.38298767192E+02  0.51100000000E-03 0. -1.
        -11    1    3    3    0    0  0.27600563421E+01 -0.12704458315E+02 -0.57868837381E+01  0.14230572573E+02  0.51100000000E-03 0.  1.
         12    1    3    3    0    0 -0.19617903907E+02  0.35251705084E+01  0.75602629653E-01  0.19932252672E+02  0.00000000000E+00 0. -1.
</event>
<event>
 7    1  0.1283194E-013  0.7246160E+02  0.7816164E-02  0.1226708E+00
        -11   -1    0    0    0    0  0.00000000000E+00  0.00000000000E+00  0.45593999997E+02  0.45594000000E+02  0.51100000000E-03 0. -1.
         11   -1    0    0    0    0 -0.00000000000E+00 -0.00000000000E+00 -0.45593999997E+02  0.45594000000E+02  0.51100000000E-03 0.  1.
    9900012    2    1    2    0    0  0.11343030664E+02  0.25784726554E+01  0.14675322580E+02  0.72461602623E+02  0.70000042114E+02 0.  0.
         12    1    1    2    0    0 -0.11343030664E+02 -0.25784726554E+01 -0.14675322580E+02  0.18726397377E+02  0.00000000000E+00 0. -1.
         11    1    3    3    0    0  0.23604883133E+01 -0.11247597077E+02  0.22620408132E+02  0.25372489224E+02  0.51100000000E-03 0. -1.
        -11    1    3    3    0    0  0.83863201456E+01  0.29338108815E+01 -0.25174731105E+02  0.26696529706E+02  0.51100000000E-03 0.  1.
         12    1    3    3    0    0  0.59622220554E+00  0.10892258851E+02  0.17229645553E+02  0.20392583693E+02  0.00000000000E+00 0. -1.
</event>
<event>
 7    1  0.1283194E-013  0.7246158E+02  0.7816164E-02  0.1226708E+00
        -11   -1    0    0    0    0  0.00000000000E+00  0.00000000000E+00  0.45593999997E+02  0.45594000000E+02  0.51100000000E-03 0. -1.
         11   -1    0    0    0    0 -0.00000000000E+00 -0.00000000000E+00 -0.45593999997E+02  0.45594000000E+02  0.51100000000E-03 0.  1.
    9900012    2    1    2    0    0 -0.14760663840E+02 -0.41538315414E+01 -0.10749290228E+02  0.72461581392E+02  0.70000014457E+02 0.  0.
         12    1    1    2    0    0  0.14760663840E+02  0.41538315414E+01  0.10749290228E+02  0.18726418608E+02  0.00000000000E+00 0. -1.
         11    1    3    3    0    0 -0.42713594040E+00  0.24386308277E+02  0.92286474317E+01  0.26077622786E+02  0.51100000000E-03 0.  1.
        -11    1    3    3    0    0 -0.84019085131E+01 -0.73184273660E+01  0.57262607133E+01  0.12527629776E+02  0.51100000000E-03 0. -1.
         12    1    3    3    0    0 -0.59316193863E+01 -0.21221712452E+02 -0.25704198373E+02  0.33856328831E+02  0.00000000000E+00 0. -1.
</event>
<event>
 7    1  0.1283194E-013  0.7246159E+02  0.7816164E-02  0.1226708E+00
        -11   -1    0    0    0    0  0.00000000000E+00  0.00000000000E+00  0.45593999997E+02  0.45594000000E+02  0.51100000000E-03 0.  1.
         11   -1    0    0    0    0 -0.00000000000E+00 -0.00000000000E+00 -0.45593999997E+02  0.45594000000E+02  0.51100000000E-03 0. -1.
    9900012    2    1    2    0    0  0.17066399779E+02  0.73394443391E+01  0.23556139453E+01  0.72461591864E+02  0.70000028098E+02 0.  0.
         12    1    1    2    0    0 -0.17066399779E+02 -0.73394443391E+01 -0.23556139453E+01  0.18726408136E+02  0.00000000000E+00 0. -1.
         11    1    3    3    0    0  0.10238426993E+02 -0.22660768948E+02  0.56903101206E+01  0.25509125154E+02  0.51100000000E-03 0. -1.
        -11    1    3    3    0    0  0.16677856377E+02  0.18414800455E+02 -0.13868900012E+02  0.28453508693E+02  0.51100000000E-03 0.  1.
         12    1    3    3    0    0 -0.98498835907E+01  0.11585412832E+02  0.10534203837E+02  0.18498958017E+02  0.00000000000E+00 0. -1.
</event>
<event>
 7    1  0.1283194E-013  0.7246142E+02  0.7816164E-02  0.1226708E+00
        -11   -1    0    0    0    0  0.00000000000E+00  0.00000000000E+00  0.45593999997E+02  0.45594000000E+02  0.51100000000E-03 0.  1.
         11   -1    0    0    0    0 -0.00000000000E+00 -0.00000000000E+00 -0.45593999997E+02  0.45594000000E+02  0.51100000000E-03 0. -1.
    9900012    2    1    2    0    0  0.15612897281E+02  0.48697342696E+01 -0.91218332532E+01  0.72461422222E+02  0.69999807108E+02 0.  0.
         12    1    1    2    0    0 -0.15612897281E+02 -0.48697342696E+01  0.91218332532E+01  0.18726577778E+02  0.00000000000E+00 0. -1.
         11    1    3    3    0    0  0.26286655880E+02 -0.81759486585E+00 -0.21469726877E+02  0.33950050238E+02  0.51100000000E-03 0. -1.
        -11    1    3    3    0    0  0.53842530517E+01  0.15220026074E+02  0.11493128328E+02  0.19817451240E+02  0.51100000000E-03 0.  1.
         12    1    3    3    0    0 -0.16058011650E+02 -0.95326969387E+01  0.85476529583E+00  0.18693920745E+02  0.00000000000E+00 0. -1.
</event>
<event>
 7    1  0.1283194E-013  0.7246157E+02  0.7816164E-02  0.1226708E+00
        -11   -1    0    0    0    0  0.00000000000E+00  0.00000000000E+00  0.45593999997E+02  0.45594000000E+02  0.51100000000E-03 0.  1.
         11   -1    0    0    0    0 -0.00000000000E+00 -0.00000000000E+00 -0.45593999997E+02  0.45594000000E+02  0.51100000000E-03 0. -1.
    9900012    2    1    2    0    0  0.12759968962E+02 -0.13705314534E+02 -0.16368622322E+00  0.72461568210E+02  0.69999997285E+02 0.  0.
         12    1    1    2    0    0 -0.12759968962E+02  0.13705314534E+02  0.16368622322E+00  0.18726431790E+02  0.00000000000E+00 0. -1.
         11    1    3    3    0    0  0.30127327184E+01  0.18574865575E+02 -0.19696276455E+02  0.27240512037E+02  0.51100000000E-03 0. -1.
        -11    1    3    3    0    0 -0.48871789318E+01 -0.20936662990E+02  0.61072860895E+01  0.22350107801E+02  0.51100000000E-03 0.  1.
         12    1    3    3    0    0  0.14634415175E+02 -0.11343517119E+02  0.13425304142E+02  0.22870948373E+02  0.00000000000E+00 0. -1.
</event>
<event>
 7    1  0.1283194E-013  0.7246124E+02  0.7816164E-02  0.1226709E+00
        -11   -1    0    0    0    0  0.00000000000E+00  0.00000000000E+00  0.45593999997E+02  0.45594000000E+02  0.51100000000E-03 0. -1.
         11   -1    0    0    0    0 -0.00000000000E+00 -0.00000000000E+00 -0.45593999997E+02  0.45594000000E+02  0.51100000000E-03 0.  1.
    9900012    2    1    2    0    0 -0.43499911862E+01 -0.16310379567E+02 -0.81080535444E+01  0.72461242747E+02  0.69999573307E+02 0.  0.
         12    1    1    2    0    0  0.43499911862E+01  0.16310379567E+02  0.81080535444E+01  0.18726757253E+02  0.00000000000E+00 0. -1.
         11    1    3    3    0    0 -0.24929608403E+02 -0.13767936325E+01  0.75641706498E+01  0.26088265825E+02  0.51100000000E-03 0. -1.
        -11    1    3    3    0    0  0.87362970731E+01 -0.23699486678E+02 -0.18577721676E+02  0.31354749214E+02  0.51100000000E-03 0.  1.
        -12    1    3    3    0    0  0.11843320144E+02  0.87659007430E+01  0.29054974819E+01  0.15018227708E+02  0.00000000000E+00 0.  1.
</event>
<event>
 7    1  0.1283194E-013  0.7246158E+02  0.7816164E-02  0.1226708E+00
        -11   -1    0    0    0    0  0.00000000000E+00  0.00000000000E+00  0.45593999997E+02  0.45594000000E+02  0.51100000000E-03 0.  1.
         11   -1    0    0    0    0 -0.00000000000E+00 -0.00000000000E+00 -0.45593999997E+02  0.45594000000E+02  0.51100000000E-03 0. -1.
    9900012    2    1    2    0    0  0.13512283090E+02  0.12305579162E+02  0.40828609520E+01  0.72461579457E+02  0.70000011936E+02 0.  0.
         12    1    1    2    0    0 -0.13512283090E+02 -0.12305579162E+02 -0.40828609520E+01  0.18726420543E+02  0.00000000000E+00 0. -1.
         11    1    3    3    0    0 -0.13088034572E+02  0.73069724324E+01 -0.58037811468E+01  0.16073965626E+02  0.51100000000E-03 0.  1.
        -11    1    3    3    0    0  0.26911680891E+02  0.23640478359E+02  0.12562920607E+01  0.35842559275E+02  0.51100000000E-03 0. -1.
        -12    1    3    3    0    0 -0.31136322946E+00 -0.18641871629E+02  0.86303500381E+01  0.20545054556E+02  0.00000000000E+00 0.  1.
</event>
<event>
 7    1  0.1283194E-013  0.7246158E+02  0.7816164E-02  0.1226708E+00
        -11   -1    0    0    0    0  0.00000000000E+00  0.00000000000E+00  0.45593999997E+02  0.45594000000E+02  0.51100000000E-03 0. -1.
         11   -1    0    0    0    0 -0.00000000000E+00 -0.00000000000E+00 -0.45593999997E+02  0.45594000000E+02  0.51100000000E-03 0.  1.
    9900012    2    1    2    0    0  0.19973051726E+00  0.11549884326E+02 -0.14739031683E+02  0.72461580823E+02  0.70000013716E+02 0.  0.
         12    1    1    2    0    0 -0.19973051726E+00 -0.11549884326E+02  0.14739031683E+02  0.18726419177E+02  0.00000000000E+00 0. -1.
         11    1    3    3    0    0 -0.63756382418E+01  0.25923670913E+02 -0.27555816224E+02  0.38366762760E+02  0.51100000000E-03 0.  1.
        -11    1    3    3    0    0  0.57915850235E+01 -0.22179954470E+02  0.59857369913E+01  0.23692232587E+02  0.51100000000E-03 0. -1.
         12    1    3    3    0    0  0.78378373552E+00  0.78061678828E+01  0.68310475500E+01  0.10402585476E+02  0.00000000000E+00 0. -1.
</event>
<event>
 7    1  0.1283194E-013  0.7246156E+02  0.7816164E-02  0.1226708E+00
        -11   -1    0    0    0    0  0.00000000000E+00  0.00000000000E+00  0.45593999997E+02  0.45594000000E+02  0.51100000000E-03 0. -1.
         11   -1    0    0    0    0 -0.00000000000E+00 -0.00000000000E+00 -0.45593999997E+02  0.45594000000E+02  0.51100000000E-03 0.  1.
    9900012    2    1    2    0    0 -0.10857584607E+02 -0.14724125224E+02 -0.39990655868E+01  0.72461560598E+02  0.69999987369E+02 0.  0.
         12    1    1    2    0    0  0.10857584607E+02  0.14724125224E+02  0.39990655868E+01  0.18726439402E+02  0.00000000000E+00 0. -1.
         11    1    3    3    0    0 -0.32317756197E+02  0.17545509978E+01  0.15920911405E+02  0.36069256092E+02  0.51100000000E-03 0. -1.
        -11    1    3    3    0    0  0.14371246307E+02 -0.72747968016E+01 -0.38474330965E+01  0.16560740642E+02  0.51100000000E-03 0.  1.
         12    1    3    3    0    0  0.70889252834E+01 -0.92038794199E+01 -0.16072543895E+02  0.19831563864E+02  0.00000000000E+00 0. -1.
</event>
<event>
 7    1  0.1283194E-013  0.7246161E+02  0.7816164E-02  0.1226708E+00
        -11   -1    0    0    0    0  0.00000000000E+00  0.00000000000E+00  0.45593999997E+02  0.45594000000E+02  0.51100000000E-03 0. -1.
         11   -1    0    0    0    0 -0.00000000000E+00 -0.00000000000E+00 -0.45593999997E+02  0.45594000000E+02  0.51100000000E-03 0.  1.
    9900012    2    1    2    0    0  0.11482205156E+02  0.24186884071E+00 -0.14791152173E+02  0.72461609040E+02  0.70000050473E+02 0.  0.
         12    1    1    2    0    0 -0.11482205156E+02 -0.24186884071E+00  0.14791152173E+02  0.18726390960E+02  0.00000000000E+00 0. -1.
         11    1    3    3    0    0 -0.20783299325E+02 -0.72194750583E+01  0.16355677983E+00  0.22002115854E+02  0.51100000000E-03 0. -1.
        -11    1    3    3    0    0  0.27864703071E+02 -0.64766723886E+01  0.12526085596E+01  0.28634908607E+02  0.51100000000E-03 0.  1.
         12    1    3    3    0    0  0.44008014105E+01  0.13938016288E+02 -0.16207317513E+02  0.21824584579E+02  0.00000000000E+00 0. -1.
</event>
<event>
 7    1  0.1283194E-013  0.7246162E+02  0.7816164E-02  0.1226708E+00
        -11   -1    0    0    0    0  0.00000000000E+00  0.00000000000E+00  0.45593999997E+02  0.45594000000E+02  0.51100000000E-03 0.  1.
         11   -1    0    0    0    0 -0.00000000000E+00 -0.00000000000E+00 -0.45593999997E+02  0.45594000000E+02  0.51100000000E-03 0. -1.
    9900012    2    1    2    0    0  0.59211370466E+01 -0.14851113154E+02  0.97499764875E+01  0.72461615743E+02  0.70000059205E+02 0.  0.
         12    1    1    2    0    0 -0.59211370466E+01  0.14851113154E+02 -0.97499764875E+01  0.18726384257E+02  0.00000000000E+00 0. -1.
         11    1    3    3    0    0  0.37202927028E+01 -0.32175364433E+02  0.28081140830E+01  0.32511231277E+02  0.51100000000E-03 0. -1.
        -11    1    3    3    0    0  0.27952064421E+01  0.11108914288E+02 -0.14004802670E+02  0.18092972498E+02  0.51100000000E-03 0.  1.
        -12    1    3    3    0    0 -0.59436209828E+00  0.62153369906E+01  0.20946665075E+02  0.21857411969E+02  0.00000000000E+00 0.  1.
</event>
<event>
 7    1  0.1283194E-013  0.7246152E+02  0.7816164E-02  0.1226708E+00
        -11   -1    0    0    0    0  0.00000000000E+00  0.00000000000E+00  0.45593999997E+02  0.45594000000E+02  0.51100000000E-03 0.  1.
         11   -1    0    0    0    0 -0.00000000000E+00 -0.00000000000E+00 -0.45593999997E+02  0.45594000000E+02  0.51100000000E-03 0. -1.
    9900012    2    1    2    0    0  0.84758755701E+01  0.11821161088E+02  0.11794100544E+02  0.72461518115E+02  0.69999932027E+02 0.  0.
         12    1    1    2    0    0 -0.84758755701E+01 -0.11821161088E+02 -0.11794100544E+02  0.18726481885E+02  0.00000000000E+00 0. -1.
         11    1    3    3    0    0  0.29001895923E+02  0.41723632897E+01 -0.96514206039E+01  0.30849124825E+02  0.51100000000E-03 0. -1.
        -11    1    3    3    0    0 -0.16587709795E+02 -0.45207228879E+01  0.65855116909E+00  0.17205311435E+02  0.51100000000E-03 0.  1.
        -12    1    3    3    0    0 -0.39383105577E+01  0.12169520686E+02  0.20786969979E+02  0.24407081855E+02  0.00000000000E+00 0.  1.
</event>
<event>
 7    1  0.1283194E-013  0.7246153E+02  0.7816164E-02  0.1226708E+00
        -11   -1    0    0    0    0  0.00000000000E+00  0.00000000000E+00  0.45593999997E+02  0.45594000000E+02  0.51100000000E-03 0.  1.
         11   -1    0    0    0    0 -0.00000000000E+00 -0.00000000000E+00 -0.45593999997E+02  0.45594000000E+02  0.51100000000E-03 0. -1.
    9900012    2    1    2    0    0  0.12866097473E+02  0.98552436188E+01  0.93818098806E+01  0.72461530829E+02  0.69999948589E+02 0.  0.
         12    1    1    2    0    0 -0.12866097473E+02 -0.98552436188E+01 -0.93818098806E+01  0.18726469171E+02  0.00000000000E+00 0. -1.
         11    1    3    3    0    0 -0.81954228236E+01  0.79109675851E+01 -0.17670422643E+02  0.21023610537E+02  0.51100000000E-03 0. -1.
        -11    1    3    3    0    0 -0.70545406116E+01  0.27446692792E+01  0.21465388646E+02  0.22760989932E+02  0.51100000000E-03 0.  1.
         12    1    3    3    0    0  0.28116060908E+02 -0.80039324551E+00  0.55868438772E+01  0.28676930360E+02  0.00000000000E+00 0. -1.
</event>
<event>
 7    1  0.1283194E-013  0.7246154E+02  0.7816164E-02  0.1226708E+00
        -11   -1    0    0    0    0  0.00000000000E+00  0.00000000000E+00  0.45593999997E+02  0.45594000000E+02  0.51100000000E-03 0. -1.
         11   -1    0    0    0    0 -0.00000000000E+00 -0.00000000000E+00 -0.45593999997E+02  0.45594000000E+02  0.51100000000E-03 0.  1.
    9900012    2    1    2    0    0  0.67488539698E+01  0.14262689891E+02 -0.10085077006E+02  0.72461544621E+02  0.69999966556E+02 0.  0.
         12    1    1    2    0    0 -0.67488539698E+01 -0.14262689891E+02  0.10085077006E+02  0.18726455379E+02  0.00000000000E+00 0. -1.
         11    1    3    3    0    0  0.94783379213E+01  0.39914353364E+01  0.35798637463E+01  0.10889713977E+02  0.51100000000E-03 0. -1.
        -11    1    3    3    0    0 -0.15281353536E+02  0.26533873899E+02 -0.23688986994E+02  0.38713490349E+02  0.51100000000E-03 0.  1.
        -12    1    3    3    0    0  0.12551869584E+02 -0.16262619344E+02  0.10024046241E+02  0.22858340295E+02  0.00000000000E+00 0.  1.
</event>
<event>
 7    1  0.1283194E-013  0.7246164E+02  0.7816164E-02  0.1226708E+00
        -11   -1    0    0    0    0  0.00000000000E+00  0.00000000000E+00  0.45593999997E+02  0.45594000000E+02  0.51100000000E-03 0. -1.
         11   -1    0    0    0    0 -0.00000000000E+00 -0.00000000000E+00 -0.45593999997E+02  0.45594000000E+02  0.51100000000E-03 0.  1.
    9900012    2    1    2    0    0  0.14456718346E+02 -0.11364057454E+02  0.35409091811E+01  0.72461640370E+02  0.70000091287E+02 0.  0.
         12    1    1    2    0    0 -0.14456718346E+02  0.11364057454E+02 -0.35409091811E+01  0.18726359630E+02  0.00000000000E+00 0. -1.
         11    1    3    3    0    0  0.25457701560E+02 -0.24701850692E+02 -0.71427859066E+01  0.36184186976E+02  0.51100000000E-03 0.  1.
        -11    1    3    3    0    0 -0.16219859272E+02 -0.21472432297E+01 -0.67718129783E+00  0.16375379784E+02  0.51100000000E-03 0. -1.
         12    1    3    3    0    0  0.52188760584E+01  0.15485036468E+02  0.11360876385E+02  0.19902073610E+02  0.00000000000E+00 0. -1.
</event>
<event>
 7    1  0.1283194E-013  0.7246132E+02  0.7816164E-02  0.1226709E+00
        -11   -1    0    0    0    0  0.00000000000E+00  0.00000000000E+00  0.45593999997E+02  0.45594000000E+02  0.51100000000E-03 0.  1.
         11   -1    0    0    0    0 -0.00000000000E+00 -0.00000000000E+00 -0.45593999997E+02  0.45594000000E+02  0.51100000000E-03 0. -1.
    9900012    2    1    2    0    0 -0.16238187864E+02 -0.18016436890E-01  0.93278916343E+01  0.72461317645E+02  0.69999670876E+02 0.  0.
         12    1    1    2    0    0  0.16238187864E+02  0.18016436890E-01 -0.93278916343E+01  0.18726682355E+02  0.00000000000E+00 0. -1.
         11    1    3    3    0    0 -0.64728520730E+01  0.13592993484E+02 -0.66738960667E+01  0.16468399279E+02  0.51100000000E-03 0. -1.
        -11    1    3    3    0    0 -0.10951434195E+02 -0.16537457454E+02  0.33109560630E+02  0.38596170993E+02  0.51100000000E-03 0.  1.
        -12    1    3    3    0    0  0.11860984046E+01  0.29264475323E+01 -0.17107772929E+02  0.17396747373E+02  0.00000000000E+00 0.  1.
</event>
<event>
 7    1  0.1283194E-013  0.7246124E+02  0.7816164E-02  0.1226709E+00
        -11   -1    0    0    0    0  0.00000000000E+00  0.00000000000E+00  0.45593999997E+02  0.45594000000E+02  0.51100000000E-03 0. -1.
         11   -1    0    0    0    0 -0.00000000000E+00 -0.00000000000E+00 -0.45593999997E+02  0.45594000000E+02  0.51100000000E-03 0.  1.
    9900012    2    1    2    0    0 -0.16951123036E+02  0.63408284601E+01 -0.48109252106E+01  0.72461236288E+02  0.69999564894E+02 0.  0.
         12    1    1    2    0    0  0.16951123036E+02 -0.63408284601E+01  0.48109252106E+01  0.18726763712E+02  0.00000000000E+00 0. -1.
         11    1    3    3    0    0 -0.37321356361E+02 -0.12589927304E+02  0.29524158778E+01  0.39498185654E+02  0.51100000000E-03 0. -1.
        -11    1    3    3    0    0  0.14202930443E+02  0.21027464233E+02 -0.48812476829E+01  0.25839970287E+02  0.51100000000E-03 0.  1.
         12    1    3    3    0    0  0.61673028820E+01 -0.20967084687E+01 -0.28820934055E+01  0.71230803477E+01  0.00000000000E+00 0. -1.
</event>
<event>
 7    1  0.1283194E-013  0.7246157E+02  0.7816164E-02  0.1226708E+00
        -11   -1    0    0    0    0  0.00000000000E+00  0.00000000000E+00  0.45593999997E+02  0.45594000000E+02  0.51100000000E-03 0. -1.
         11   -1    0    0    0    0 -0.00000000000E+00 -0.00000000000E+00 -0.45593999997E+02  0.45594000000E+02  0.51100000000E-03 0.  1.
    9900012    2    1    2    0    0  0.18167814241E+02  0.44576060230E+01 -0.86002296224E+00  0.72461565068E+02  0.69999993192E+02 0.  0.
         12    1    1    2    0    0 -0.18167814241E+02 -0.44576060230E+01  0.86002296224E+00  0.18726434932E+02  0.00000000000E+00 0. -1.
         11    1    3    3    0    0  0.36164578625E+02  0.15326436396E+02 -0.18989520828E+02  0.43627723998E+02  0.51100000000E-03 0. -1.
        -11    1    3    3    0    0 -0.15987628859E+02 -0.82704052251E+01  0.11293346014E+02  0.21249553962E+02  0.51100000000E-03 0.  1.
         12    1    3    3    0    0 -0.20091355254E+01 -0.25984251478E+01  0.68361518514E+01  0.75842871085E+01  0.00000000000E+00 0. -1.
</event>
<event>
 7    1  0.1283194E-013  0.7246153E+02  0.7816164E-02  0.1226708E+00
        -11   -1    0    0    0    0  0.00000000000E+00  0.00000000000E+00  0.45593999997E+02  0.45594000000E+02  0.51100000000E-03 0.  1.
         11   -1    0    0    0    0 -0.00000000000E+00 -0.00000000000E+00 -0.45593999997E+02  0.45594000000E+02  0.51100000000E-03 0. -1.
    9900012    2    1    2    0    0  0.14139436529E+02  0.62110244714E+01  0.10591510384E+02  0.72461532566E+02  0.69999950852E+02 0.  0.
         12    1    1    2    0    0 -0.14139436529E+02 -0.62110244714E+01 -0.10591510384E+02  0.18726467434E+02  0.00000000000E+00 0. -1.
         11    1    3    3    0    0  0.12194795865E+02  0.18741206236E+02 -0.13192231631E+02  0.25961140827E+02  0.51100000000E-03 0. -1.
        -11    1    3    3    0    0  0.13415167591E+02  0.12160563710E+01  0.25165449654E+02  0.28543744868E+02  0.51100000000E-03 0.  1.
        -12    1    3    3    0    0 -0.11470526926E+02 -0.13746238135E+02 -0.13817076385E+01  0.17956646871E+02  0.00000000000E+00 0.  1.
</event>
<event>
 7    1  0.1283194E-013  0.7246159E+02  0.7816164E-02  0.1226708E+00
        -11   -1    0    0    0    0  0.00000000000E+00  0.00000000000E+00  0.45593999997E+02  0.45594000000E+02  0.51100000000E-03 0.  1.
         11   -1    0    0    0    0 -0.00000000000E+00 -0.00000000000E+00 -0.45593999997E+02  0.45594000000E+02  0.51100000000E-03 0. -1.
    9900012    2    1    2    0    0  0.17549552432E+02 -0.33651755239E+01  0.56006390823E+01  0.72461592043E+02  0.70000028331E+02 0.  0.
         12    1    1    2    0    0 -0.17549552432E+02  0.33651755239E+01 -0.56006390823E+01  0.18726407957E+02  0.00000000000E+00 0. -1.
         11    1    3    3    0    0 -0.20373523892E+02  0.24925810433E+01 -0.30306304354E+01  0.20747967542E+02  0.51100000000E-03 0. -1.
        -11    1    3    3    0    0  0.12396351274E+02  0.10963496080E+02  0.12717416007E+02  0.20871043131E+02  0.51100000000E-03 0.  1.
         12    1    3    3    0    0  0.25526725050E+02 -0.16821252647E+02 -0.40861464895E+01  0.30842581370E+02  0.00000000000E+00 0. -1.
</event>
<event>
 8    1  0.1283194E-013  0.7246157E+02  0.7816164E-02  0.1226708E+00
        -11   -1    0    0    0    0  0.00000000000E+00  0.00000000000E+00  0.45593999997E+02  0.45594000000E+02  0.51100000000E-03 0.  1.
         11   -1    0    0    0    0 -0.00000000000E+00 -0.00000000000E+00 -0.45593999997E+02  0.45594000000E+02  0.51100000000E-03 0. -1.
    9900012    2    1    2    0    0  0.16748525951E+02  0.33653147409E+01  0.76707702509E+01  0.72461569986E+02  0.69999999598E+02 0.  0.
        -24    2    3    3    0    0  0.21684814527E+02 -0.51569986887E+01 -0.75536113076E+01  0.54329317914E+02  0.48967253595E+02 0.  0.
         12    1    1    2    0    0 -0.16748525951E+02 -0.33653147409E+01 -0.76707702509E+01  0.18726430014E+02  0.00000000000E+00 0. -1.
         11    1    4    4    0    0 -0.50569740192E+01 -0.90901244093E+01 -0.21521916785E+02  0.23903896134E+02  0.51100000000E-03 0. -1.
        -11    1    3    3    0    0 -0.49362885764E+01  0.85223134297E+01  0.15224381558E+02  0.18132252072E+02  0.51100000000E-03 0.  1.
        -12    1    4    4    0    0  0.26741788546E+02  0.39331257206E+01  0.13968305478E+02  0.30425421780E+02  0.00000000000E+00 0.  1.
</event>
<event>
 7    1  0.1283194E-013  0.7246156E+02  0.7816164E-02  0.1226708E+00
        -11   -1    0    0    0    0  0.00000000000E+00  0.00000000000E+00  0.45593999997E+02  0.45594000000E+02  0.51100000000E-03 0.  1.
         11   -1    0    0    0    0 -0.00000000000E+00 -0.00000000000E+00 -0.45593999997E+02  0.45594000000E+02  0.51100000000E-03 0. -1.
    9900012    2    1    2    0    0 -0.16134829904E+02  0.42153249739E+01 -0.85192651101E+01  0.72461559370E+02  0.69999985769E+02 0.  0.
         12    1    1    2    0    0  0.16134829904E+02 -0.42153249739E+01  0.85192651101E+01  0.18726440630E+02  0.00000000000E+00 0. -1.
         11    1    3    3    0    0 -0.19344866342E+02 -0.30712518107E+02 -0.80456647181E+01  0.37178156803E+02  0.51100000000E-03 0. -1.
        -11    1    3    3    0    0  0.37190765846E+01  0.21580057320E+02 -0.93256615778E+00  0.21918031036E+02  0.51100000000E-03 0.  1.
         12    1    3    3    0    0 -0.50904014643E+00  0.13347785761E+02  0.45896576584E+00  0.13365371531E+02  0.00000000000E+00 0. -1.
</event>
<event>
 7    1  0.1283194E-013  0.7246166E+02  0.7816164E-02  0.1226708E+00
        -11   -1    0    0    0    0  0.00000000000E+00  0.00000000000E+00  0.45593999997E+02  0.45594000000E+02  0.51100000000E-03 0.  1.
         11   -1    0    0    0    0 -0.00000000000E+00 -0.00000000000E+00 -0.45593999997E+02  0.45594000000E+02  0.51100000000E-03 0. -1.
    9900012    2    1    2    0    0 -0.10969296295E+02  0.12782693508E+02  0.81824870004E+01  0.72461660047E+02  0.70000116920E+02 0.  0.
         12    1    1    2    0    0  0.10969296295E+02 -0.12782693508E+02 -0.81824870004E+01  0.18726339953E+02  0.00000000000E+00 0. -1.
         11    1    3    3    0    0  0.21986821971E+02  0.17044037094E+02 -0.12922106502E+02  0.30674099458E+02  0.51100000000E-03 0. -1.
        -11    1    3    3    0    0 -0.16160847913E+02  0.48417895503E+01  0.11392197258E+02  0.20356770125E+02  0.51100000000E-03 0.  1.
         12    1    3    3    0    0 -0.16795270353E+02 -0.91031331363E+01  0.97123962448E+01  0.21430790465E+02  0.00000000000E+00 0. -1.
</event>
<event>
 7    1  0.1283194E-013  0.7246157E+02  0.7816164E-02  0.1226708E+00
        -11   -1    0    0    0    0  0.00000000000E+00  0.00000000000E+00  0.45593999997E+02  0.45594000000E+02  0.51100000000E-03 0.  1.
         11   -1    0    0    0    0 -0.00000000000E+00 -0.00000000000E+00 -0.45593999997E+02  0.45594000000E+02  0.51100000000E-03 0. -1.
    9900012    2    1    2    0    0 -0.54916251283E+01  0.17637894557E+02 -0.30701758402E+01  0.72461568128E+02  0.69999997178E+02 0.  0.
         12    1    1    2    0    0  0.54916251283E+01 -0.17637894557E+02  0.30701758402E+01  0.18726431872E+02  0.00000000000E+00 0. -1.
         11    1    3    3    0    0 -0.18546380153E+02 -0.57265271704E+01  0.21479115908E+02  0.28950194311E+02  0.51100000000E-03 0. -1.
        -11    1    3    3    0    0 -0.31876641151E+01  0.13699689497E+02 -0.21917486041E+01  0.14235394516E+02  0.51100000000E-03 0.  1.
         12    1    3    3    0    0  0.16242419140E+02  0.96647322300E+01 -0.22357543144E+02  0.29275979301E+02  0.00000000000E+00 0. -1.
</event>
<event>
 7    1  0.1283194E-013  0.7246155E+02  0.7816164E-02  0.1226708E+00
        -11   -1    0    0    0    0  0.00000000000E+00  0.00000000000E+00  0.45593999997E+02  0.45594000000E+02  0.51100000000E-03 0.  1.
         11   -1    0    0    0    0 -0.00000000000E+00 -0.00000000000E+00 -0.45593999997E+02  0.45594000000E+02  0.51100000000E-03 0. -1.
    9900012    2    1    2    0    0 -0.73373196445E+01 -0.10443082304E+02  0.13703497092E+02  0.72461546515E+02  0.69999969023E+02 0.  0.
         12    1    1    2    0    0  0.73373196445E+01  0.10443082304E+02 -0.13703497092E+02  0.18726453485E+02  0.00000000000E+00 0. -1.
         11    1    3    3    0    0  0.15560036210E+02  0.49386935945E+01 -0.81656608424E+01  0.18253313083E+02  0.51100000000E-03 0. -1.
        -11    1    3    3    0    0 -0.17325498407E+02 -0.28805153959E+02  0.90061029467E+01  0.34799708047E+02  0.51100000000E-03 0.  1.
        -12    1    3    3    0    0 -0.55718574474E+01  0.13423378060E+02  0.12863054988E+02  0.19408525384E+02  0.00000000000E+00 0.  1.
</event>
<event>
 7    1  0.1283194E-013  0.7246149E+02  0.7816164E-02  0.1226708E+00
        -11   -1    0    0    0    0  0.00000000000E+00  0.00000000000E+00  0.45593999997E+02  0.45594000000E+02  0.51100000000E-03 0.  1.
         11   -1    0    0    0    0 -0.00000000000E+00 -0.00000000000E+00 -0.45593999997E+02  0.45594000000E+02  0.51100000000E-03 0. -1.
    9900012    2    1    2    0    0 -0.77442160823E+01  0.14173755225E+02 -0.94770260061E+01  0.72461488263E+02  0.69999893139E+02 0.  0.
         12    1    1    2    0    0  0.77442160823E+01 -0.14173755225E+02  0.94770260061E+01  0.18726511737E+02  0.00000000000E+00 0. -1.
         11    1    3    3    0    0 -0.20231601922E+01 -0.14833608447E+02  0.83612306465E+01  0.17147574024E+02  0.51100000000E-03 0.  1.
        -11    1    3    3    0    0  0.49767407104E+01  0.31913938857E+02 -0.26068556729E+02  0.41507072791E+02  0.51100000000E-03 0. -1.
        -12    1    3    3    0    0 -0.10697796600E+02 -0.29065751851E+01  0.82303000768E+01  0.13806841448E+02  0.00000000000E+00 0.  1.
</event>
<event>
 7    1  0.1283194E-013  0.7246153E+02  0.7816164E-02  0.1226708E+00
        -11   -1    0    0    0    0  0.00000000000E+00  0.00000000000E+00  0.45593999997E+02  0.45594000000E+02  0.51100000000E-03 0.  1.
         11   -1    0    0    0    0 -0.00000000000E+00 -0.00000000000E+00 -0.45593999997E+02  0.45594000000E+02  0.51100000000E-03 0. -1.
    9900012    2    1    2    0    0 -0.87954736481E+01 -0.13762377334E+02  0.91606351888E+01  0.72461531469E+02  0.69999949423E+02 0.  0.
         12    1    1    2    0    0  0.87954736481E+01  0.13762377334E+02 -0.91606351888E+01  0.18726468531E+02  0.00000000000E+00 0. -1.
         11    1    3    3    0    0  0.18169982421E+02  0.16778203813E+02  0.21774922196E+01  0.24827361056E+02  0.51100000000E-03 0.  1.
        -11    1    3    3    0    0 -0.17845744867E+02 -0.21301989960E+02 -0.68939772960E+01  0.28631666199E+02  0.51100000000E-03 0. -1.
        -12    1    3    3    0    0 -0.91197112029E+01 -0.92385911867E+01  0.13877120265E+02  0.19002504214E+02  0.00000000000E+00 0.  1.
</event>
<event>
 7    1  0.1283194E-013  0.7246159E+02  0.7816164E-02  0.1226708E+00
        -11   -1    0    0    0    0  0.00000000000E+00  0.00000000000E+00  0.45593999997E+02  0.45594000000E+02  0.51100000000E-03 0. -1.
         11   -1    0    0    0    0 -0.00000000000E+00 -0.00000000000E+00 -0.45593999997E+02  0.45594000000E+02  0.51100000000E-03 0.  1.
    9900012    2    1    2    0    0 -0.80314332765E+01 -0.64950304618E+01 -0.15620145812E+02  0.72461593608E+02  0.70000030370E+02 0.  0.
         12    1    1    2    0    0  0.80314332765E+01  0.64950304618E+01  0.15620145812E+02  0.18726406392E+02  0.00000000000E+00 0. -1.
         11    1    3    3    0    0 -0.19258665331E+02 -0.28318151035E+02 -0.69734215457E+01  0.34949141286E+02  0.51100000000E-03 0. -1.
        -11    1    3    3    0    0  0.17760800067E+02  0.76716540075E+01 -0.10159817322E+02  0.21852280945E+02  0.51100000000E-03 0.  1.
        -12    1    3    3    0    0 -0.65335680129E+01  0.14151466565E+02  0.15130930556E+01  0.15660171376E+02  0.00000000000E+00 0.  1.
</event>
<event>
 7    1  0.1283194E-013  0.7246163E+02  0.7816164E-02  0.1226708E+00
        -11   -1    0    0    0    0  0.00000000000E+00  0.00000000000E+00  0.45593999997E+02  0.45594000000E+02  0.51100000000E-03 0.  1.
         11   -1    0    0    0    0 -0.00000000000E+00 -0.00000000000E+00 -0.45593999997E+02  0.45594000000E+02  0.51100000000E-03 0. -1.
    9900012    2    1    2    0    0 -0.28171179932E+01 -0.36518483997E+01  0.18149511508E+02  0.72461630398E+02  0.70000078296E+02 0.  0.
         12    1    1    2    0    0  0.28171179932E+01  0.36518483997E+01 -0.18149511508E+02  0.18726369602E+02  0.00000000000E+00 0. -1.
         11    1    3    3    0    0 -0.30593706624E+01  0.84916492460E+01 -0.10800845754E+02  0.14075728224E+02  0.51100000000E-03 0. -1.
        -11    1    3    3    0    0  0.26904477866E+01 -0.30119301203E+02  0.26251745087E+02  0.40044536889E+02  0.51100000000E-03 0.  1.
        -12    1    3    3    0    0 -0.24481951175E+01  0.17975803557E+02  0.26986121743E+01  0.18341365285E+02  0.00000000000E+00 0.  1.
</event>
<event>
 7    1  0.1283194E-013  0.7246156E+02  0.7816164E-02  0.1226708E+00
        -11   -1    0    0    0    0  0.00000000000E+00  0.00000000000E+00  0.45593999997E+02  0.45594000000E+02  0.51100000000E-03 0.  1.
         11   -1    0    0    0    0 -0.00000000000E+00 -0.00000000000E+00 -0.45593999997E+02  0.45594000000E+02  0.51100000000E-03 0. -1.
    9900012    2    1    2    0    0 -0.11072818553E+02 -0.11540922778E+02  0.97406036533E+01  0.72461559634E+02  0.69999986112E+02 0.  0.
         12    1    1    2    0    0  0.11072818553E+02  0.11540922778E+02 -0.97406036533E+01  0.18726440366E+02  0.00000000000E+00 0. -1.
         11    1    3    3    0    0  0.94593244891E+01  0.41373983716E+01  0.30959060664E+02  0.32635261950E+02  0.51100000000E-03 0. -1.
        -11    1    3    3    0    0 -0.31331061550E+01  0.54503983509E+01 -0.47923143303E+01  0.79050283531E+01  0.51100000000E-03 0.  1.
         12    1    3    3    0    0 -0.17399036887E+02 -0.21128719500E+02 -0.16426142680E+02  0.31921269331E+02  0.00000000000E+00 0. -1.
</event>
<event>
 7    1  0.1283194E-013  0.7246149E+02  0.7816164E-02  0.1226708E+00
        -11   -1    0    0    0    0  0.00000000000E+00  0.00000000000E+00  0.45593999997E+02  0.45594000000E+02  0.51100000000E-03 0. -1.
         11   -1    0    0    0    0 -0.00000000000E+00 -0.00000000000E+00 -0.45593999997E+02  0.45594000000E+02  0.51100000000E-03 0.  1.
    9900012    2    1    2    0    0 -0.14307982038E+02  0.10466545457E+02 -0.60345074241E+01  0.72461489283E+02  0.69999894467E+02 0.  0.
         12    1    1    2    0    0  0.14307982038E+02 -0.10466545457E+02  0.60345074241E+01  0.18726510717E+02  0.00000000000E+00 0. -1.
         11    1    3    3    0    0  0.12959612114E+02 -0.17248141271E+02  0.76490489681E+01  0.22890126121E+02  0.51100000000E-03 0. -1.
        -11    1    3    3    0    0  0.25089365088E+01  0.14972601916E+02 -0.56771531531E+01  0.16208134956E+02  0.51100000000E-03 0.  1.
         12    1    3    3    0    0 -0.29776530660E+02  0.12742084812E+02 -0.80064032392E+01  0.33363228206E+02  0.00000000000E+00 0. -1.
</event>
<event>
 7    1  0.1283194E-013  0.7246151E+02  0.7816164E-02  0.1226708E+00
        -11   -1    0    0    0    0  0.00000000000E+00  0.00000000000E+00  0.45593999997E+02  0.45594000000E+02  0.51100000000E-03 0.  1.
         11   -1    0    0    0    0 -0.00000000000E+00 -0.00000000000E+00 -0.45593999997E+02  0.45594000000E+02  0.51100000000E-03 0. -1.
    9900012    2    1    2    0    0 -0.42990324497E+01  0.10474050512E+02  0.14916233030E+02  0.72461510155E+02  0.69999921657E+02 0.  0.
         12    1    1    2    0    0  0.42990324497E+01 -0.10474050512E+02 -0.14916233030E+02  0.18726489845E+02  0.00000000000E+00 0. -1.
         11    1    3    3    0    0 -0.23113341983E+02  0.25699049531E+02 -0.10250550066E+02  0.36051927845E+02  0.51100000000E-03 0. -1.
        -11    1    3    3    0    0  0.84105240314E+01 -0.12282614833E+02  0.18347182122E+02  0.23626650920E+02  0.51100000000E-03 0.  1.
         12    1    3    3    0    0  0.10403785502E+02 -0.29423841866E+01  0.68196009747E+01  0.12782931390E+02  0.00000000000E+00 0. -1.
</event>
<event>
 8    1  0.1283194E-013  0.7246154E+02  0.7816164E-02  0.1226708E+00
        -11   -1    0    0    0    0  0.00000000000E+00  0.00000000000E+00  0.45593999997E+02  0.45594000000E+02  0.51100000000E-03 0.  1.
         11   -1    0    0    0    0 -0.00000000000E+00 -0.00000000000E+00 -0.45593999997E+02  0.45594000000E+02  0.51100000000E-03 0. -1.
    9900012    2    1    2    0    0 -0.13763098630E+02 -0.80388058133E+01  0.98303018845E+01  0.72461544971E+02  0.69999967012E+02 0.  0.
        -24    2    3    3    0    0 -0.19021877870E+02 -0.92692180720E+01  0.22661897674E+02  0.58539672820E+02  0.49654621601E+02 0.  0.
         12    1    1    2    0    0  0.13763098630E+02  0.80388058133E+01 -0.98303018845E+01  0.18726455029E+02  0.00000000000E+00 0. -1.
         11    1    4    4    0    0 -0.14641485955E+02 -0.18054832109E+02  0.35466124797E+02  0.42405142163E+02  0.51100000000E-03 0.  1.
        -11    1    3    3    0    0  0.52587792397E+01  0.12304122588E+01 -0.12831595790E+02  0.13921872151E+02  0.51100000000E-03 0. -1.
        -12    1    4    4    0    0 -0.43803919145E+01  0.87856140370E+01 -0.12804227123E+02  0.16134530657E+02  0.00000000000E+00 0.  1.
</event>
<event>
 7    1  0.1283194E-013  0.7246170E+02  0.7816164E-02  0.1226708E+00
        -11   -1    0    0    0    0  0.00000000000E+00  0.00000000000E+00  0.45593999997E+02  0.45594000000E+02  0.51100000000E-03 0. -1.
         11   -1    0    0    0    0 -0.00000000000E+00 -0.00000000000E+00 -0.45593999997E+02  0.45594000000E+02  0.51100000000E-03 0.  1.
    9900012    2    1    2    0    0  0.17677808085E+02  0.34392336043E+01 -0.51323385351E+01  0.72461704977E+02  0.70000175448E+02 0.  0.
         12    1    1    2    0    0 -0.17677808085E+02 -0.34392336043E+01  0.51323385351E+01  0.18726295023E+02  0.00000000000E+00 0. -1.
         11    1    3    3    0    0  0.20317540378E+02 -0.15983274123E+02  0.92672742616E+01  0.27461789294E+02  0.51100000000E-03 0. -1.
        -11    1    3    3    0    0 -0.23589874248E+01  0.30081692472E+02 -0.46091078865E+01  0.30524038386E+02  0.51100000000E-03 0.  1.
         12    1    3    3    0    0 -0.28074486897E+00 -0.10659184745E+02 -0.97905049102E+01  0.14475877297E+02  0.00000000000E+00 0. -1.
</event>
<event>
 7    1  0.1283194E-013  0.7246158E+02  0.7816164E-02  0.1226708E+00
        -11   -1    0    0    0    0  0.00000000000E+00  0.00000000000E+00  0.45593999997E+02  0.45594000000E+02  0.51100000000E-03 0.  1.
         11   -1    0    0    0    0 -0.00000000000E+00 -0.00000000000E+00 -0.45593999997E+02  0.45594000000E+02  0.51100000000E-03 0. -1.
    9900012    2    1    2    0    0  0.81682174242E-01  0.17772088392E+02  0.59012772985E+01  0.72461578250E+02  0.70000010364E+02 0.  0.
         12    1    1    2    0    0 -0.81682174242E-01 -0.17772088392E+02 -0.59012772985E+01  0.18726421750E+02  0.00000000000E+00 0. -1.
         11    1    3    3    0    0  0.24361260562E+02  0.10657365512E+02 -0.10127893110E+02  0.28453904388E+02  0.51100000000E-03 0. -1.
        -11    1    3    3    0    0 -0.18498498511E+02 -0.11264361083E+02  0.72980340449E+01  0.22854793347E+02  0.51100000000E-03 0.  1.
         12    1    3    3    0    0 -0.57810798771E+01  0.18379083963E+02  0.87311363636E+01  0.21152880515E+02  0.00000000000E+00 0. -1.
</event>
<event>
 7    1  0.1382382E-013  0.7246162E+02  0.7816164E-02  0.1226708E+00
        -11   -1    0    0    0    0  0.00000000000E+00  0.00000000000E+00  0.45593999997E+02  0.45594000000E+02  0.51100000000E-03 0.  1.
         11   -1    0    0    0    0 -0.00000000000E+00 -0.00000000000E+00 -0.45593999997E+02  0.45594000000E+02  0.51100000000E-03 0. -1.
    9900012    2    1    2    0    0 -0.14077834513E+02 -0.12299998192E+02  0.10963748801E+01  0.72461617060E+02  0.70000060922E+02 0.  0.
         12    1    1    2    0    0  0.14077834513E+02  0.12299998192E+02 -0.10963748801E+01  0.18726382940E+02  0.00000000000E+00 0. -1.
         11    1    3    3    0    0  0.97000384202E+01  0.12360057944E+02 -0.14683702256E+02  0.21505182862E+02  0.51100000000E-03 0. -1.
        -11    1    3    3    0    0 -0.27700488975E+02 -0.53901586186E+01  0.54436904341E+01  0.28740296888E+02  0.51100000000E-03 0.  1.
         12    1    3    3    0    0  0.39226160415E+01 -0.19269897518E+02  0.10336386702E+02  0.22216137311E+02  0.00000000000E+00 0. -1.
</event>
<event>
 7    1  0.1283194E-013  0.7246161E+02  0.7816164E-02  0.1226708E+00
        -11   -1    0    0    0    0  0.00000000000E+00  0.00000000000E+00  0.45593999997E+02  0.45594000000E+02  0.51100000000E-03 0.  1.
         11   -1    0    0    0    0 -0.00000000000E+00 -0.00000000000E+00 -0.45593999997E+02  0.45594000000E+02  0.51100000000E-03 0. -1.
    9900012    2    1    2    0    0 -0.11381426474E+02  0.53421666737E+01  0.13878115312E+02  0.72461609585E+02  0.70000051183E+02 0.  0.
         12    1    1    2    0    0  0.11381426474E+02 -0.53421666737E+01 -0.13878115312E+02  0.18726390415E+02  0.00000000000E+00 0. -1.
         11    1    3    3    0    0 -0.47805924811E+01  0.91570505244E+01 -0.64349782677E+01  0.12170233537E+02  0.51100000000E-03 0. -1.
        -11    1    3    3    0    0  0.14792172209E+02  0.17188041104E+02  0.20112652651E+02  0.30310986664E+02  0.51100000000E-03 0.  1.
        -12    1    3    3    0    0 -0.21393006202E+02 -0.21002924955E+02  0.20044092946E+00  0.29980389384E+02  0.00000000000E+00 0.  1.
</event>
<event>
 7    1  0.1283194E-013  0.7246154E+02  0.7816164E-02  0.1226708E+00
        -11   -1    0    0    0    0  0.00000000000E+00  0.00000000000E+00  0.45593999997E+02  0.45594000000E+02  0.51100000000E-03 0.  1.
         11   -1    0    0    0    0 -0.00000000000E+00 -0.00000000000E+00 -0.45593999997E+02  0.45594000000E+02  0.51100000000E-03 0. -1.
    9900012    2    1    2    0    0 -0.10754991954E+02  0.14514026580E+02 -0.49349085990E+01  0.72461544319E+02  0.69999966162E+02 0.  0.
         12    1    1    2    0    0  0.10754991954E+02 -0.14514026580E+02  0.49349085990E+01  0.18726455681E+02  0.00000000000E+00 0. -1.
         11    1    3    3    0    0 -0.56437437693E+00  0.94312273203E+01 -0.24615373587E+02  0.26366326712E+02  0.51100000000E-03 0. -1.
        -11    1    3    3    0    0 -0.24307620560E+01 -0.29226887010E+01  0.30395250336E+02  0.30632041340E+02  0.51100000000E-03 0.  1.
        -12    1    3    3    0    0 -0.77598555210E+01  0.80054879610E+01 -0.10714785348E+02  0.15463176267E+02  0.00000000000E+00 0.  1.
</event>
<event>
 7    1  0.1283194E-013  0.7246156E+02  0.7816164E-02  0.1226708E+00
        -11   -1    0    0    0    0  0.00000000000E+00  0.00000000000E+00  0.45593999997E+02  0.45594000000E+02  0.51100000000E-03 0. -1.
         11   -1    0    0    0    0 -0.00000000000E+00 -0.00000000000E+00 -0.45593999997E+02  0.45594000000E+02  0.51100000000E-03 0.  1.
    9900012    2    1    2    0    0 -0.14296011380E+02  0.98776936227E+01 -0.69810288093E+01  0.72461560512E+02  0.69999987256E+02 0.  0.
         12    1    1    2    0    0  0.14296011380E+02 -0.98776936227E+01  0.69810288093E+01  0.18726439488E+02  0.00000000000E+00 0. -1.
         11    1    3    3    0    0  0.23480695807E+02 -0.15830185924E+00  0.74183571173E+01  0.24625193555E+02  0.51100000000E-03 0. -1.
        -11    1    3    3    0    0 -0.19535700762E+02 -0.54145163916E+01 -0.12588605306E+02  0.23862807375E+02  0.51100000000E-03 0.  1.
         12    1    3    3    0    0 -0.18241006424E+02  0.15450511874E+02 -0.18107806210E+01  0.23973559581E+02  0.00000000000E+00 0. -1.
</event>
<event>
 7    1  0.1283194E-013  0.7246156E+02  0.7816164E-02  0.1226708E+00
        -11   -1    0    0    0    0  0.00000000000E+00  0.00000000000E+00  0.45593999997E+02  0.45594000000E+02  0.51100000000E-03 0. -1.
         11   -1    0    0    0    0 -0.00000000000E+00 -0.00000000000E+00 -0.45593999997E+02  0.45594000000E+02  0.51100000000E-03 0.  1.
    9900012    2    1    2    0    0 -0.57593199934E+01  0.15800710048E+01 -0.17748606856E+02  0.72461563166E+02  0.69999990714E+02 0.  0.
         12    1    1    2    0    0  0.57593199934E+01 -0.15800710048E+01  0.17748606856E+02  0.18726436834E+02  0.00000000000E+00 0. -1.
         11    1    3    3    0    0  0.11032558145E+02 -0.62561973533E+01  0.93386939012E+01  0.15750192018E+02  0.51100000000E-03 0. -1.
        -11    1    3    3    0    0  0.13833665698E+01 -0.13514066109E+02 -0.25176270391E+02  0.28607486379E+02  0.51100000000E-03 0.  1.
        -12    1    3    3    0    0 -0.18175244708E+02  0.21350334467E+02 -0.19110303666E+01  0.28103884769E+02  0.00000000000E+00 0.  1.
</event>
<event>
 7    1  0.1283194E-013  0.7246158E+02  0.7816164E-02  0.1226708E+00
        -11   -1    0    0    0    0  0.00000000000E+00  0.00000000000E+00  0.45593999997E+02  0.45594000000E+02  0.51100000000E-03 0. -1.
         11   -1    0    0    0    0 -0.00000000000E+00 -0.00000000000E+00 -0.45593999997E+02  0.45594000000E+02  0.51100000000E-03 0.  1.
    9900012    2    1    2    0    0 -0.64237554647E+01  0.17539197899E+02  0.13382341597E+01  0.72461575678E+02  0.70000007014E+02 0.  0.
         12    1    1    2    0    0  0.64237554647E+01 -0.17539197899E+02 -0.13382341597E+01  0.18726424322E+02  0.00000000000E+00 0. -1.
         11    1    3    3    0    0 -0.70389627097E+01 -0.41616037681E+01  0.20851522410E+02  0.22397587572E+02  0.51100000000E-03 0. -1.
        -11    1    3    3    0    0  0.15772984463E+02 -0.18805378490E+01 -0.14656957790E+02  0.21613650164E+02  0.51100000000E-03 0.  1.
        -12    1    3    3    0    0 -0.15157777218E+02  0.23581339516E+02 -0.48563304599E+01  0.28450337943E+02  0.00000000000E+00 0.  1.
</event>
<event>
 7    1  0.1283194E-013  0.7246160E+02  0.7816164E-02  0.1226708E+00
        -11   -1    0    0    0    0  0.00000000000E+00  0.00000000000E+00  0.45593999997E+02  0.45594000000E+02  0.51100000000E-03 0. -1.
         11   -1    0    0    0    0 -0.00000000000E+00 -0.00000000000E+00 -0.45593999997E+02  0.45594000000E+02  0.51100000000E-03 0.  1.
    9900012    2    1    2    0    0  0.16186407799E+02  0.37108028117E+01 -0.86549517643E+01  0.72461600320E+02  0.70000039114E+02 0.  0.
         12    1    1    2    0    0 -0.16186407799E+02 -0.37108028117E+01  0.86549517643E+01  0.18726399680E+02  0.00000000000E+00 0. -1.
         11    1    3    3    0    0 -0.59113435187E+01  0.89961894189E+01  0.19949162531E+01  0.10947835283E+02  0.51100000000E-03 0. -1.
        -11    1    3    3    0    0  0.19649682195E+02 -0.26351883613E+02 -0.19845668400E+02  0.38397686582E+02  0.51100000000E-03 0.  1.
        -12    1    3    3    0    0  0.24480691218E+01  0.21066497005E+02  0.91958003828E+01  0.23116078456E+02  0.00000000000E+00 0.  1.
</event>
<event>
 7    1  0.1283194E-013  0.7246154E+02  0.7816164E-02  0.1226708E+00
        -11   -1    0    0    0    0  0.00000000000E+00  0.00000000000E+00  0.45593999997E+02  0.45594000000E+02  0.51100000000E-03 0.  1.
         11   -1    0    0    0    0 -0.00000000000E+00 -0.00000000000E+00 -0.45593999997E+02  0.45594000000E+02  0.51100000000E-03 0. -1.
    9900012    2    1    2    0    0  0.53339305194E+01  0.22273326164E-01  0.17950741089E+02  0.72461536999E+02  0.69999956626E+02 0.  0.
         12    1    1    2    0    0 -0.53339305194E+01 -0.22273326164E-01 -0.17950741089E+02  0.18726463001E+02  0.00000000000E+00 0. -1.
         11    1    3    3    0    0  0.29353341765E+02 -0.21053640971E+02  0.66338397339E+01  0.36727133032E+02  0.51100000000E-03 0. -1.
        -11    1    3    3    0    0 -0.60673482443E+01  0.10198070779E+02 -0.43988866965E-01  0.11866562165E+02  0.51100000000E-03 0.  1.
         12    1    3    3    0    0 -0.17952063001E+02  0.10877843518E+02  0.11360890222E+02  0.23867841801E+02  0.00000000000E+00 0. -1.
</event>
<event>
 7    1  0.1283194E-013  0.7246162E+02  0.7816164E-02  0.1226708E+00
        -11   -1    0    0    0    0  0.00000000000E+00  0.00000000000E+00  0.45593999997E+02  0.45594000000E+02  0.51100000000E-03 0.  1.
         11   -1    0    0    0    0 -0.00000000000E+00 -0.00000000000E+00 -0.45593999997E+02  0.45594000000E+02  0.51100000000E-03 0. -1.
    9900012    2    1    2    0    0 -0.13638994836E+02 -0.37200669983E+01  0.12280719811E+02  0.72461624011E+02  0.70000069976E+02 0.  0.
         12    1    1    2    0    0  0.13638994836E+02  0.37200669983E+01 -0.12280719811E+02  0.18726375989E+02  0.00000000000E+00 0. -1.
         11    1    3    3    0    0 -0.75040826908E+01 -0.78652256408E+01 -0.14539944955E+02  0.18154421802E+02  0.51100000000E-03 0. -1.
        -11    1    3    3    0    0  0.42407305053E+01  0.23938994749E+02  0.97881310991E+01  0.26208143305E+02  0.51100000000E-03 0.  1.
        -12    1    3    3    0    0 -0.10375642650E+02 -0.19793836106E+02  0.17032533667E+02  0.28099058904E+02  0.00000000000E+00 0.  1.
</event>
<event>
 7    1  0.1283194E-013  0.7246156E+02  0.7816164E-02  0.1226708E+00
        -11   -1    0    0    0    0  0.00000000000E+00  0.00000000000E+00  0.45593999997E+02  0.45594000000E+02  0.51100000000E-03 0.  1.
         11   -1    0    0    0    0 -0.00000000000E+00 -0.00000000000E+00 -0.45593999997E+02  0.45594000000E+02  0.51100000000E-03 0. -1.
    9900012    2    1    2    0    0 -0.92573343486E+01 -0.50317508712E+01 -0.15481046046E+02  0.72461560329E+02  0.69999987018E+02 0.  0.
         12    1    1    2    0    0  0.92573343486E+01  0.50317508712E+01  0.15481046046E+02  0.18726439671E+02  0.00000000000E+00 0. -1.
         11    1    3    3    0    0  0.10634217555E+01  0.77458759894E+01 -0.12690326821E+02  0.14905497501E+02  0.51100000000E-03 0. -1.
        -11    1    3    3    0    0 -0.24317939672E+02 -0.13745659286E+02  0.17443717127E+02  0.32933092879E+02  0.51100000000E-03 0.  1.
        -12    1    3    3    0    0  0.13997183568E+02  0.96803242511E+00 -0.20234436352E+02  0.24622969949E+02  0.00000000000E+00 0.  1.
</event>
<event>
 7    1  0.1283194E-013  0.7246155E+02  0.7816164E-02  0.1226708E+00
        -11   -1    0    0    0    0  0.00000000000E+00  0.00000000000E+00  0.45593999997E+02  0.45594000000E+02  0.51100000000E-03 0.  1.
         11   -1    0    0    0    0 -0.00000000000E+00 -0.00000000000E+00 -0.45593999997E+02  0.45594000000E+02  0.51100000000E-03 0. -1.
    9900012    2    1    2    0    0 -0.26887393566E+01 -0.35325391740E+01  0.18192626940E+02  0.72461552731E+02  0.69999977121E+02 0.  0.
         12    1    1    2    0    0  0.26887393566E+01  0.35325391740E+01 -0.18192626940E+02  0.18726447269E+02  0.00000000000E+00 0. -1.
         11    1    3    3    0    0  0.13291481622E+02 -0.16552148892E+02 -0.62478496249E+01  0.22128550378E+02  0.51100000000E-03 0. -1.
        -11    1    3    3    0    0 -0.42971211470E+01  0.93609397788E+00  0.31714941830E+02  0.32018417476E+02  0.51100000000E-03 0.  1.
         12    1    3    3    0    0 -0.11683099832E+02  0.12083515740E+02 -0.72744652658E+01  0.18314584877E+02  0.00000000000E+00 0. -1.
</event>
<event>
 7    1  0.1283194E-013  0.7246159E+02  0.7816164E-02  0.1226708E+00
        -11   -1    0    0    0    0  0.00000000000E+00  0.00000000000E+00  0.45593999997E+02  0.45594000000E+02  0.51100000000E-03 0.  1.
         11   -1    0    0    0    0 -0.00000000000E+00 -0.00000000000E+00 -0.45593999997E+02  0.45594000000E+02  0.51100000000E-03 0. -1.
    9900012    2    1    2    0    0  0.14071750596E+01  0.16827754723E+02  0.80947527615E+01  0.72461588359E+02  0.70000023533E+02 0.  0.
         12    1    1    2    0    0 -0.14071750596E+01 -0.16827754723E+02 -0.80947527615E+01  0.18726411641E+02  0.00000000000E+00 0. -1.
         11    1    3    3    0    0 -0.12194670177E+02  0.87040897941E+01 -0.14789508697E+02  0.21052333069E+02  0.51100000000E-03 0. -1.
        -11    1    3    3    0    0  0.17544081910E+02 -0.11519707481E+02  0.23314217269E+02  0.31369590333E+02  0.51100000000E-03 0.  1.
         12    1    3    3    0    0 -0.39422366735E+01  0.19643372410E+02 -0.42995581061E+00  0.20039664958E+02  0.00000000000E+00 0. -1.
</event>
<event>
 7    1  0.1283194E-013  0.7246163E+02  0.7816164E-02  0.1226708E+00
        -11   -1    0    0    0    0  0.00000000000E+00  0.00000000000E+00  0.45593999997E+02  0.45594000000E+02  0.51100000000E-03 0.  1.
         11   -1    0    0    0    0 -0.00000000000E+00 -0.00000000000E+00 -0.45593999997E+02  0.45594000000E+02  0.51100000000E-03 0. -1.
    9900012    2    1    2    0    0 -0.86048349206E+01 -0.13501946334E+02  0.97124342929E+01  0.72461625052E+02  0.70000071332E+02 0.  0.
         12    1    1    2    0    0  0.86048349206E+01  0.13501946334E+02 -0.97124342929E+01  0.18726374948E+02  0.00000000000E+00 0. -1.
         11    1    3    3    0    0  0.27731305689E+02 -0.13816841134E+00  0.14046613312E+02  0.31086198730E+02  0.51100000000E-03 0. -1.
        -11    1    3    3    0    0 -0.23023777319E+02 -0.15367579876E+02 -0.31906178731E+01  0.27864616917E+02  0.51100000000E-03 0.  1.
         12    1    3    3    0    0 -0.13312363291E+02  0.20038019539E+01 -0.11435611456E+01  0.13510809404E+02  0.00000000000E+00 0. -1.
</event>
<event>
 7    1  0.1283194E-013  0.7246157E+02  0.7816164E-02  0.1226708E+00
        -11   -1    0    0    0    0  0.00000000000E+00  0.00000000000E+00  0.45593999997E+02  0.45594000000E+02  0.51100000000E-03 0. -1.
         11   -1    0    0    0    0 -0.00000000000E+00 -0.00000000000E+00 -0.45593999997E+02  0.45594000000E+02  0.51100000000E-03 0.  1.
    9900012    2    1    2    0    0  0.18538954820E+02  0.75897534143E+00  0.25318866251E+01  0.72461565762E+02  0.69999994096E+02 0.  0.
         12    1    1    2    0    0 -0.18538954820E+02 -0.75897534143E+00 -0.25318866251E+01  0.18726434238E+02  0.00000000000E+00 0. -1.
         11    1    3    3    0    0  0.21778670885E+02 -0.20938754084E+02  0.10139589245E+02  0.31867745425E+02  0.51100000000E-03 0. -1.
        -11    1    3    3    0    0  0.10132305930E+02  0.23085804946E+02 -0.96510085651E+01  0.26995554820E+02  0.51100000000E-03 0.  1.
         12    1    3    3    0    0 -0.13372021996E+02 -0.13880755200E+01  0.20433059456E+01  0.13598265518E+02  0.00000000000E+00 0. -1.
</event>
<event>
 7    1  0.1283194E-013  0.7246149E+02  0.7816164E-02  0.1226708E+00
        -11   -1    0    0    0    0  0.00000000000E+00  0.00000000000E+00  0.45593999997E+02  0.45594000000E+02  0.51100000000E-03 0. -1.
         11   -1    0    0    0    0 -0.00000000000E+00 -0.00000000000E+00 -0.45593999997E+02  0.45594000000E+02  0.51100000000E-03 0.  1.
    9900012    2    1    2    0    0 -0.13860695946E+02  0.11698994615E+02  0.46579733040E+01  0.72461492520E+02  0.69999898684E+02 0.  0.
         12    1    1    2    0    0  0.13860695946E+02 -0.11698994615E+02 -0.46579733040E+01  0.18726507480E+02  0.00000000000E+00 0. -1.
         11    1    3    3    0    0 -0.12260882999E+02 -0.87369098008E+01  0.58347032644E+01  0.16146411590E+02  0.51100000000E-03 0. -1.
        -11    1    3    3    0    0 -0.24954543340E+02  0.13727905130E+02 -0.10405474191E+02  0.30322574198E+02  0.51100000000E-03 0.  1.
        -12    1    3    3    0    0  0.23354730393E+02  0.67079992858E+01  0.92287442303E+01  0.25992506732E+02  0.00000000000E+00 0.  1.
</event>
<event>
 7    1  0.1283194E-013  0.7246157E+02  0.7816164E-02  0.1226708E+00
        -11   -1    0    0    0    0  0.00000000000E+00  0.00000000000E+00  0.45593999997E+02  0.45594000000E+02  0.51100000000E-03 0.  1.
         11   -1    0    0    0    0 -0.00000000000E+00 -0.00000000000E+00 -0.45593999997E+02  0.45594000000E+02  0.51100000000E-03 0. -1.
    9900012    2    1    2    0    0 -0.56457415444E+01 -0.14075399178E+02  0.10985805004E+02  0.72461570250E+02  0.69999999942E+02 0.  0.
         12    1    1    2    0    0  0.56457415444E+01  0.14075399178E+02 -0.10985805004E+02  0.18726429750E+02  0.00000000000E+00 0. -1.
         11    1    3    3    0    0  0.12709206711E+02  0.79701477844E+01  0.27844467988E+02  0.31628493305E+02  0.51100000000E-03 0.  1.
        -11    1    3    3    0    0 -0.22387499522E+02 -0.10064818000E+02 -0.10868441599E+02  0.26844435537E+02  0.51100000000E-03 0. -1.
        -12    1    3    3    0    0  0.40325512671E+01 -0.11980728962E+02 -0.59902213858E+01  0.13988641408E+02  0.00000000000E+00 0.  1.
</event>
<event>
 7    1  0.1283194E-013  0.7246091E+02  0.7816164E-02  0.1226710E+00
        -11   -1    0    0    0    0  0.00000000000E+00  0.00000000000E+00  0.45593999997E+02  0.45594000000E+02  0.51100000000E-03 0.  1.
         11   -1    0    0    0    0 -0.00000000000E+00 -0.00000000000E+00 -0.45593999997E+02  0.45594000000E+02  0.51100000000E-03 0. -1.
    9900012    2    1    2    0    0  0.16759677274E+02  0.75710975373E+01 -0.35349286538E+01  0.72460906771E+02  0.69999135632E+02 0.  0.
         12    1    1    2    0    0 -0.16759677274E+02 -0.75710975373E+01  0.35349286538E+01  0.18727093229E+02  0.00000000000E+00 0. -1.
         11    1    3    3    0    0 -0.13073645336E+02  0.82479362249E+01 -0.23631519524E+02  0.28238225327E+02  0.51100000000E-03 0. -1.
        -11    1    3    3    0    0  0.22289646462E+02 -0.99098966474E+01  0.48552222545E+01  0.24871822900E+02  0.51100000000E-03 0.  1.
        -12    1    3    3    0    0  0.75436761467E+01  0.92330579598E+01  0.15241368616E+02  0.19350858544E+02  0.00000000000E+00 0.  1.
</event>
<event>
 7    1  0.1283194E-013  0.7246159E+02  0.7816164E-02  0.1226708E+00
        -11   -1    0    0    0    0  0.00000000000E+00  0.00000000000E+00  0.45593999997E+02  0.45594000000E+02  0.51100000000E-03 0. -1.
         11   -1    0    0    0    0 -0.00000000000E+00 -0.00000000000E+00 -0.45593999997E+02  0.45594000000E+02  0.51100000000E-03 0.  1.
    9900012    2    1    2    0    0  0.17584906206E+02 -0.52353253742E+01  0.37471340162E+01  0.72461586265E+02  0.70000020805E+02 0.  0.
         12    1    1    2    0    0 -0.17584906206E+02  0.52353253742E+01 -0.37471340162E+01  0.18726413735E+02  0.00000000000E+00 0. -1.
         11    1    3    3    0    0 -0.58199205442E+01 -0.24227600436E+02  0.20218147310E+02  0.32087716948E+02  0.51100000000E-03 0. -1.
        -11    1    3    3    0    0  0.16212881625E+02  0.73968485480E+01 -0.19479774850E+02  0.26401373591E+02  0.51100000000E-03 0.  1.
         12    1    3    3    0    0  0.71919451249E+01  0.11595426514E+02  0.30087615562E+01  0.13972495726E+02  0.00000000000E+00 0. -1.
</event>
<event>
 7    1  0.1283194E-013  0.7246154E+02  0.7816164E-02  0.1226708E+00
        -11   -1    0    0    0    0  0.00000000000E+00  0.00000000000E+00  0.45593999997E+02  0.45594000000E+02  0.51100000000E-03 0.  1.
         11   -1    0    0    0    0 -0.00000000000E+00 -0.00000000000E+00 -0.45593999997E+02  0.45594000000E+02  0.51100000000E-03 0. -1.
    9900012    2    1    2    0    0  0.12649793840E+02 -0.13771054552E+02 -0.10105569044E+01  0.72461536027E+02  0.69999955361E+02 0.  0.
         12    1    1    2    0    0 -0.12649793840E+02  0.13771054552E+02  0.10105569044E+01  0.18726463973E+02  0.00000000000E+00 0. -1.
         11    1    3    3    0    0  0.13883939183E+01 -0.43081821249E+01 -0.11595970145E+02  0.12448075946E+02  0.51100000000E-03 0. -1.
        -11    1    3    3    0    0  0.81029191680E+01 -0.10591142993E+02  0.33915782939E+02  0.36443242742E+02  0.51100000000E-03 0.  1.
        -12    1    3    3    0    0  0.31584807535E+01  0.11282705656E+01 -0.23330369698E+02  0.23570217339E+02  0.00000000000E+00 0.  1.
</event>
<event>
 7    1  0.1283194E-013  0.7246160E+02  0.7816164E-02  0.1226708E+00
        -11   -1    0    0    0    0  0.00000000000E+00  0.00000000000E+00  0.45593999997E+02  0.45594000000E+02  0.51100000000E-03 0.  1.
         11   -1    0    0    0    0 -0.00000000000E+00 -0.00000000000E+00 -0.45593999997E+02  0.45594000000E+02  0.51100000000E-03 0. -1.
    9900012    2    1    2    0    0 -0.17791775981E+02 -0.42107545319E+01 -0.40497165039E+01  0.72461602854E+02  0.70000042416E+02 0.  0.
         12    1    1    2    0    0  0.17791775981E+02  0.42107545319E+01  0.40497165039E+01  0.18726397146E+02  0.00000000000E+00 0. -1.
         11    1    3    3    0    0  0.68799451155E+01 -0.21440467471E+02  0.91661615088E+01  0.24311433673E+02  0.51100000000E-03 0. -1.
        -11    1    3    3    0    0 -0.23895754654E+02  0.24645246741E+02 -0.16223947588E+01  0.34366079823E+02  0.51100000000E-03 0.  1.
         12    1    3    3    0    0 -0.77596644304E+00 -0.74155338020E+01 -0.11593483254E+02  0.13784089359E+02  0.00000000000E+00 0. -1.
</event>
<event>
 7    1  0.1283194E-013  0.7246159E+02  0.7816164E-02  0.1226708E+00
        -11   -1    0    0    0    0  0.00000000000E+00  0.00000000000E+00  0.45593999997E+02  0.45594000000E+02  0.51100000000E-03 0.  1.
         11   -1    0    0    0    0 -0.00000000000E+00 -0.00000000000E+00 -0.45593999997E+02  0.45594000000E+02  0.51100000000E-03 0. -1.
    9900012    2    1    2    0    0 -0.53868671527E+01 -0.99359148688E+01  0.14931098628E+02  0.72461589553E+02  0.70000025088E+02 0.  0.
         12    1    1    2    0    0  0.53868671527E+01  0.99359148688E+01 -0.14931098628E+02  0.18726410447E+02  0.00000000000E+00 0. -1.
         11    1    3    3    0    0 -0.24265729662E+02 -0.12705840298E+02 -0.14757517402E+02  0.31113475117E+02  0.51100000000E-03 0. -1.
        -11    1    3    3    0    0  0.73723226405E+01 -0.35134234656E+01 -0.75500738623E+00  0.82015438778E+01  0.51100000000E-03 0.  1.
         12    1    3    3    0    0  0.11506539869E+02  0.62833488951E+01  0.30443623416E+02  0.33146570558E+02  0.00000000000E+00 0. -1.
</event>
<event>
 7    1  0.1283194E-013  0.7246159E+02  0.7816164E-02  0.1226708E+00
        -11   -1    0    0    0    0  0.00000000000E+00  0.00000000000E+00  0.45593999997E+02  0.45594000000E+02  0.51100000000E-03 0.  1.
         11   -1    0    0    0    0 -0.00000000000E+00 -0.00000000000E+00 -0.45593999997E+02  0.45594000000E+02  0.51100000000E-03 0. -1.
    9900012    2    1    2    0    0 -0.16862915443E+01 -0.16643358754E+02 -0.84162575827E+01  0.72461591869E+02  0.70000028105E+02 0.  0.
         12    1    1    2    0    0  0.16862915443E+01  0.16643358754E+02  0.84162575827E+01  0.18726408131E+02  0.00000000000E+00 0. -1.
         11    1    3    3    0    0 -0.31322642608E+01  0.97255615425E+01 -0.20841975694E+02  0.23211755165E+02  0.51100000000E-03 0. -1.
        -11    1    3    3    0    0 -0.28960297555E+01 -0.83760675401E+01  0.25231289406E+02  0.26742540289E+02  0.51100000000E-03 0.  1.
         12    1    3    3    0    0  0.43420024720E+01 -0.17992852756E+02 -0.12805571294E+02  0.22507296416E+02  0.00000000000E+00 0. -1.
</event>
<event>
 7    1  0.1283194E-013  0.7246157E+02  0.7816164E-02  0.1226708E+00
        -11   -1    0    0    0    0  0.00000000000E+00  0.00000000000E+00  0.45593999997E+02  0.45594000000E+02  0.51100000000E-03 0.  1.
         11   -1    0    0    0    0 -0.00000000000E+00 -0.00000000000E+00 -0.45593999997E+02  0.45594000000E+02  0.51100000000E-03 0. -1.
    9900012    2    1    2    0    0 -0.15342691609E+02 -0.10555258744E+02  0.19665914330E+01  0.72461570687E+02  0.70000000511E+02 0.  0.
         12    1    1    2    0    0  0.15342691609E+02  0.10555258744E+02 -0.19665914330E+01  0.18726429313E+02  0.00000000000E+00 0. -1.
         11    1    3    3    0    0 -0.20689015947E+02  0.18188060843E+02  0.83286039098E+01  0.28778578516E+02  0.51100000000E-03 0.  1.
        -11    1    3    3    0    0 -0.20995696377E+01 -0.33891837816E+02 -0.67539401673E+01  0.34621966601E+02  0.51100000000E-03 0. -1.
        -12    1    3    3    0    0  0.74458939757E+01  0.51485182302E+01  0.39192769055E+00  0.90610255699E+01  0.00000000000E+00 0.  1.
</event>
<event>
 7    1  0.1283194E-013  0.7246155E+02  0.7816164E-02  0.1226708E+00
        -11   -1    0    0    0    0  0.00000000000E+00  0.00000000000E+00  0.45593999997E+02  0.45594000000E+02  0.51100000000E-03 0.  1.
         11   -1    0    0    0    0 -0.00000000000E+00 -0.00000000000E+00 -0.45593999997E+02  0.45594000000E+02  0.51100000000E-03 0. -1.
    9900012    2    1    2    0    0 -0.94469461570E+00  0.17290656314E+02  0.71288529600E+01  0.72461553776E+02  0.69999978481E+02 0.  0.
         12    1    1    2    0    0  0.94469461570E+00 -0.17290656314E+02 -0.71288529600E+01  0.18726446224E+02  0.00000000000E+00 0. -1.
         11    1    3    3    0    0 -0.18467711396E+01 -0.75613622466E+01 -0.75125986940E+00  0.78197924729E+01  0.51100000000E-03 0. -1.
        -11    1    3    3    0    0  0.18934754076E+02  0.15105514958E+02  0.27236390927E+02  0.36448902385E+02  0.51100000000E-03 0.  1.
        -12    1    3    3    0    0 -0.18032677552E+02  0.97465036021E+01 -0.19356278098E+02  0.28192858918E+02  0.00000000000E+00 0.  1.
</event>
<event>
 7    1  0.1283194E-013  0.7246186E+02  0.7816164E-02  0.1226707E+00
        -11   -1    0    0    0    0  0.00000000000E+00  0.00000000000E+00  0.45593999997E+02  0.45594000000E+02  0.51100000000E-03 0.  1.
         11   -1    0    0    0    0 -0.00000000000E+00 -0.00000000000E+00 -0.45593999997E+02  0.45594000000E+02  0.51100000000E-03 0. -1.
    9900012    2    1    2    0    0  0.22823576332E+01 -0.14896650389E+02  0.11115250260E+02  0.72461864854E+02  0.70000383717E+02 0.  0.
         12    1    1    2    0    0 -0.22823576332E+01  0.14896650389E+02 -0.11115250260E+02  0.18726135146E+02  0.00000000000E+00 0. -1.
         11    1    3    3    0    0 -0.93289096445E+01 -0.31531279406E+02  0.18296821135E+02  0.37630091682E+02  0.51100000000E-03 0.  1.
        -11    1    3    3    0    0  0.14667874760E+02  0.78945218203E+01  0.68579387224E+01  0.18013920965E+02  0.51100000000E-03 0. -1.
         12    1    3    3    0    0 -0.30566074825E+01  0.87401071970E+01 -0.14039509597E+02  0.16817852206E+02  0.00000000000E+00 0. -1.
</event>
<event>
 7    1  0.1283194E-013  0.7246155E+02  0.7816164E-02  0.1226708E+00
        -11   -1    0    0    0    0  0.00000000000E+00  0.00000000000E+00  0.45593999997E+02  0.45594000000E+02  0.51100000000E-03 0. -1.
         11   -1    0    0    0    0 -0.00000000000E+00 -0.00000000000E+00 -0.45593999997E+02  0.45594000000E+02  0.51100000000E-03 0.  1.
    9900012    2    1    2    0    0  0.96455470312E+01  0.97642601720E+01 -0.12739800838E+02  0.72461551334E+02  0.69999975301E+02 0.  0.
         12    1    1    2    0    0 -0.96455470312E+01 -0.97642601720E+01  0.12739800838E+02  0.18726448666E+02  0.00000000000E+00 0. -1.
         11    1    3    3    0    0  0.40929404763E+01  0.28756042792E+02  0.16200859579E+02  0.33258532893E+02  0.51100000000E-03 0. -1.
        -11    1    3    3    0    0 -0.57831867048E-01 -0.59360747539E+01  0.10385307232E+01  0.60265142772E+01  0.51100000000E-03 0.  1.
         12    1    3    3    0    0  0.56104384220E+01 -0.13055707867E+02 -0.29979191140E+02  0.33176504165E+02  0.00000000000E+00 0. -1.
</event>
<event>
 7    1  0.1283194E-013  0.7246153E+02  0.7816164E-02  0.1226708E+00
        -11   -1    0    0    0    0  0.00000000000E+00  0.00000000000E+00  0.45593999997E+02  0.45594000000E+02  0.51100000000E-03 0.  1.
         11   -1    0    0    0    0 -0.00000000000E+00 -0.00000000000E+00 -0.45593999997E+02  0.45594000000E+02  0.51100000000E-03 0. -1.
    9900012    2    1    2    0    0 -0.26882817943E+01 -0.12425656331E+02  0.13749797556E+02  0.72461528707E+02  0.69999945825E+02 0.  0.
         12    1    1    2    0    0  0.26882817943E+01  0.12425656331E+02 -0.13749797556E+02  0.18726471293E+02  0.00000000000E+00 0. -1.
         11    1    3    3    0    0 -0.93194041314E+01 -0.32509133031E+02 -0.12398971283E+02  0.36019848874E+02  0.51100000000E-03 0. -1.
        -11    1    3    3    0    0  0.13157852425E+01  0.43127923794E+01  0.16712907722E+02  0.17310481036E+02  0.51100000000E-03 0.  1.
         12    1    3    3    0    0  0.53153370946E+01  0.15770684321E+02  0.94358611172E+01  0.19131198797E+02  0.00000000000E+00 0. -1.
</event>
<event>
 7    1  0.1283194E-013  0.7246156E+02  0.7816164E-02  0.1226708E+00
        -11   -1    0    0    0    0  0.00000000000E+00  0.00000000000E+00  0.45593999997E+02  0.45594000000E+02  0.51100000000E-03 0. -1.
         11   -1    0    0    0    0 -0.00000000000E+00 -0.00000000000E+00 -0.45593999997E+02  0.45594000000E+02  0.51100000000E-03 0.  1.
    9900012    2    1    2    0    0  0.19256047659E+01  0.13773505140E+02 -0.12540416338E+02  0.72461563087E+02  0.69999990610E+02 0.  0.
         12    1    1    2    0    0 -0.19256047659E+01 -0.13773505140E+02  0.12540416338E+02  0.18726436913E+02  0.00000000000E+00 0. -1.
         11    1    3    3    0    0 -0.13804713288E+02  0.38414652913E+01  0.22319736397E+02  0.26523529132E+02  0.51100000000E-03 0. -1.
        -11    1    3    3    0    0 -0.28121239148E+01 -0.45728183857E+01 -0.11894517887E+02  0.13049837735E+02  0.51100000000E-03 0.  1.
         12    1    3    3    0    0  0.18542441969E+02  0.14504858234E+02 -0.22965634848E+02  0.32888196219E+02  0.00000000000E+00 0. -1.
</event>
<event>
 7    1  0.1283194E-013  0.7246156E+02  0.7816164E-02  0.1226708E+00
        -11   -1    0    0    0    0  0.00000000000E+00  0.00000000000E+00  0.45593999997E+02  0.45594000000E+02  0.51100000000E-03 0. -1.
         11   -1    0    0    0    0 -0.00000000000E+00 -0.00000000000E+00 -0.45593999997E+02  0.45594000000E+02  0.51100000000E-03 0.  1.
    9900012    2    1    2    0    0  0.10959915168E+00 -0.26817325110E+01 -0.18533103868E+02  0.72461557726E+02  0.69999983628E+02 0.  0.
         12    1    1    2    0    0 -0.10959915168E+00  0.26817325110E+01  0.18533103868E+02  0.18726442274E+02  0.00000000000E+00 0. -1.
         11    1    3    3    0    0  0.12767897262E+02 -0.88224454297E+01  0.23958269256E+01  0.15703335021E+02  0.51100000000E-03 0. -1.
        -11    1    3    3    0    0  0.59858000792E+01  0.14918740686E+02 -0.30161222429E+02  0.34177448192E+02  0.51100000000E-03 0.  1.
        -12    1    3    3    0    0 -0.18644098190E+02 -0.87780277676E+01  0.92322916349E+01  0.22580774514E+02  0.00000000000E+00 0.  1.
</event>
<event>
 7    1  0.1283194E-013  0.7246158E+02  0.7816164E-02  0.1226708E+00
        -11   -1    0    0    0    0  0.00000000000E+00  0.00000000000E+00  0.45593999997E+02  0.45594000000E+02  0.51100000000E-03 0. -1.
         11   -1    0    0    0    0 -0.00000000000E+00 -0.00000000000E+00 -0.45593999997E+02  0.45594000000E+02  0.51100000000E-03 0.  1.
    9900012    2    1    2    0    0  0.17583537818E+02  0.61361025364E+01  0.19612192911E+01  0.72461576485E+02  0.70000008065E+02 0.  0.
         12    1    1    2    0    0 -0.17583537818E+02 -0.61361025364E+01 -0.19612192911E+01  0.18726423515E+02  0.00000000000E+00 0. -1.
         11    1    3    3    0    0  0.95245423649E+01 -0.51060828300E+01  0.19942653418E+02  0.22682557500E+02  0.51100000000E-03 0. -1.
        -11    1    3    3    0    0  0.19201524031E+02  0.46064157222E+01 -0.27383581116E+02  0.33760599904E+02  0.51100000000E-03 0.  1.
        -12    1    3    3    0    0 -0.11142528578E+02  0.66357696442E+01  0.94021469889E+01  0.16018419082E+02  0.00000000000E+00 0.  1.
</event>
<event>
 7    1  0.1508502E-013  0.7246205E+02  0.7816164E-02  0.1226707E+00
        -11   -1    0    0    0    0  0.00000000000E+00  0.00000000000E+00  0.45593999997E+02  0.45594000000E+02  0.51100000000E-03 0.  1.
         11   -1    0    0    0    0 -0.00000000000E+00 -0.00000000000E+00 -0.45593999997E+02  0.45594000000E+02  0.51100000000E-03 0. -1.
    9900012    2    1    2    0    0  0.14029508619E+02  0.86233992154E+01  0.89146516003E+01  0.72462051712E+02  0.70000627134E+02 0.  0.
         12    1    1    2    0    0 -0.14029508619E+02 -0.86233992154E+01 -0.89146516003E+01  0.18725948288E+02  0.00000000000E+00 0. -1.
         11    1    3    3    0    0 -0.30670847612E+01  0.11155295136E+02 -0.20510027490E+02  0.23548011517E+02  0.51100000000E-03 0. -1.
        -11    1    3    3    0    0  0.16393311053E+02  0.14536845764E+02  0.14969840171E+02  0.26535950088E+02  0.51100000000E-03 0.  1.
         12    1    3    3    0    0  0.70328232739E+00 -0.17068741684E+02  0.14454838919E+02  0.22378090108E+02  0.00000000000E+00 0. -1.
</event>
<event>
 7    1  0.1283194E-013  0.7246184E+02  0.7816164E-02  0.1226707E+00
        -11   -1    0    0    0    0  0.00000000000E+00  0.00000000000E+00  0.45593999997E+02  0.45594000000E+02  0.51100000000E-03 0.  1.
         11   -1    0    0    0    0 -0.00000000000E+00 -0.00000000000E+00 -0.45593999997E+02  0.45594000000E+02  0.51100000000E-03 0. -1.
    9900012    2    1    2    0    0 -0.47816055607E+01  0.54537758530E+01  0.17264464852E+02  0.72461837301E+02  0.70000347825E+02 0.  0.
         12    1    1    2    0    0  0.47816055607E+01 -0.54537758530E+01 -0.17264464852E+02  0.18726162699E+02  0.00000000000E+00 0. -1.
         11    1    3    3    0    0  0.25255818130E+02  0.59013358948E+01  0.68456356400E+01  0.26824333027E+02  0.51100000000E-03 0. -1.
        -11    1    3    3    0    0 -0.10046001042E+02  0.38133687707E+01  0.20273785687E+02  0.22945376542E+02  0.51100000000E-03 0.  1.
         12    1    3    3    0    0 -0.19991422649E+02 -0.42609288125E+01 -0.98549564748E+01  0.22692127732E+02  0.00000000000E+00 0. -1.
</event>
<event>
 7    1  0.1301231E-013  0.7246161E+02  0.7816164E-02  0.1226708E+00
        -11   -1    0    0    0    0  0.00000000000E+00  0.00000000000E+00  0.45593999997E+02  0.45594000000E+02  0.51100000000E-03 0. -1.
         11   -1    0    0    0    0 -0.00000000000E+00 -0.00000000000E+00 -0.45593999997E+02  0.45594000000E+02  0.51100000000E-03 0.  1.
    9900012    2    1    2    0    0  0.57965259434E+01 -0.10537809337E+02 -0.14353838294E+02  0.72461606530E+02  0.70000047203E+02 0.  0.
         12    1    1    2    0    0 -0.57965259434E+01  0.10537809337E+02  0.14353838294E+02  0.18726393470E+02  0.00000000000E+00 0. -1.
         11    1    3    3    0    0 -0.87956954406E+01 -0.96765171685E+01  0.18328781089E+02  0.22515404932E+02  0.51100000000E-03 0. -1.
        -11    1    3    3    0    0 -0.40150140423E+01 -0.82126094468E+01 -0.27922655832E+02  0.29380980253E+02  0.51100000000E-03 0.  1.
         12    1    3    3    0    0  0.18607235426E+02  0.73513172783E+01 -0.47599635511E+01  0.20565221344E+02  0.00000000000E+00 0. -1.
</event>
<event>
 7    1  0.1283194E-013  0.7246158E+02  0.7816164E-02  0.1226708E+00
        -11   -1    0    0    0    0  0.00000000000E+00  0.00000000000E+00  0.45593999997E+02  0.45594000000E+02  0.51100000000E-03 0.  1.
         11   -1    0    0    0    0 -0.00000000000E+00 -0.00000000000E+00 -0.45593999997E+02  0.45594000000E+02  0.51100000000E-03 0. -1.
    9900012    2    1    2    0    0  0.12883957266E+02  0.12967032036E+02  0.40667496593E+01  0.72461582097E+02  0.70000015376E+02 0.  0.
         12    1    1    2    0    0 -0.12883957266E+02 -0.12967032036E+02 -0.40667496593E+01  0.18726417903E+02  0.00000000000E+00 0. -1.
         11    1    3    3    0    0  0.42583312375E+01  0.16140186925E+02 -0.17682940575E+02  0.24317183359E+02  0.51100000000E-03 0. -1.
        -11    1    3    3    0    0  0.20317424947E+02  0.66677586451E+01  0.24604319819E+02  0.32597995580E+02  0.51100000000E-03 0.  1.
        -12    1    3    3    0    0 -0.11691798918E+02 -0.98409135331E+01 -0.28546295847E+01  0.15546403159E+02  0.00000000000E+00 0.  1.
</event>
<event>
 7    1  0.1283194E-013  0.7246173E+02  0.7816164E-02  0.1226708E+00
        -11   -1    0    0    0    0  0.00000000000E+00  0.00000000000E+00  0.45593999997E+02  0.45594000000E+02  0.51100000000E-03 0. -1.
         11   -1    0    0    0    0 -0.00000000000E+00 -0.00000000000E+00 -0.45593999997E+02  0.45594000000E+02  0.51100000000E-03 0.  1.
    9900012    2    1    2    0    0  0.43682984223E+01  0.17316835283E+02 -0.56319008483E+01  0.72461731752E+02  0.70000210328E+02 0.  0.
         12    1    1    2    0    0 -0.43682984223E+01 -0.17316835283E+02  0.56319008483E+01  0.18726268248E+02  0.00000000000E+00 0. -1.
         11    1    3    3    0    0  0.19878848431E+02  0.10984858372E+02  0.16003818167E+02  0.27784130805E+02  0.51100000000E-03 0. -1.
        -11    1    3    3    0    0 -0.25615110494E+02  0.11096046119E+02 -0.15699197899E+02  0.32026878399E+02  0.51100000000E-03 0.  1.
        -12    1    3    3    0    0  0.10104560485E+02 -0.47640692078E+01 -0.59365211162E+01  0.12650722547E+02  0.00000000000E+00 0.  1.
</event>
<event>
 7    1  0.1283194E-013  0.7246156E+02  0.7816164E-02  0.1226708E+00
        -11   -1    0    0    0    0  0.00000000000E+00  0.00000000000E+00  0.45593999997E+02  0.45594000000E+02  0.51100000000E-03 0. -1.
         11   -1    0    0    0    0 -0.00000000000E+00 -0.00000000000E+00 -0.45593999997E+02  0.45594000000E+02  0.51100000000E-03 0.  1.
    9900012    2    1    2    0    0 -0.12349076013E+02 -0.11251898944E+02 -0.84601753624E+01  0.72461562128E+02  0.69999989362E+02 0.  0.
         12    1    1    2    0    0  0.12349076013E+02  0.11251898944E+02  0.84601753624E+01  0.18726437872E+02  0.00000000000E+00 0. -1.
         11    1    3    3    0    0 -0.24113412744E+02  0.33512560460E+01 -0.54826762466E+01  0.24954905937E+02  0.51100000000E-03 0. -1.
        -11    1    3    3    0    0  0.20955720789E+02  0.57571283555E+01  0.72885457230E+01  0.22921816239E+02  0.51100000000E-03 0.  1.
         12    1    3    3    0    0 -0.91913840578E+01 -0.20360283345E+02 -0.10266044839E+02  0.24584839951E+02  0.00000000000E+00 0. -1.
</event>
<event>
 7    1  0.1283194E-013  0.7246156E+02  0.7816164E-02  0.1226708E+00
        -11   -1    0    0    0    0  0.00000000000E+00  0.00000000000E+00  0.45593999997E+02  0.45594000000E+02  0.51100000000E-03 0.  1.
         11   -1    0    0    0    0 -0.00000000000E+00 -0.00000000000E+00 -0.45593999997E+02  0.45594000000E+02  0.51100000000E-03 0. -1.
    9900012    2    1    2    0    0  0.15090579018E+02 -0.21121215698E+01  0.10885440321E+02  0.72461562976E+02  0.69999990466E+02 0.  0.
         12    1    1    2    0    0 -0.15090579018E+02  0.21121215698E+01 -0.10885440321E+02  0.18726437024E+02  0.00000000000E+00 0. -1.
         11    1    3    3    0    0  0.56564729767E+01  0.52100516326E+01 -0.25124925672E+02  0.26275505986E+02  0.51100000000E-03 0. -1.
        -11    1    3    3    0    0  0.24491531804E+01  0.64622224441E+01  0.27881736939E+02  0.28725422977E+02  0.51100000000E-03 0.  1.
        -12    1    3    3    0    0  0.69849528608E+01 -0.13784395646E+02  0.81286290543E+01  0.17460634012E+02  0.00000000000E+00 0.  1.
</event>
<event>
 7    1  0.1283194E-013  0.7246159E+02  0.7816164E-02  0.1226708E+00
        -11   -1    0    0    0    0  0.00000000000E+00  0.00000000000E+00  0.45593999997E+02  0.45594000000E+02  0.51100000000E-03 0.  1.
         11   -1    0    0    0    0 -0.00000000000E+00 -0.00000000000E+00 -0.45593999997E+02  0.45594000000E+02  0.51100000000E-03 0. -1.
    9900012    2    1    2    0    0  0.96283664024E+01  0.11608402004E+02  0.11100361745E+02  0.72461589038E+02  0.70000024417E+02 0.  0.
         12    1    1    2    0    0 -0.96283664024E+01 -0.11608402004E+02 -0.11100361745E+02  0.18726410962E+02  0.00000000000E+00 0. -1.
         11    1    3    3    0    0  0.29231669875E+02  0.14121032619E+02  0.66206211630E+01  0.33131959054E+02  0.51100000000E-03 0.  1.
        -11    1    3    3    0    0 -0.26582819157E+02 -0.59549222997E+01 -0.43203320309E+01  0.27582107299E+02  0.51100000000E-03 0. -1.
         12    1    3    3    0    0  0.69795156842E+01  0.34422916841E+01  0.88000726129E+01  0.11747522684E+02  0.00000000000E+00 0. -1.
</event>
<event>
 7    1  0.1283194E-013  0.7246157E+02  0.7816164E-02  0.1226708E+00
        -11   -1    0    0    0    0  0.00000000000E+00  0.00000000000E+00  0.45593999997E+02  0.45594000000E+02  0.51100000000E-03 0. -1.
         11   -1    0    0    0    0 -0.00000000000E+00 -0.00000000000E+00 -0.45593999997E+02  0.45594000000E+02  0.51100000000E-03 0.  1.
    9900012    2    1    2    0    0 -0.19697633344E+01  0.17859702445E+02  0.52754296575E+01  0.72461572228E+02  0.70000002519E+02 0.  0.
         12    1    1    2    0    0  0.19697633344E+01 -0.17859702445E+02 -0.52754296575E+01  0.18726427772E+02  0.00000000000E+00 0. -1.
         11    1    3    3    0    0  0.36928588436E+01 -0.15949938260E+02 -0.86433471244E+01  0.18513378587E+02  0.51100000000E-03 0. -1.
        -11    1    3    3    0    0 -0.21105885752E+02  0.16292164560E+02  0.14958783439E+02  0.30572180846E+02  0.51100000000E-03 0.  1.
        -12    1    3    3    0    0  0.15443263574E+02  0.17517476146E+02 -0.10400066568E+01  0.23376012795E+02  0.00000000000E+00 0.  1.
</event>
<event>
 7    1  0.1283194E-013  0.7246161E+02  0.7816164E-02  0.1226708E+00
        -11   -1    0    0    0    0  0.00000000000E+00  0.00000000000E+00  0.45593999997E+02  0.45594000000E+02  0.51100000000E-03 0. -1.
         11   -1    0    0    0    0 -0.00000000000E+00 -0.00000000000E+00 -0.45593999997E+02  0.45594000000E+02  0.51100000000E-03 0.  1.
    9900012    2    1    2    0    0 -0.71090567691E+01  0.13122875428E+02  0.11310577333E+02  0.72461609337E+02  0.70000050860E+02 0.  0.
         12    1    1    2    0    0  0.71090567691E+01 -0.13122875428E+02 -0.11310577333E+02  0.18726390663E+02  0.00000000000E+00 0. -1.
         11    1    3    3    0    0 -0.61966868828E+01  0.90907766326E+01  0.29774884200E+02  0.31742477495E+02  0.51100000000E-03 0. -1.
        -11    1    3    3    0    0 -0.10454746166E+02  0.37968874979E+01 -0.26180351912E+02  0.28445191132E+02  0.51100000000E-03 0.  1.
         12    1    3    3    0    0  0.95423762795E+01  0.23521129741E+00  0.77160450449E+01  0.12273940710E+02  0.00000000000E+00 0. -1.
</event>
<event>
 7    1  0.1283194E-013  0.7246154E+02  0.7816164E-02  0.1226708E+00
        -11   -1    0    0    0    0  0.00000000000E+00  0.00000000000E+00  0.45593999997E+02  0.45594000000E+02  0.51100000000E-03 0.  1.
         11   -1    0    0    0    0 -0.00000000000E+00 -0.00000000000E+00 -0.45593999997E+02  0.45594000000E+02  0.51100000000E-03 0. -1.
    9900012    2    1    2    0    0 -0.18184037839E+02 -0.44444860680E+01 -0.51730501375E+00  0.72461540297E+02  0.69999960923E+02 0.  0.
         12    1    1    2    0    0  0.18184037839E+02  0.44444860680E+01  0.51730501375E+00  0.18726459703E+02  0.00000000000E+00 0. -1.
         11    1    3    3    0    0 -0.94381225359E+01 -0.30088459570E+02 -0.60906822507E+01  0.32116817508E+02  0.51100000000E-03 0. -1.
        -11    1    3    3    0    0 -0.61619669158E+01  0.15163528074E+00  0.12383056116E+02  0.13832313926E+02  0.51100000000E-03 0.  1.
         12    1    3    3    0    0 -0.25839483873E+01  0.25492338221E+02 -0.68096788789E+01  0.26512408862E+02  0.00000000000E+00 0. -1.
</event>
<event>
 7    1  0.1283194E-013  0.7246195E+02  0.7816164E-02  0.1226707E+00
        -11   -1    0    0    0    0  0.00000000000E+00  0.00000000000E+00  0.45593999997E+02  0.45594000000E+02  0.51100000000E-03 0. -1.
         11   -1    0    0    0    0 -0.00000000000E+00 -0.00000000000E+00 -0.45593999997E+02  0.45594000000E+02  0.51100000000E-03 0.  1.
    9900012    2    1    2    0    0  0.80734492374E+01 -0.90499987730E+01  0.14268216653E+02  0.72461946843E+02  0.70000490523E+02 0.  0.
         12    1    1    2    0    0 -0.80734492374E+01  0.90499987730E+01 -0.14268216653E+02  0.18726053157E+02  0.00000000000E+00 0. -1.
         11    1    3    3    0    0 -0.14190479542E+02 -0.15942344716E+02  0.34570563569E+02  0.40628215940E+02  0.51100000000E-03 0. -1.
        -11    1    3    3    0    0  0.63359305841E+01 -0.90273366725E+00 -0.80288034529E+01  0.10267454874E+02  0.51100000000E-03 0.  1.
         12    1    3    3    0    0  0.15927998195E+02  0.77950796107E+01 -0.12273543463E+02  0.21566276030E+02  0.00000000000E+00 0. -1.
</event>
<event>
 7    1  0.1283194E-013  0.7246160E+02  0.7816164E-02  0.1226708E+00
        -11   -1    0    0    0    0  0.00000000000E+00  0.00000000000E+00  0.45593999997E+02  0.45594000000E+02  0.51100000000E-03 0.  1.
         11   -1    0    0    0    0 -0.00000000000E+00 -0.00000000000E+00 -0.45593999997E+02  0.45594000000E+02  0.51100000000E-03 0. -1.
    9900012    2    1    2    0    0 -0.39842355745E+01 -0.17827760369E+02 -0.41200634112E+01  0.72461598973E+02  0.70000037360E+02 0.  0.
         12    1    1    2    0    0  0.39842355745E+01  0.17827760369E+02  0.41200634112E+01  0.18726401027E+02  0.00000000000E+00 0. -1.
         11    1    3    3    0    0  0.10478998288E+02 -0.11339190672E+02 -0.30254089677E+02  0.33966109472E+02  0.51100000000E-03 0. -1.
        -11    1    3    3    0    0 -0.13222495920E+02  0.69729442670E+00  0.21335621952E+01  0.13411663050E+02  0.51100000000E-03 0.  1.
         12    1    3    3    0    0 -0.12407379428E+01 -0.71858641237E+01  0.24000464071E+02  0.25083826451E+02  0.00000000000E+00 0. -1.
</event>
<event>
 7    1  0.1283194E-013  0.7246158E+02  0.7816164E-02  0.1226708E+00
        -11   -1    0    0    0    0  0.00000000000E+00  0.00000000000E+00  0.45593999997E+02  0.45594000000E+02  0.51100000000E-03 0.  1.
         11   -1    0    0    0    0 -0.00000000000E+00 -0.00000000000E+00 -0.45593999997E+02  0.45594000000E+02  0.51100000000E-03 0. -1.
    9900012    2    1    2    0    0 -0.86189288535E+01  0.11635061045E+01  0.16584300680E+02  0.72461582562E+02  0.70000015981E+02 0.  0.
         12    1    1    2    0    0  0.86189288535E+01 -0.11635061045E+01 -0.16584300680E+02  0.18726417438E+02  0.00000000000E+00 0. -1.
         11    1    3    3    0    0  0.11533158532E+02  0.96725777147E+01 -0.61821580169E+01  0.16272417871E+02  0.51100000000E-03 0. -1.
        -11    1    3    3    0    0 -0.29734538337E+02 -0.20425937480E+02  0.16319405136E+02  0.39593997984E+02  0.51100000000E-03 0.  1.
        -12    1    3    3    0    0  0.95824509518E+01  0.11916865870E+02  0.64470535605E+01  0.16595166707E+02  0.00000000000E+00 0.  1.
</event>
<event>
 7    1  0.1283194E-013  0.7246157E+02  0.7816164E-02  0.1226708E+00
        -11   -1    0    0    0    0  0.00000000000E+00  0.00000000000E+00  0.45593999997E+02  0.45594000000E+02  0.51100000000E-03 0.  1.
         11   -1    0    0    0    0 -0.00000000000E+00 -0.00000000000E+00 -0.45593999997E+02  0.45594000000E+02  0.51100000000E-03 0. -1.
    9900012    2    1    2    0    0  0.37781701496E+01 -0.97928473788E+01  0.15508214037E+02  0.72461571294E+02  0.70000001302E+02 0.  0.
         12    1    1    2    0    0 -0.37781701496E+01  0.97928473788E+01 -0.15508214037E+02  0.18726428706E+02  0.00000000000E+00 0. -1.
         11    1    3    3    0    0  0.60546893947E+01 -0.24306429926E+02  0.65677935910E+00  0.25057796367E+02  0.51100000000E-03 0. -1.
        -11    1    3    3    0    0 -0.18914419233E+02  0.57123636328E+01  0.19768670148E+02  0.27949716865E+02  0.51100000000E-03 0.  1.
        -12    1    3    3    0    0  0.16637899988E+02  0.88012189141E+01 -0.49172354695E+01  0.19454058061E+02  0.00000000000E+00 0.  1.
</event>
<event>
 7    1  0.1283194E-013  0.7246152E+02  0.7816164E-02  0.1226708E+00
        -11   -1    0    0    0    0  0.00000000000E+00  0.00000000000E+00  0.45593999997E+02  0.45594000000E+02  0.51100000000E-03 0. -1.
         11   -1    0    0    0    0 -0.00000000000E+00 -0.00000000000E+00 -0.45593999997E+02  0.45594000000E+02  0.51100000000E-03 0.  1.
    9900012    2    1    2    0    0  0.16899188578E+02 -0.35739889400E+01  0.72336010041E+01  0.72461522621E+02  0.69999937897E+02 0.  0.
         12    1    1    2    0    0 -0.16899188578E+02  0.35739889400E+01 -0.72336010041E+01  0.18726477379E+02  0.00000000000E+00 0. -1.
         11    1    3    3    0    0 -0.11742020591E+02  0.75568343566E+01  0.98959522351E+01  0.17114633036E+02  0.51100000000E-03 0. -1.
        -11    1    3    3    0    0  0.39247655003E+02 -0.38267208815E+01 -0.97858632058E+01  0.40629857677E+02  0.51100000000E-03 0.  1.
        -12    1    3    3    0    0 -0.10606445834E+02 -0.73041024151E+01  0.71235119748E+01  0.14717031908E+02  0.00000000000E+00 0.  1.
</event>
<event>
 7    1  0.1283194E-013  0.7246158E+02  0.7816164E-02  0.1226708E+00
        -11   -1    0    0    0    0  0.00000000000E+00  0.00000000000E+00  0.45593999997E+02  0.45594000000E+02  0.51100000000E-03 0.  1.
         11   -1    0    0    0    0 -0.00000000000E+00 -0.00000000000E+00 -0.45593999997E+02  0.45594000000E+02  0.51100000000E-03 0. -1.
    9900012    2    1    2    0    0  0.25343668641E+01 -0.50628496679E+01  0.17850020361E+02  0.72461583123E+02  0.70000016712E+02 0.  0.
         12    1    1    2    0    0 -0.25343668641E+01  0.50628496679E+01 -0.17850020361E+02  0.18726416877E+02  0.00000000000E+00 0. -1.
         11    1    3    3    0    0  0.10546430411E+02  0.14405075295E+02 -0.88410071813E+01  0.19922268870E+02  0.51100000000E-03 0. -1.
        -11    1    3    3    0    0  0.44534556598E+01 -0.13656501304E+02  0.34039124786E+02  0.36945842954E+02  0.51100000000E-03 0.  1.
        -12    1    3    3    0    0 -0.12465519207E+02 -0.58114236594E+01 -0.73480972435E+01  0.15593471299E+02  0.00000000000E+00 0.  1.
</event>
<event>
 7    1  0.1283194E-013  0.7246175E+02  0.7816164E-02  0.1226708E+00
        -11   -1    0    0    0    0  0.00000000000E+00  0.00000000000E+00  0.45593999997E+02  0.45594000000E+02  0.51100000000E-03 0. -1.
         11   -1    0    0    0    0 -0.00000000000E+00 -0.00000000000E+00 -0.45593999997E+02  0.45594000000E+02  0.51100000000E-03 0.  1.
    9900012    2    1    2    0    0  0.90202187061E+01  0.15158386376E+02  0.62873945344E+01  0.72461752297E+02  0.70000237091E+02 0.  0.
         12    1    1    2    0    0 -0.90202187061E+01 -0.15158386376E+02 -0.62873945344E+01  0.18726247703E+02  0.00000000000E+00 0. -1.
         11    1    3    3    0    0 -0.14420809121E+02  0.40613912417E+01  0.26278924926E+02  0.30249570742E+02  0.51100000000E-03 0. -1.
        -11    1    3    3    0    0 -0.55352009020E+00  0.92070276429E+01 -0.15034186802E+02  0.17638098412E+02  0.51100000000E-03 0.  1.
         12    1    3    3    0    0  0.23994547917E+02  0.18899674910E+01 -0.49573435894E+01  0.24574083143E+02  0.00000000000E+00 0. -1.
</event>
<event>
 7    1  0.1283194E-013  0.7246150E+02  0.7816164E-02  0.1226708E+00
        -11   -1    0    0    0    0  0.00000000000E+00  0.00000000000E+00  0.45593999997E+02  0.45594000000E+02  0.51100000000E-03 0. -1.
         11   -1    0    0    0    0 -0.00000000000E+00 -0.00000000000E+00 -0.45593999997E+02  0.45594000000E+02  0.51100000000E-03 0.  1.
    9900012    2    1    2    0    0  0.73421853612E+01 -0.87088553031E+01 -0.14863710370E+02  0.72461501862E+02  0.69999910854E+02 0.  0.
         12    1    1    2    0    0 -0.73421853612E+01  0.87088553031E+01  0.14863710370E+02  0.18726498138E+02  0.00000000000E+00 0. -1.
         11    1    3    3    0    0  0.16409111101E+02 -0.11973451312E+02 -0.31917674443E+02  0.37833324009E+02  0.51100000000E-03 0.  1.
        -11    1    3    3    0    0 -0.10559809041E+02  0.12464815549E+02  0.13830247041E+01  0.16394936757E+02  0.51100000000E-03 0. -1.
         12    1    3    3    0    0  0.14928833007E+01 -0.92002195403E+01  0.15670939369E+02  0.18233241096E+02  0.00000000000E+00 0. -1.
</event>
<event>
 7    1  0.1283194E-013  0.7246157E+02  0.7816164E-02  0.1226708E+00
        -11   -1    0    0    0    0  0.00000000000E+00  0.00000000000E+00  0.45593999997E+02  0.45594000000E+02  0.51100000000E-03 0. -1.
         11   -1    0    0    0    0 -0.00000000000E+00 -0.00000000000E+00 -0.45593999997E+02  0.45594000000E+02  0.51100000000E-03 0.  1.
    9900012    2    1    2    0    0  0.33723464034E+01  0.22655239263E+01 -0.18280427001E+02  0.72461566003E+02  0.69999994409E+02 0.  0.
         12    1    1    2    0    0 -0.33723464034E+01 -0.22655239263E+01  0.18280427001E+02  0.18726433997E+02  0.00000000000E+00 0. -1.
         11    1    3    3    0    0  0.17200930503E+02 -0.34129348597E+01  0.38747862029E+01  0.17959234475E+02  0.51100000000E-03 0. -1.
        -11    1    3    3    0    0 -0.28014672803E+02  0.13935906495E+02 -0.21707092849E+02  0.38081875772E+02  0.51100000000E-03 0.  1.
         12    1    3    3    0    0  0.14186088703E+02 -0.82574477091E+01 -0.44812035444E+00  0.16420455756E+02  0.00000000000E+00 0. -1.
</event>
<event>
 8    1  0.1283194E-013  0.7246166E+02  0.7816164E-02  0.1226708E+00
        -11   -1    0    0    0    0  0.00000000000E+00  0.00000000000E+00  0.45593999997E+02  0.45594000000E+02  0.51100000000E-03 0. -1.
         11   -1    0    0    0    0 -0.00000000000E+00 -0.00000000000E+00 -0.45593999997E+02  0.45594000000E+02  0.51100000000E-03 0.  1.
    9900012    2    1    2    0    0  0.45570972435E+01 -0.13150422976E+02 -0.12528967204E+02  0.72461660824E+02  0.70000117932E+02 0.  0.
        -24    2    3    3    0    0  0.54698177069E+01  0.10733211453E+00 -0.23857504768E+02  0.54999218490E+02  0.49252442324E+02 0.  0.
         12    1    1    2    0    0 -0.45570972435E+01  0.13150422976E+02  0.12528967204E+02  0.18726339176E+02  0.00000000000E+00 0. -1.
         11    1    4    4    0    0 -0.81616737826E+01 -0.76965758158E+01 -0.34332931859E+02  0.36119252602E+02  0.51100000000E-03 0.  1.
        -11    1    3    3    0    0 -0.91272046341E+00 -0.13257755090E+02  0.11328537564E+02  0.17462442334E+02  0.51100000000E-03 0. -1.
        -12    1    4    4    0    0  0.13631491490E+02  0.78039079304E+01  0.10475427091E+02  0.18879965889E+02  0.00000000000E+00 0.  1.
</event>
<event>
 7    1  0.1283194E-013  0.7246155E+02  0.7816164E-02  0.1226708E+00
        -11   -1    0    0    0    0  0.00000000000E+00  0.00000000000E+00  0.45593999997E+02  0.45594000000E+02  0.51100000000E-03 0. -1.
         11   -1    0    0    0    0 -0.00000000000E+00 -0.00000000000E+00 -0.45593999997E+02  0.45594000000E+02  0.51100000000E-03 0.  1.
    9900012    2    1    2    0    0 -0.13767865969E+02 -0.12175478740E+02 -0.35893485571E+01  0.72461552420E+02  0.69999976715E+02 0.  0.
         12    1    1    2    0    0  0.13767865969E+02  0.12175478740E+02  0.35893485571E+01  0.18726447580E+02  0.00000000000E+00 0. -1.
         11    1    3    3    0    0 -0.36987912139E+01 -0.54142191642E+01  0.46577793853E+01  0.80429928923E+01  0.51100000000E-03 0. -1.
        -11    1    3    3    0    0 -0.84589465600E+01  0.24361715122E+02 -0.18357383555E+02  0.31655022853E+02  0.51100000000E-03 0.  1.
        -12    1    3    3    0    0 -0.16101281956E+01 -0.31122974698E+02  0.10110255613E+02  0.32763536674E+02  0.00000000000E+00 0.  1.
</event>
<event>
 7    1  0.1283194E-013  0.7246160E+02  0.7816164E-02  0.1226708E+00
        -11   -1    0    0    0    0  0.00000000000E+00  0.00000000000E+00  0.45593999997E+02  0.45594000000E+02  0.51100000000E-03 0. -1.
         11   -1    0    0    0    0 -0.00000000000E+00 -0.00000000000E+00 -0.45593999997E+02  0.45594000000E+02  0.51100000000E-03 0.  1.
    9900012    2    1    2    0    0  0.11663898844E+02  0.99105818670E+01 -0.10789433674E+02  0.72461600234E+02  0.70000039002E+02 0.  0.
         12    1    1    2    0    0 -0.11663898844E+02 -0.99105818670E+01  0.10789433674E+02  0.18726399766E+02  0.00000000000E+00 0. -1.
         11    1    3    3    0    0  0.82161508794E+01  0.16345361576E+02 -0.18309072735E+02  0.25882390249E+02  0.51100000000E-03 0. -1.
        -11    1    3    3    0    0  0.16126721429E+02 -0.20487591344E+02 -0.36412158090E+00  0.26075757475E+02  0.51100000000E-03 0.  1.
         12    1    3    3    0    0 -0.12678973464E+02  0.14052811635E+02  0.78837606423E+01  0.20503452510E+02  0.00000000000E+00 0. -1.
</event>
<event>
 7    1  0.1283194E-013  0.7246152E+02  0.7816164E-02  0.1226708E+00
        -11   -1    0    0    0    0  0.00000000000E+00  0.00000000000E+00  0.45593999997E+02  0.45594000000E+02  0.51100000000E-03 0. -1.
         11   -1    0    0    0    0 -0.00000000000E+00 -0.00000000000E+00 -0.45593999997E+02  0.45594000000E+02  0.51100000000E-03 0.  1.
    9900012    2    1    2    0    0  0.10686181640E+02  0.68719252382E+01 -0.13757293622E+02  0.72461522426E+02  0.69999937643E+02 0.  0.
         12    1    1    2    0    0 -0.10686181640E+02 -0.68719252382E+01  0.13757293622E+02  0.18726477574E+02  0.00000000000E+00 0. -1.
         11    1    3    3    0    0  0.10639104619E+01  0.16353549803E+02  0.21461326574E+02  0.27002944936E+02  0.51100000000E-03 0. -1.
        -11    1    3    3    0    0  0.21269262982E+01  0.85494336315E+01 -0.14666687415E+02  0.17109305974E+02  0.51100000000E-03 0.  1.
         12    1    3    3    0    0  0.74953448797E+01 -0.18031058197E+02 -0.20551932780E+02  0.28349271517E+02  0.00000000000E+00 0. -1.
</event>
<event>
 7    1  0.1283194E-013  0.7246156E+02  0.7816164E-02  0.1226708E+00
        -11   -1    0    0    0    0  0.00000000000E+00  0.00000000000E+00  0.45593999997E+02  0.45594000000E+02  0.51100000000E-03 0.  1.
         11   -1    0    0    0    0 -0.00000000000E+00 -0.00000000000E+00 -0.45593999997E+02  0.45594000000E+02  0.51100000000E-03 0. -1.
    9900012    2    1    2    0    0  0.45120741113E+01  0.15583936216E+02  0.93520994861E+01  0.72461557584E+02  0.69999983442E+02 0.  0.
         12    1    1    2    0    0 -0.45120741113E+01 -0.15583936216E+02 -0.93520994861E+01  0.18726442416E+02  0.00000000000E+00 0. -1.
         11    1    3    3    0    0  0.55932442837E+01  0.23051973040E+02 -0.79914958030E+01  0.25030817967E+02  0.51100000000E-03 0. -1.
        -11    1    3    3    0    0 -0.22122947688E+02 -0.65965370702E+01  0.92096265746E+01  0.24854704537E+02  0.51100000000E-03 0.  1.
        -12    1    3    3    0    0  0.21041777516E+02 -0.87149975414E+00  0.81339687145E+01  0.22576035079E+02  0.00000000000E+00 0.  1.
</event>
<event>
 7    1  0.1283194E-013  0.7246159E+02  0.7816164E-02  0.1226708E+00
        -11   -1    0    0    0    0  0.00000000000E+00  0.00000000000E+00  0.45593999997E+02  0.45594000000E+02  0.51100000000E-03 0.  1.
         11   -1    0    0    0    0 -0.00000000000E+00 -0.00000000000E+00 -0.45593999997E+02  0.45594000000E+02  0.51100000000E-03 0. -1.
    9900012    2    1    2    0    0 -0.13734499919E+02 -0.11898020144E+02  0.45253839213E+01  0.72461588945E+02  0.70000024296E+02 0.  0.
         12    1    1    2    0    0  0.13734499919E+02  0.11898020144E+02 -0.45253839213E+01  0.18726411055E+02  0.00000000000E+00 0. -1.
         11    1    3    3    0    0 -0.18884419944E+02 -0.10988727836E+02  0.37982420639E+01  0.22176566441E+02  0.51100000000E-03 0. -1.
        -11    1    3    3    0    0  0.11487171699E+02 -0.17066371686E+02 -0.16090930421E+02  0.26117698946E+02  0.51100000000E-03 0.  1.
        -12    1    3    3    0    0 -0.63372516733E+01  0.16157079377E+02  0.16818072278E+02  0.24167323558E+02  0.00000000000E+00 0.  1.
</event>
<event>
 7    1  0.1283194E-013  0.7246157E+02  0.7816164E-02  0.1226708E+00
        -11   -1    0    0    0    0  0.00000000000E+00  0.00000000000E+00  0.45593999997E+02  0.45594000000E+02  0.51100000000E-03 0. -1.
         11   -1    0    0    0    0 -0.00000000000E+00 -0.00000000000E+00 -0.45593999997E+02  0.45594000000E+02  0.51100000000E-03 0.  1.
    9900012    2    1    2    0    0  0.78850190003E+00  0.18493284724E+02 -0.28382646779E+01  0.72461573178E+02  0.70000003757E+02 0.  0.
         12    1    1    2    0    0 -0.78850190003E+00 -0.18493284724E+02  0.28382646779E+01  0.18726426822E+02  0.00000000000E+00 0. -1.
         11    1    3    3    0    0  0.81927151039E+01  0.11376833467E+02  0.20813024400E+02  0.25094519430E+02  0.51100000000E-03 0. -1.
        -11    1    3    3    0    0 -0.23569163877E+01 -0.14708174958E+02 -0.19575712374E+02  0.24598658107E+02  0.51100000000E-03 0.  1.
        -12    1    3    3    0    0 -0.50472968162E+01  0.21824626215E+02 -0.40755767036E+01  0.22768395640E+02  0.00000000000E+00 0.  1.
</event>
<event>
 7    1  0.1283194E-013  0.7246142E+02  0.7816164E-02  0.1226708E+00
        -11   -1    0    0    0    0  0.00000000000E+00  0.00000000000E+00  0.45593999997E+02  0.45594000000E+02  0.51100000000E-03 0.  1.
         11   -1    0    0    0    0 -0.00000000000E+00 -0.00000000000E+00 -0.45593999997E+02  0.45594000000E+02  0.51100000000E-03 0. -1.
    9900012    2    1    2    0    0 -0.15720588666E+01 -0.17550209660E+01  0.18577766246E+02  0.72461418188E+02  0.69999801853E+02 0.  0.
         12    1    1    2    0    0  0.15720588666E+01  0.17550209660E+01 -0.18577766246E+02  0.18726581812E+02  0.00000000000E+00 0. -1.
         11    1    3    3    0    0  0.28859715707E+00 -0.32664393063E+02  0.42641399921E+01  0.32942810333E+02  0.51100000000E-03 0. -1.
        -11    1    3    3    0    0 -0.45300506822E+01  0.49346393722E+01  0.11430060990E+02  0.13248332703E+02  0.51100000000E-03 0.  1.
         12    1    3    3    0    0  0.26693946585E+01  0.25974732725E+02  0.28835652642E+01  0.26270275153E+02  0.00000000000E+00 0. -1.
</event>
<event>
 7    1  0.1283194E-013  0.7246157E+02  0.7816164E-02  0.1226708E+00
        -11   -1    0    0    0    0  0.00000000000E+00  0.00000000000E+00  0.45593999997E+02  0.45594000000E+02  0.51100000000E-03 0.  1.
         11   -1    0    0    0    0 -0.00000000000E+00 -0.00000000000E+00 -0.45593999997E+02  0.45594000000E+02  0.51100000000E-03 0. -1.
    9900012    2    1    2    0    0  0.75421841186E+01 -0.63519433545E+01  0.15920038095E+02  0.72461565780E+02  0.69999994119E+02 0.  0.
         12    1    1    2    0    0 -0.75421841186E+01  0.63519433545E+01 -0.15920038095E+02  0.18726434220E+02  0.00000000000E+00 0. -1.
         11    1    3    3    0    0  0.32888391671E+02 -0.35592257429E+01  0.74875857241E+01  0.33917227700E+02  0.51100000000E-03 0. -1.
        -11    1    3    3    0    0 -0.16154074979E+02  0.86203947871E+01  0.13810043700E+02  0.22934311674E+02  0.51100000000E-03 0.  1.
         12    1    3    3    0    0 -0.91921325737E+01 -0.11413112399E+02 -0.53775913293E+01  0.15610026406E+02  0.00000000000E+00 0. -1.
</event>
<event>
 7    1  0.1283194E-013  0.7246159E+02  0.7816164E-02  0.1226708E+00
        -11   -1    0    0    0    0  0.00000000000E+00  0.00000000000E+00  0.45593999997E+02  0.45594000000E+02  0.51100000000E-03 0. -1.
         11   -1    0    0    0    0 -0.00000000000E+00 -0.00000000000E+00 -0.45593999997E+02  0.45594000000E+02  0.51100000000E-03 0.  1.
    9900012    2    1    2    0    0  0.13492470720E+02  0.12982852550E+02 -0.27778288370E+00  0.72461591113E+02  0.70000027120E+02 0.  0.
         12    1    1    2    0    0 -0.13492470720E+02 -0.12982852550E+02  0.27778288370E+00  0.18726408887E+02  0.00000000000E+00 0. -1.
         11    1    3    3    0    0 -0.11497541197E+02 -0.71883992951E+00  0.48343334022E+01  0.12493236735E+02  0.51100000000E-03 0. -1.
        -11    1    3    3    0    0  0.35552576630E+02 -0.70997351192E+01 -0.92691567633E+00  0.36266391008E+02  0.51100000000E-03 0.  1.
        -12    1    3    3    0    0 -0.10562564713E+02  0.20801427599E+02 -0.41852006096E+01  0.23701963370E+02  0.00000000000E+00 0.  1.
</event>
<event>
 7    1  0.1283194E-013  0.7246158E+02  0.7816164E-02  0.1226708E+00
        -11   -1    0    0    0    0  0.00000000000E+00  0.00000000000E+00  0.45593999997E+02  0.45594000000E+02  0.51100000000E-03 0. -1.
         11   -1    0    0    0    0 -0.00000000000E+00 -0.00000000000E+00 -0.45593999997E+02  0.45594000000E+02  0.51100000000E-03 0.  1.
    9900012    2    1    2    0    0  0.17836141624E+02  0.32955343266E+01 -0.46572900593E+01  0.72461578953E+02  0.70000011279E+02 0.  0.
         12    1    1    2    0    0 -0.17836141624E+02 -0.32955343266E+01  0.46572900593E+01  0.18726421047E+02  0.00000000000E+00 0. -1.
         11    1    3    3    0    0  0.25629933499E+02 -0.26357612118E+01  0.10057707951E+02  0.27658601155E+02  0.51100000000E-03 0. -1.
        -11    1    3    3    0    0 -0.15863729227E+02  0.16400879644E+02  0.26588909742E+01  0.22972080000E+02  0.51100000000E-03 0.  1.
         12    1    3    3    0    0  0.80699373517E+01 -0.10469584105E+02 -0.17373888985E+02  0.21830897798E+02  0.00000000000E+00 0. -1.
</event>
<event>
 7    1  0.1283194E-013  0.7246163E+02  0.7816164E-02  0.1226708E+00
        -11   -1    0    0    0    0  0.00000000000E+00  0.00000000000E+00  0.45593999997E+02  0.45594000000E+02  0.51100000000E-03 0.  1.
         11   -1    0    0    0    0 -0.00000000000E+00 -0.00000000000E+00 -0.45593999997E+02  0.45594000000E+02  0.51100000000E-03 0. -1.
    9900012    2    1    2    0    0 -0.15994740910E+00  0.12768950588E+02  0.13696904734E+02  0.72461631383E+02  0.70000079580E+02 0.  0.
         12    1    1    2    0    0  0.15994740910E+00 -0.12768950588E+02 -0.13696904734E+02  0.18726368617E+02  0.00000000000E+00 0. -1.
         11    1    3    3    0    0 -0.10230374196E+02  0.19149965063E+02 -0.18464982526E+01  0.21789705693E+02  0.51100000000E-03 0. -1.
        -11    1    3    3    0    0  0.26040837558E+02  0.74203636783E+01  0.76585276297E+01  0.28139652868E+02  0.51100000000E-03 0.  1.
        -12    1    3    3    0    0 -0.15970410771E+02 -0.13801378154E+02  0.78848753566E+01  0.22532272822E+02  0.00000000000E+00 0.  1.
</event>
<event>
 7    1  0.1283194E-013  0.7246160E+02  0.7816164E-02  0.1226708E+00
        -11   -1    0    0    0    0  0.00000000000E+00  0.00000000000E+00  0.45593999997E+02  0.45594000000E+02  0.51100000000E-03 0. -1.
         11   -1    0    0    0    0 -0.00000000000E+00 -0.00000000000E+00 -0.45593999997E+02  0.45594000000E+02  0.51100000000E-03 0.  1.
    9900012    2    1    2    0    0  0.87680301668E+01 -0.15611462836E+02 -0.54846837321E+01  0.72461604711E+02  0.70000044834E+02 0.  0.
         12    1    1    2    0    0 -0.87680301668E+01  0.15611462836E+02  0.54846837321E+01  0.18726395289E+02  0.00000000000E+00 0. -1.
         11    1    3    3    0    0  0.12390608607E+01 -0.95359119904E+00  0.38028297380E+01  0.41117055183E+01  0.51100000000E-03 0. -1.
        -11    1    3    3    0    0 -0.22323111313E+02 -0.20695153697E+02 -0.19588802643E+02  0.36198506523E+02  0.51100000000E-03 0.  1.
        -12    1    3    3    0    0  0.29852080619E+02  0.60372820601E+01  0.10301289173E+02  0.32151392669E+02  0.00000000000E+00 0.  1.
</event>
<event>
 7    1  0.1283194E-013  0.7246154E+02  0.7816164E-02  0.1226708E+00
        -11   -1    0    0    0    0  0.00000000000E+00  0.00000000000E+00  0.45593999997E+02  0.45594000000E+02  0.51100000000E-03 0.  1.
         11   -1    0    0    0    0 -0.00000000000E+00 -0.00000000000E+00 -0.45593999997E+02  0.45594000000E+02  0.51100000000E-03 0. -1.
    9900012    2    1    2    0    0 -0.12312770441E+02 -0.97988163355E+00  0.14075367016E+02  0.72461536357E+02  0.69999955790E+02 0.  0.
         12    1    1    2    0    0  0.12312770441E+02  0.97988163355E+00 -0.14075367016E+02  0.18726463643E+02  0.00000000000E+00 0. -1.
         11    1    3    3    0    0  0.49623849374E+01 -0.19327138426E+02 -0.20474104626E+01  0.20058799412E+02  0.51100000000E-03 0. -1.
        -11    1    3    3    0    0 -0.31378067256E+02  0.12810240584E+02  0.15420800949E+02  0.37235553852E+02  0.51100000000E-03 0.  1.
         12    1    3    3    0    0  0.14102911877E+02  0.55370162080E+01  0.70197652944E+00  0.15167183092E+02  0.00000000000E+00 0. -1.
</event>
<event>
 7    1  0.1283194E-013  0.7246164E+02  0.7816164E-02  0.1226708E+00
        -11   -1    0    0    0    0  0.00000000000E+00  0.00000000000E+00  0.45593999997E+02  0.45594000000E+02  0.51100000000E-03 0. -1.
         11   -1    0    0    0    0 -0.00000000000E+00 -0.00000000000E+00 -0.45593999997E+02  0.45594000000E+02  0.51100000000E-03 0.  1.
    9900012    2    1    2    0    0 -0.75937212011E+01  0.16119242112E+02  0.57603833400E+01  0.72461639324E+02  0.70000089924E+02 0.  0.
         12    1    1    2    0    0  0.75937212011E+01 -0.16119242112E+02 -0.57603833400E+01  0.18726360676E+02  0.00000000000E+00 0. -1.
         11    1    3    3    0    0  0.15493933293E+01  0.67266851354E+01  0.23740429979E+02  0.24723610749E+02  0.51100000000E-03 0. -1.
        -11    1    3    3    0    0  0.94264542749E+01  0.17436028957E+02 -0.19025342120E+02  0.27474293240E+02  0.51100000000E-03 0.  1.
         12    1    3    3    0    0 -0.18569568805E+02 -0.80434719803E+01  0.10452954806E+01  0.20263735336E+02  0.00000000000E+00 0. -1.
</event>
<event>
 7    1  0.1283194E-013  0.7246151E+02  0.7816164E-02  0.1226708E+00
        -11   -1    0    0    0    0  0.00000000000E+00  0.00000000000E+00  0.45593999997E+02  0.45594000000E+02  0.51100000000E-03 0. -1.
         11   -1    0    0    0    0 -0.00000000000E+00 -0.00000000000E+00 -0.45593999997E+02  0.45594000000E+02  0.51100000000E-03 0.  1.
    9900012    2    1    2    0    0  0.10675865619E+02  0.13426024145E+02 -0.75132737850E+01  0.72461507696E+02  0.69999918454E+02 0.  0.
         12    1    1    2    0    0 -0.10675865619E+02 -0.13426024145E+02  0.75132737850E+01  0.18726492304E+02  0.00000000000E+00 0. -1.
         11    1    3    3    0    0  0.13135109585E+02 -0.16663142028E+02 -0.11847986118E+02  0.24301567467E+02  0.51100000000E-03 0. -1.
        -11    1    3    3    0    0  0.12522377083E+02  0.23096165389E+02 -0.80772646067E+01  0.27486087159E+02  0.51100000000E-03 0.  1.
         12    1    3    3    0    0 -0.14981621049E+02  0.69930007838E+01  0.12411976939E+02  0.20673853070E+02  0.00000000000E+00 0. -1.
</event>
<event>
 7    1  0.1283194E-013  0.7246161E+02  0.7816164E-02  0.1226708E+00
        -11   -1    0    0    0    0  0.00000000000E+00  0.00000000000E+00  0.45593999997E+02  0.45594000000E+02  0.51100000000E-03 0.  1.
         11   -1    0    0    0    0 -0.00000000000E+00 -0.00000000000E+00 -0.45593999997E+02  0.45594000000E+02  0.51100000000E-03 0. -1.
    9900012    2    1    2    0    0 -0.85091828127E+01  0.12905980134E+02  0.10569155713E+02  0.72461613060E+02  0.70000055710E+02 0.  0.
         12    1    1    2    0    0  0.85091828127E+01 -0.12905980134E+02 -0.10569155713E+02  0.18726386940E+02  0.00000000000E+00 0. -1.
         11    1    3    3    0    0  0.11360497475E+02  0.18039460730E+02 -0.12297242012E+02  0.24611078963E+02  0.51100000000E-03 0. -1.
        -11    1    3    3    0    0  0.59756570766E+01 -0.10503744199E+02  0.16918826277E+02  0.20791435798E+02  0.51100000000E-03 0.  1.
        -12    1    3    3    0    0 -0.25845337365E+02  0.53702636021E+01  0.59475714479E+01  0.27059098299E+02  0.00000000000E+00 0.  1.
</event>
<event>
 7    1  0.1283194E-013  0.7246162E+02  0.7816164E-02  0.1226708E+00
        -11   -1    0    0    0    0  0.00000000000E+00  0.00000000000E+00  0.45593999997E+02  0.45594000000E+02  0.51100000000E-03 0. -1.
         11   -1    0    0    0    0 -0.00000000000E+00 -0.00000000000E+00 -0.45593999997E+02  0.45594000000E+02  0.51100000000E-03 0.  1.
    9900012    2    1    2    0    0 -0.15136425206E+02  0.87293192174E+01  0.67353580835E+01  0.72461616726E+02  0.70000060486E+02 0.  0.
         12    1    1    2    0    0  0.15136425206E+02 -0.87293192174E+01 -0.67353580835E+01  0.18726383274E+02  0.00000000000E+00 0. -1.
         11    1    3    3    0    0  0.67748575388E+01  0.95570216978E+01 -0.17862962691E+02  0.21361666479E+02  0.51100000000E-03 0. -1.
        -11    1    3    3    0    0  0.14310700007E+01  0.11906817641E+02  0.21114559383E+02  0.24282604594E+02  0.51100000000E-03 0.  1.
         12    1    3    3    0    0 -0.23342352746E+02 -0.12734520121E+02  0.34837613923E+01  0.26817345653E+02  0.00000000000E+00 0. -1.
</event>
<event>
 7    1  0.1283194E-013  0.7246155E+02  0.7816164E-02  0.1226708E+00
        -11   -1    0    0    0    0  0.00000000000E+00  0.00000000000E+00  0.45593999997E+02  0.45594000000E+02  0.51100000000E-03 0.  1.
         11   -1    0    0    0    0 -0.00000000000E+00 -0.00000000000E+00 -0.45593999997E+02  0.45594000000E+02  0.51100000000E-03 0. -1.
    9900012    2    1    2    0    0  0.17204503142E+02 -0.66783974328E+01 -0.31755210950E+01  0.72461551995E+02  0.69999976162E+02 0.  0.
         12    1    1    2    0    0 -0.17204503142E+02  0.66783974328E+01  0.31755210950E+01  0.18726448005E+02  0.00000000000E+00 0. -1.
         11    1    3    3    0    0 -0.19279425891E+02 -0.93144650491E+01  0.58200809111E+01  0.22188484939E+02  0.51100000000E-03 0. -1.
        -11    1    3    3    0    0  0.19201178741E+02  0.17754067134E+02 -0.18133017508E+01  0.26214122689E+02  0.51100000000E-03 0.  1.
         12    1    3    3    0    0  0.17282750292E+02 -0.15117999518E+02 -0.71823002553E+01  0.24058944367E+02  0.00000000000E+00 0. -1.
</event>
<event>
 7    1  0.1283194E-013  0.7246150E+02  0.7816164E-02  0.1226708E+00
        -11   -1    0    0    0    0  0.00000000000E+00  0.00000000000E+00  0.45593999997E+02  0.45594000000E+02  0.51100000000E-03 0.  1.
         11   -1    0    0    0    0 -0.00000000000E+00 -0.00000000000E+00 -0.45593999997E+02  0.45594000000E+02  0.51100000000E-03 0. -1.
    9900012    2    1    2    0    0  0.12639345726E+02  0.11779591441E+02 -0.72228667581E+01  0.72461504356E+02  0.69999914103E+02 0.  0.
         12    1    1    2    0    0 -0.12639345726E+02 -0.11779591441E+02  0.72228667581E+01  0.18726495644E+02  0.00000000000E+00 0. -1.
         11    1    3    3    0    0  0.25561459648E+02  0.12371457922E+02  0.94720507080E+01  0.29935947210E+02  0.51100000000E-03 0. -1.
        -11    1    3    3    0    0 -0.19316892193E+02 -0.11302594771E+02 -0.90004070196E+00  0.22398684026E+02  0.51100000000E-03 0.  1.
         12    1    3    3    0    0  0.63947782708E+01  0.10710728289E+02 -0.15794876764E+02  0.20126873121E+02  0.00000000000E+00 0. -1.
</event>
<event>
 7    1  0.1283194E-013  0.7246166E+02  0.7816164E-02  0.1226708E+00
        -11   -1    0    0    0    0  0.00000000000E+00  0.00000000000E+00  0.45593999997E+02  0.45594000000E+02  0.51100000000E-03 0.  1.
         11   -1    0    0    0    0 -0.00000000000E+00 -0.00000000000E+00 -0.45593999997E+02  0.45594000000E+02  0.51100000000E-03 0. -1.
    9900012    2    1    2    0    0  0.84620621416E+01  0.23071467909E+01  0.16545282718E+02  0.72461660203E+02  0.70000117122E+02 0.  0.
         12    1    1    2    0    0 -0.84620621416E+01 -0.23071467909E+01 -0.16545282718E+02  0.18726339797E+02  0.00000000000E+00 0. -1.
         11    1    3    3    0    0 -0.31100874734E+01  0.82599805104E+01  0.18665903243E+02  0.20647417908E+02  0.51100000000E-03 0. -1.
        -11    1    3    3    0    0  0.10634285059E+02 -0.22570520567E+02 -0.16422127541E+02  0.29869762146E+02  0.51100000000E-03 0.  1.
        -12    1    3    3    0    0  0.93786455577E+00  0.16617686848E+02  0.14301507015E+02  0.21944480149E+02  0.00000000000E+00 0.  1.
</event>
<event>
 7    1  0.1283194E-013  0.7246160E+02  0.7816164E-02  0.1226708E+00
        -11   -1    0    0    0    0  0.00000000000E+00  0.00000000000E+00  0.45593999997E+02  0.45594000000E+02  0.51100000000E-03 0. -1.
         11   -1    0    0    0    0 -0.00000000000E+00 -0.00000000000E+00 -0.45593999997E+02  0.45594000000E+02  0.51100000000E-03 0.  1.
    9900012    2    1    2    0    0  0.60690340857E+01  0.16033072877E+02  0.75356148454E+01  0.72461599072E+02  0.70000037489E+02 0.  0.
         12    1    1    2    0    0 -0.60690340857E+01 -0.16033072877E+02 -0.75356148454E+01  0.18726400928E+02  0.00000000000E+00 0. -1.
         11    1    3    3    0    0 -0.12585738695E+02  0.19859223716E+02  0.45056927562E+01  0.23939316042E+02  0.51100000000E-03 0. -1.
        -11    1    3    3    0    0  0.36200801754E+01 -0.20724176836E+02 -0.90250256714E+01  0.22892085415E+02  0.51100000000E-03 0.  1.
        -12    1    3    3    0    0  0.15034692605E+02  0.16898025997E+02  0.12054947761E+02  0.25630197616E+02  0.00000000000E+00 0.  1.
</event>
<event>
 7    1  0.1283194E-013  0.7246163E+02  0.7816164E-02  0.1226708E+00
        -11   -1    0    0    0    0  0.00000000000E+00  0.00000000000E+00  0.45593999997E+02  0.45594000000E+02  0.51100000000E-03 0.  1.
         11   -1    0    0    0    0 -0.00000000000E+00 -0.00000000000E+00 -0.45593999997E+02  0.45594000000E+02  0.51100000000E-03 0. -1.
    9900012    2    1    2    0    0 -0.16772724049E+02  0.49130387382E+01  0.67241753856E+01  0.72461634729E+02  0.70000083938E+02 0.  0.
         12    1    1    2    0    0  0.16772724049E+02 -0.49130387382E+01 -0.67241753856E+01  0.18726365271E+02  0.00000000000E+00 0. -1.
         11    1    3    3    0    0 -0.18117246389E+01 -0.12366631636E+02 -0.26277561709E+02  0.29098559652E+02  0.51100000000E-03 0. -1.
        -11    1    3    3    0    0  0.18789948304E+01 -0.96964310218E+00  0.74032937879E+01  0.76993238981E+01  0.51100000000E-03 0.  1.
         12    1    3    3    0    0 -0.16839994240E+02  0.18249313476E+02  0.25598443307E+02  0.35663751178E+02  0.00000000000E+00 0. -1.
</event>
<event>
 7    1  0.1283194E-013  0.7246162E+02  0.7816164E-02  0.1226708E+00
        -11   -1    0    0    0    0  0.00000000000E+00  0.00000000000E+00  0.45593999997E+02  0.45594000000E+02  0.51100000000E-03 0. -1.
         11   -1    0    0    0    0 -0.00000000000E+00 -0.00000000000E+00 -0.45593999997E+02  0.45594000000E+02  0.51100000000E-03 0.  1.
    9900012    2    1    2    0    0 -0.10124250090E+02  0.14566182851E+02 -0.60002654770E+01  0.72461619984E+02  0.70000064730E+02 0.  0.
         12    1    1    2    0    0  0.10124250090E+02 -0.14566182851E+02  0.60002654770E+01  0.18726380016E+02  0.00000000000E+00 0. -1.
         11    1    3    3    0    0  0.16369389202E+02  0.42712173642E+01  0.12357488450E+02  0.20950124621E+02  0.51100000000E-03 0. -1.
        -11    1    3    3    0    0 -0.17344909349E+02  0.93888294288E+01 -0.30475569466E+02  0.36300913665E+02  0.51100000000E-03 0.  1.
         12    1    3    3    0    0 -0.91487299423E+01  0.90613605782E+00  0.12117815540E+02  0.15210581697E+02  0.00000000000E+00 0. -1.
</event>
<event>
 7    1  0.1283194E-013  0.7246115E+02  0.7816164E-02  0.1226709E+00
        -11   -1    0    0    0    0  0.00000000000E+00  0.00000000000E+00  0.45593999997E+02  0.45594000000E+02  0.51100000000E-03 0.  1.
         11   -1    0    0    0    0 -0.00000000000E+00 -0.00000000000E+00 -0.45593999997E+02  0.45594000000E+02  0.51100000000E-03 0. -1.
    9900012    2    1    2    0    0 -0.76854441347E+01  0.13649852820E+02 -0.10262082778E+02  0.72461150919E+02  0.69999453684E+02 0.  0.
         12    1    1    2    0    0  0.76854441347E+01 -0.13649852820E+02  0.10262082778E+02  0.18726849081E+02  0.00000000000E+00 0. -1.
         11    1    3    3    0    0  0.20476279625E+02  0.99197090914E+01 -0.87339048633E+01  0.24371289465E+02  0.51100000000E-03 0. -1.
        -11    1    3    3    0    0 -0.16097322733E+02  0.63267005436E+00  0.18483380657E+02  0.24518552798E+02  0.51100000000E-03 0.  1.
        -12    1    3    3    0    0 -0.12064401027E+02  0.30974736746E+01 -0.20011558571E+02  0.23571308656E+02  0.00000000000E+00 0.  1.
</event>
<event>
 7    1  0.1283194E-013  0.7246182E+02  0.7816164E-02  0.1226707E+00
        -11   -1    0    0    0    0  0.00000000000E+00  0.00000000000E+00  0.45593999997E+02  0.45594000000E+02  0.51100000000E-03 0.  1.
         11   -1    0    0    0    0 -0.00000000000E+00 -0.00000000000E+00 -0.45593999997E+02  0.45594000000E+02  0.51100000000E-03 0. -1.
    9900012    2    1    2    0    0  0.12063086750E+02  0.94721934206E+01  0.10743806340E+02  0.72461818200E+02  0.70000322943E+02 0.  0.
         12    1    1    2    0    0 -0.12063086750E+02 -0.94721934206E+01 -0.10743806340E+02  0.18726181800E+02  0.00000000000E+00 0. -1.
         11    1    3    3    0    0  0.20666843371E+02  0.25341954858E+02  0.11598591443E+01  0.32721221928E+02  0.51100000000E-03 0. -1.
        -11    1    3    3    0    0 -0.20571849698E+02 -0.63310457272E+01  0.11352564321E+02  0.24334417127E+02  0.51100000000E-03 0.  1.
         12    1    3    3    0    0  0.11968093077E+02 -0.95387157103E+01 -0.17686171261E+01  0.15406179145E+02  0.00000000000E+00 0. -1.
</event>
<event>
 7    1  0.1283194E-013  0.7246159E+02  0.7816164E-02  0.1226708E+00
        -11   -1    0    0    0    0  0.00000000000E+00  0.00000000000E+00  0.45593999997E+02  0.45594000000E+02  0.51100000000E-03 0.  1.
         11   -1    0    0    0    0 -0.00000000000E+00 -0.00000000000E+00 -0.45593999997E+02  0.45594000000E+02  0.51100000000E-03 0. -1.
    9900012    2    1    2    0    0 -0.10555779987E+02 -0.98641705178E+01  0.11914358162E+02  0.72461594003E+02  0.70000030885E+02 0.  0.
         12    1    1    2    0    0  0.10555779987E+02  0.98641705178E+01 -0.11914358162E+02  0.18726405997E+02  0.00000000000E+00 0. -1.
         11    1    3    3    0    0 -0.61264190003E+01  0.87537281332E+01  0.21006236933E+02  0.23567408774E+02  0.51100000000E-03 0. -1.
        -11    1    3    3    0    0  0.76039855405E+01 -0.28801609064E+02  0.16240148138E+01  0.29832711998E+02  0.51100000000E-03 0.  1.
        -12    1    3    3    0    0 -0.12033346528E+02  0.10183710413E+02 -0.10715893585E+02  0.19061473231E+02  0.00000000000E+00 0.  1.
</event>
<event>
 7    1  0.1283194E-013  0.7246163E+02  0.7816164E-02  0.1226708E+00
        -11   -1    0    0    0    0  0.00000000000E+00  0.00000000000E+00  0.45593999997E+02  0.45594000000E+02  0.51100000000E-03 0. -1.
         11   -1    0    0    0    0 -0.00000000000E+00 -0.00000000000E+00 -0.45593999997E+02  0.45594000000E+02  0.51100000000E-03 0.  1.
    9900012    2    1    2    0    0  0.96066870659E+01  0.14726402124E+02  0.64437165836E+01  0.72461632511E+02  0.70000081049E+02 0.  0.
         12    1    1    2    0    0 -0.96066870659E+01 -0.14726402124E+02 -0.64437165836E+01  0.18726367489E+02  0.00000000000E+00 0. -1.
         11    1    3    3    0    0  0.24658024153E+02  0.36552707836E+02  0.11274612196E+02  0.45510828225E+02  0.51100000000E-03 0.  1.
        -11    1    3    3    0    0 -0.10110441780E+02 -0.14438630070E+02 -0.32492178547E+01  0.17923517741E+02  0.51100000000E-03 0. -1.
        -12    1    3    3    0    0 -0.49408953076E+01 -0.73876756425E+01 -0.15816777578E+01  0.90272865452E+01  0.00000000000E+00 0.  1.
</event>
<event>
 7    1  0.1451024E-013  0.7246158E+02  0.7816164E-02  0.1226708E+00
        -11   -1    0    0    0    0  0.00000000000E+00  0.00000000000E+00  0.45593999997E+02  0.45594000000E+02  0.51100000000E-03 0. -1.
         11   -1    0    0    0    0 -0.00000000000E+00 -0.00000000000E+00 -0.45593999997E+02  0.45594000000E+02  0.51100000000E-03 0.  1.
    9900012    2    1    2    0    0 -0.58192503529E+01  0.13716560183E+02 -0.11343327912E+02  0.72461580533E+02  0.70000013338E+02 0.  0.
         12    1    1    2    0    0  0.58192503529E+01 -0.13716560183E+02  0.11343327912E+02  0.18726419467E+02  0.00000000000E+00 0. -1.
         11    1    3    3    0    0 -0.10917212069E+02  0.18080668092E+02  0.12984546922E+02  0.24793034042E+02  0.51100000000E-03 0. -1.
        -11    1    3    3    0    0 -0.11176635371E+02  0.43228312697E+01 -0.26509362782E+02  0.29092101398E+02  0.51100000000E-03 0.  1.
         12    1    3    3    0    0  0.16274597087E+02 -0.86869391783E+01  0.21814879484E+01  0.18576445093E+02  0.00000000000E+00 0. -1.
</event>
<event>
 7    1  0.1283194E-013  0.7246158E+02  0.7816164E-02  0.1226708E+00
        -11   -1    0    0    0    0  0.00000000000E+00  0.00000000000E+00  0.45593999997E+02  0.45594000000E+02  0.51100000000E-03 0. -1.
         11   -1    0    0    0    0 -0.00000000000E+00 -0.00000000000E+00 -0.45593999997E+02  0.45594000000E+02  0.51100000000E-03 0.  1.
    9900012    2    1    2    0    0 -0.17923402261E+02 -0.36675928652E+01 -0.39973914698E+01  0.72461582173E+02  0.70000015475E+02 0.  0.
         12    1    1    2    0    0  0.17923402261E+02  0.36675928652E+01  0.39973914698E+01  0.18726417827E+02  0.00000000000E+00 0. -1.
         11    1    3    3    0    0 -0.12448049934E+02 -0.61051694730E+01  0.27502671174E+02  0.30799739665E+02  0.51100000000E-03 0. -1.
        -11    1    3    3    0    0 -0.39901609461E+01  0.13078937037E+02 -0.80504669968E+01  0.15867892032E+02  0.51100000000E-03 0.  1.
         12    1    3    3    0    0 -0.14851913810E+01 -0.10641360429E+02 -0.23449595647E+02  0.25793950477E+02  0.00000000000E+00 0. -1.
</event>
<event>
 7    1  0.1283194E-013  0.7246153E+02  0.7816164E-02  0.1226708E+00
        -11   -1    0    0    0    0  0.00000000000E+00  0.00000000000E+00  0.45593999997E+02  0.45594000000E+02  0.51100000000E-03 0.  1.
         11   -1    0    0    0    0 -0.00000000000E+00 -0.00000000000E+00 -0.45593999997E+02  0.45594000000E+02  0.51100000000E-03 0. -1.
    9900012    2    1    2    0    0 -0.12222524609E+02  0.12202755494E+02  0.72376256113E+01  0.72461532795E+02  0.69999951150E+02 0.  0.
         12    1    1    2    0    0  0.12222524609E+02 -0.12202755494E+02 -0.72376256113E+01  0.18726467205E+02  0.00000000000E+00 0. -1.
         11    1    3    3    0    0 -0.15086706239E+02 -0.42096137939E+01  0.32011250952E+01  0.15986768140E+02  0.51100000000E-03 0.  1.
        -11    1    3    3    0    0  0.24581252497E+02 -0.56382114416E+01  0.39387788347E+01  0.25525308648E+02  0.51100000000E-03 0. -1.
        -12    1    3    3    0    0 -0.21717070868E+02  0.22050580730E+02  0.97721681433E-01  0.30949456007E+02  0.00000000000E+00 0.  1.
</event>
<event>
 7    1  0.1283194E-013  0.7246160E+02  0.7816164E-02  0.1226708E+00
        -11   -1    0    0    0    0  0.00000000000E+00  0.00000000000E+00  0.45593999997E+02  0.45594000000E+02  0.51100000000E-03 0.  1.
         11   -1    0    0    0    0 -0.00000000000E+00 -0.00000000000E+00 -0.45593999997E+02  0.45594000000E+02  0.51100000000E-03 0. -1.
    9900012    2    1    2    0    0 -0.63418533670E+01  0.16861273819E+01  0.17538987040E+02  0.72461596286E+02  0.70000033859E+02 0.  0.
         12    1    1    2    0    0  0.63418533670E+01 -0.16861273819E+01 -0.17538987040E+02  0.18726403714E+02  0.00000000000E+00 0. -1.
         11    1    3    3    0    0 -0.11284266207E+00  0.12286461656E+02 -0.13629071412E+02  0.18349971697E+02  0.51100000000E-03 0. -1.
        -11    1    3    3    0    0  0.98727060999E+01 -0.35897655878E+01  0.34650540565E+02  0.36207964655E+02  0.51100000000E-03 0.  1.
         12    1    3    3    0    0 -0.16101716805E+02 -0.70105686862E+01 -0.34824821138E+01  0.17903659934E+02  0.00000000000E+00 0. -1.
</event>
<event>
 7    1  0.1283194E-013  0.7246158E+02  0.7816164E-02  0.1226708E+00
        -11   -1    0    0    0    0  0.00000000000E+00  0.00000000000E+00  0.45593999997E+02  0.45594000000E+02  0.51100000000E-03 0.  1.
         11   -1    0    0    0    0 -0.00000000000E+00 -0.00000000000E+00 -0.45593999997E+02  0.45594000000E+02  0.51100000000E-03 0. -1.
    9900012    2    1    2    0    0  0.11606092824E+02 -0.78957581071E-01  0.14695956727E+02  0.72461580987E+02  0.70000013929E+02 0.  0.
         12    1    1    2    0    0 -0.11606092824E+02  0.78957581071E-01 -0.14695956727E+02  0.18726419013E+02  0.00000000000E+00 0. -1.
         11    1    3    3    0    0  0.19739875442E+02  0.13981498183E+02 -0.50937697301E+01  0.24720264243E+02  0.51100000000E-03 0.  1.
        -11    1    3    3    0    0 -0.23638586001E+02 -0.27827991857E+01  0.74478928423E+01  0.24939884272E+02  0.51100000000E-03 0. -1.
        -12    1    3    3    0    0  0.15504803383E+02 -0.11277656578E+02  0.12341833615E+02  0.22801432473E+02  0.00000000000E+00 0.  1.
</event>
<event>
 7    1  0.1283194E-013  0.7246160E+02  0.7816164E-02  0.1226708E+00
        -11   -1    0    0    0    0  0.00000000000E+00  0.00000000000E+00  0.45593999997E+02  0.45594000000E+02  0.51100000000E-03 0. -1.
         11   -1    0    0    0    0 -0.00000000000E+00 -0.00000000000E+00 -0.45593999997E+02  0.45594000000E+02  0.51100000000E-03 0.  1.
    9900012    2    1    2    0    0 -0.18399002515E+02 -0.34669033784E+01  0.36770452539E+00  0.72461603678E+02  0.70000043489E+02 0.  0.
         12    1    1    2    0    0  0.18399002515E+02  0.34669033784E+01 -0.36770452539E+00  0.18726396322E+02  0.00000000000E+00 0. -1.
         11    1    3    3    0    0 -0.30020479327E+01  0.62195345846E+01 -0.12458051409E+02  0.14244225054E+02  0.51100000000E-03 0. -1.
        -11    1    3    3    0    0 -0.32533267888E+01 -0.31506437003E+02  0.51289464557E+01  0.32086536115E+02  0.51100000000E-03 0.  1.
        -12    1    3    3    0    0 -0.12143627793E+02  0.21819999040E+02  0.76968094783E+01  0.26130842509E+02  0.00000000000E+00 0.  1.
</event>
<event>
 7    1  0.1283194E-013  0.7246156E+02  0.7816164E-02  0.1226708E+00
        -11   -1    0    0    0    0  0.00000000000E+00  0.00000000000E+00  0.45593999997E+02  0.45594000000E+02  0.51100000000E-03 0. -1.
         11   -1    0    0    0    0 -0.00000000000E+00 -0.00000000000E+00 -0.45593999997E+02  0.45594000000E+02  0.51100000000E-03 0.  1.
    9900012    2    1    2    0    0  0.13706636657E+02  0.27890138781E+01  0.12451068747E+02  0.72461558805E+02  0.69999985033E+02 0.  0.
         12    1    1    2    0    0 -0.13706636657E+02 -0.27890138781E+01 -0.12451068747E+02  0.18726441195E+02  0.00000000000E+00 0. -1.
         11    1    3    3    0    0  0.80359730123E+01 -0.16849608507E+02  0.91669140082E+01  0.20797078684E+02  0.51100000000E-03 0. -1.
        -11    1    3    3    0    0 -0.53862121494E+01  0.31587567273E+02  0.10689632187E+02  0.33779489696E+02  0.51100000000E-03 0.  1.
        -12    1    3    3    0    0  0.11056875794E+02 -0.11948944888E+02 -0.74054774482E+01  0.17884990425E+02  0.00000000000E+00 0.  1.
</event>
<event>
 7    1  0.1283194E-013  0.7246152E+02  0.7816164E-02  0.1226708E+00
        -11   -1    0    0    0    0  0.00000000000E+00  0.00000000000E+00  0.45593999997E+02  0.45594000000E+02  0.51100000000E-03 0. -1.
         11   -1    0    0    0    0 -0.00000000000E+00 -0.00000000000E+00 -0.45593999997E+02  0.45594000000E+02  0.51100000000E-03 0.  1.
    9900012    2    1    2    0    0 -0.79296373536E+00  0.11190161029E+02 -0.14994412574E+02  0.72461523989E+02  0.69999939679E+02 0.  0.
         12    1    1    2    0    0  0.79296373536E+00 -0.11190161029E+02  0.14994412574E+02  0.18726476011E+02  0.00000000000E+00 0. -1.
         11    1    3    3    0    0  0.10689192239E+02 -0.24405164647E+02  0.56807358242E+01  0.27242276923E+02  0.51100000000E-03 0.  1.
        -11    1    3    3    0    0 -0.14543669576E+02  0.32507259450E+02 -0.19922305579E+02  0.40806108630E+02  0.51100000000E-03 0. -1.
         12    1    3    3    0    0  0.30615136013E+01  0.30880662256E+01 -0.75284281997E+00  0.44131384361E+01  0.00000000000E+00 0. -1.
</event>
<event>
 7    1  0.1283194E-013  0.7246170E+02  0.7816164E-02  0.1226708E+00
        -11   -1    0    0    0    0  0.00000000000E+00  0.00000000000E+00  0.45593999997E+02  0.45594000000E+02  0.51100000000E-03 0. -1.
         11   -1    0    0    0    0 -0.00000000000E+00 -0.00000000000E+00 -0.45593999997E+02  0.45594000000E+02  0.51100000000E-03 0.  1.
    9900012    2    1    2    0    0 -0.35925666790E+01 -0.38929483700E+01 -0.17961426063E+02  0.72461697413E+02  0.70000165596E+02 0.  0.
         12    1    1    2    0    0  0.35925666790E+01  0.38929483700E+01  0.17961426063E+02  0.18726302587E+02  0.00000000000E+00 0. -1.
         11    1    3    3    0    0  0.11124614840E+02  0.25043229175E+02 -0.21418456467E+02  0.34780320018E+02  0.51100000000E-03 0. -1.
        -11    1    3    3    0    0 -0.16027646172E+02 -0.21209524404E+02  0.90175151274E+01  0.28072138262E+02  0.51100000000E-03 0.  1.
        -12    1    3    3    0    0  0.13104646529E+01 -0.77266531409E+01 -0.55604847235E+01  0.96092391336E+01  0.00000000000E+00 0.  1.
</event>
<event>
 7    1  0.1283194E-013  0.7246156E+02  0.7816164E-02  0.1226708E+00
        -11   -1    0    0    0    0  0.00000000000E+00  0.00000000000E+00  0.45593999997E+02  0.45594000000E+02  0.51100000000E-03 0. -1.
         11   -1    0    0    0    0 -0.00000000000E+00 -0.00000000000E+00 -0.45593999997E+02  0.45594000000E+02  0.51100000000E-03 0.  1.
    9900012    2    1    2    0    0 -0.88588589659E+01  0.16498265889E+02  0.86905999922E-01  0.72461555805E+02  0.69999981125E+02 0.  0.
         12    1    1    2    0    0  0.88588589659E+01 -0.16498265889E+02 -0.86905999922E-01  0.18726444195E+02  0.00000000000E+00 0. -1.
         11    1    3    3    0    0  0.30594521263E+01  0.49057086150E+01  0.23198942761E+02  0.23908516679E+02  0.51100000000E-03 0. -1.
        -11    1    3    3    0    0  0.80708271361E+01  0.17549791468E+02 -0.19382115575E+02  0.27364207199E+02  0.51100000000E-03 0.  1.
         12    1    3    3    0    0 -0.19989138228E+02 -0.59572341931E+01 -0.37299211855E+01  0.21188831926E+02  0.00000000000E+00 0. -1.
</event>
<event>
 7    1  0.1283194E-013  0.7246156E+02  0.7816164E-02  0.1226708E+00
        -11   -1    0    0    0    0  0.00000000000E+00  0.00000000000E+00  0.45593999997E+02  0.45594000000E+02  0.51100000000E-03 0.  1.
         11   -1    0    0    0    0 -0.00000000000E+00 -0.00000000000E+00 -0.45593999997E+02  0.45594000000E+02  0.51100000000E-03 0. -1.
    9900012    2    1    2    0    0 -0.17172658483E+01  0.11013750505E+02  0.15047514512E+02  0.72461564269E+02  0.69999992151E+02 0.  0.
         12    1    1    2    0    0  0.17172658483E+01 -0.11013750505E+02 -0.15047514512E+02  0.18726435731E+02  0.00000000000E+00 0. -1.
         11    1    3    3    0    0 -0.28092374355E+02 -0.13865977456E+02  0.57581847037E+01  0.31852841617E+02  0.51100000000E-03 0.  1.
        -11    1    3    3    0    0  0.22455091247E+02  0.11205907702E+02  0.79315682392E+01  0.26319446524E+02  0.51100000000E-03 0. -1.
        -12    1    3    3    0    0  0.39200172598E+01  0.13673820259E+02  0.13577615695E+01  0.14289276129E+02  0.00000000000E+00 0.  1.
</event>
<event>
 7    1  0.1283194E-013  0.7246161E+02  0.7816164E-02  0.1226708E+00
        -11   -1    0    0    0    0  0.00000000000E+00  0.00000000000E+00  0.45593999997E+02  0.45594000000E+02  0.51100000000E-03 0.  1.
         11   -1    0    0    0    0 -0.00000000000E+00 -0.00000000000E+00 -0.45593999997E+02  0.45594000000E+02  0.51100000000E-03 0. -1.
    9900012    2    1    2    0    0  0.10217748879E+02 -0.64396709608E+01  0.14311043654E+02  0.72461608872E+02  0.70000050254E+02 0.  0.
         12    1    1    2    0    0 -0.10217748879E+02  0.64396709608E+01 -0.14311043654E+02  0.18726391128E+02  0.00000000000E+00 0. -1.
         11    1    3    3    0    0 -0.46112322530E+01 -0.92999587100E+01 -0.22625117400E+02  0.24892742568E+02  0.51100000000E-03 0. -1.
        -11    1    3    3    0    0  0.22252182981E+02  0.34003900999E+01  0.28531459168E+02  0.36342350815E+02  0.51100000000E-03 0.  1.
         12    1    3    3    0    0 -0.74232018484E+01 -0.54010235067E+00  0.84047018860E+01  0.11226515489E+02  0.00000000000E+00 0. -1.
</event>
<event>
 7    1  0.1283194E-013  0.7246151E+02  0.7816164E-02  0.1226708E+00
        -11   -1    0    0    0    0  0.00000000000E+00  0.00000000000E+00  0.45593999997E+02  0.45594000000E+02  0.51100000000E-03 0. -1.
         11   -1    0    0    0    0 -0.00000000000E+00 -0.00000000000E+00 -0.45593999997E+02  0.45594000000E+02  0.51100000000E-03 0.  1.
    9900012    2    1    2    0    0 -0.11581660358E+02  0.11776626489E+02  0.88236947872E+01  0.72461511333E+02  0.69999923192E+02 0.  0.
         12    1    1    2    0    0  0.11581660358E+02 -0.11776626489E+02 -0.88236947872E+01  0.18726488667E+02  0.00000000000E+00 0. -1.
         11    1    3    3    0    0 -0.15075435791E+02 -0.14857659606E+02  0.68208601326E+01  0.22238321575E+02  0.51100000000E-03 0. -1.
        -11    1    3    3    0    0  0.13749487547E+02  0.77993540013E+01 -0.15800595702E+02  0.22350327860E+02  0.51100000000E-03 0.  1.
        -12    1    3    3    0    0 -0.10255712113E+02  0.18834932094E+02  0.17803430357E+02  0.27872861898E+02  0.00000000000E+00 0.  1.
</event>
<event>
 7    1  0.1283194E-013  0.7246159E+02  0.7816164E-02  0.1226708E+00
        -11   -1    0    0    0    0  0.00000000000E+00  0.00000000000E+00  0.45593999997E+02  0.45594000000E+02  0.51100000000E-03 0.  1.
         11   -1    0    0    0    0 -0.00000000000E+00 -0.00000000000E+00 -0.45593999997E+02  0.45594000000E+02  0.51100000000E-03 0. -1.
    9900012    2    1    2    0    0 -0.98472430379E+01  0.11546383010E+01  0.15886376624E+02  0.72461592248E+02  0.70000028599E+02 0.  0.
         12    1    1    2    0    0  0.98472430379E+01 -0.11546383010E+01 -0.15886376624E+02  0.18726407752E+02  0.00000000000E+00 0. -1.
         11    1    3    3    0    0 -0.10347434333E+02  0.10423015046E+02  0.37664703208E+02  0.40426952741E+02  0.51100000000E-03 0. -1.
        -11    1    3    3    0    0  0.10777808438E+02 -0.66665826191E+01 -0.96706320290E+01  0.15941317469E+02  0.51100000000E-03 0.  1.
         12    1    3    3    0    0 -0.10277617143E+02 -0.26017941255E+01 -0.12107694554E+02  0.16093322038E+02  0.00000000000E+00 0. -1.
</event>
<event>
 7    1  0.1283194E-013  0.7246155E+02  0.7816164E-02  0.1226708E+00
        -11   -1    0    0    0    0  0.00000000000E+00  0.00000000000E+00  0.45593999997E+02  0.45594000000E+02  0.51100000000E-03 0.  1.
         11   -1    0    0    0    0 -0.00000000000E+00 -0.00000000000E+00 -0.45593999997E+02  0.45594000000E+02  0.51100000000E-03 0. -1.
    9900012    2    1    2    0    0  0.18642607236E+02  0.15466256626E+01  0.86089342061E+00  0.72461548308E+02  0.69999971358E+02 0.  0.
         12    1    1    2    0    0 -0.18642607236E+02 -0.15466256626E+01 -0.86089342061E+00  0.18726451692E+02  0.00000000000E+00 0. -1.
         11    1    3    3    0    0  0.64525369500E+01 -0.13998191419E+02 -0.21721957849E+02  0.26635090561E+02  0.51100000000E-03 0. -1.
        -11    1    3    3    0    0  0.38478987230E+01  0.14543559389E+02  0.30672365403E+02  0.34163071349E+02  0.51100000000E-03 0.  1.
        -12    1    3    3    0    0  0.83421715632E+01  0.10012576927E+01 -0.80895141334E+01  0.11663386398E+02  0.00000000000E+00 0.  1.
</event>
<event>
 7    1  0.1283194E-013  0.7246158E+02  0.7816164E-02  0.1226708E+00
        -11   -1    0    0    0    0  0.00000000000E+00  0.00000000000E+00  0.45593999997E+02  0.45594000000E+02  0.51100000000E-03 0. -1.
         11   -1    0    0    0    0 -0.00000000000E+00 -0.00000000000E+00 -0.45593999997E+02  0.45594000000E+02  0.51100000000E-03 0.  1.
    9900012    2    1    2    0    0  0.31412877620E+01  0.99187972122E+00 -0.18434404958E+02  0.72461580151E+02  0.70000012840E+02 0.  0.
         12    1    1    2    0    0 -0.31412877620E+01 -0.99187972122E+00  0.18434404958E+02  0.18726419849E+02  0.00000000000E+00 0. -1.
         11    1    3    3    0    0 -0.76293499111E+01  0.11166152339E+02 -0.25823586119E+01  0.13768025072E+02  0.51100000000E-03 0. -1.
        -11    1    3    3    0    0  0.23889777714E+02 -0.11753321131E+02  0.10967949938E+02  0.28795103107E+02  0.51100000000E-03 0.  1.
        -12    1    3    3    0    0 -0.13119140041E+02  0.15790485129E+01 -0.26819996285E+02  0.29898451972E+02  0.00000000000E+00 0.  1.
</event>
<event>
 7    1  0.1283194E-013  0.7246163E+02  0.7816164E-02  0.1226708E+00
        -11   -1    0    0    0    0  0.00000000000E+00  0.00000000000E+00  0.45593999997E+02  0.45594000000E+02  0.51100000000E-03 0. -1.
         11   -1    0    0    0    0 -0.00000000000E+00 -0.00000000000E+00 -0.45593999997E+02  0.45594000000E+02  0.51100000000E-03 0.  1.
    9900012    2    1    2    0    0  0.90977493438E+01 -0.58746469908E+01 -0.15277313234E+02  0.72461633026E+02  0.70000081719E+02 0.  0.
         12    1    1    2    0    0 -0.90977493438E+01  0.58746469908E+01  0.15277313234E+02  0.18726366974E+02  0.00000000000E+00 0. -1.
         11    1    3    3    0    0 -0.20500887684E+02  0.70086573661E+01  0.59847940998E+01  0.22477220349E+02  0.51100000000E-03 0. -1.
        -11    1    3    3    0    0  0.93612247407E+01 -0.20480087568E+02 -0.16320369417E+02  0.27810447202E+02  0.51100000000E-03 0.  1.
        -12    1    3    3    0    0  0.20237412287E+02  0.75967832108E+01 -0.49417379175E+01  0.22173965475E+02  0.00000000000E+00 0.  1.
</event>
<event>
 7    1  0.1283194E-013  0.7246162E+02  0.7816164E-02  0.1226708E+00
        -11   -1    0    0    0    0  0.00000000000E+00  0.00000000000E+00  0.45593999997E+02  0.45594000000E+02  0.51100000000E-03 0. -1.
         11   -1    0    0    0    0 -0.00000000000E+00 -0.00000000000E+00 -0.45593999997E+02  0.45594000000E+02  0.51100000000E-03 0.  1.
    9900012    2    1    2    0    0  0.30988042764E+01  0.15428213459E+02 -0.10151108710E+02  0.72461618435E+02  0.70000062712E+02 0.  0.
         12    1    1    2    0    0 -0.30988042764E+01 -0.15428213459E+02  0.10151108710E+02  0.18726381565E+02  0.00000000000E+00 0. -1.
         11    1    3    3    0    0  0.59300262974E+01 -0.71429464137E+01  0.12611760332E+02  0.15660248858E+02  0.51100000000E-03 0. -1.
        -11    1    3    3    0    0 -0.16694938250E+01  0.28688488791E+02  0.42772427773E+01  0.29053595385E+02  0.51100000000E-03 0.  1.
        -12    1    3    3    0    0 -0.11617281961E+01 -0.61173289180E+01 -0.27040111819E+02  0.27747774193E+02  0.00000000000E+00 0.  1.
</event>
<event>
 7    1  0.1283194E-013  0.7246159E+02  0.7816164E-02  0.1226708E+00
        -11   -1    0    0    0    0  0.00000000000E+00  0.00000000000E+00  0.45593999997E+02  0.45594000000E+02  0.51100000000E-03 0.  1.
         11   -1    0    0    0    0 -0.00000000000E+00 -0.00000000000E+00 -0.45593999997E+02  0.45594000000E+02  0.51100000000E-03 0. -1.
    9900012    2    1    2    0    0  0.15854076580E+02 -0.91634331265E+01  0.39189305386E+01  0.72461594381E+02  0.70000031377E+02 0.  0.
         12    1    1    2    0    0 -0.15854076580E+02  0.91634331265E+01 -0.39189305386E+01  0.18726405619E+02  0.00000000000E+00 0. -1.
         11    1    3    3    0    0 -0.55149696759E+01  0.29882703786E+01 -0.46142239255E+01  0.77868936732E+01  0.51100000000E-03 0. -1.
        -11    1    3    3    0    0  0.27398793022E+02 -0.27787480276E+02 -0.93901019309E+01  0.40137413141E+02  0.51100000000E-03 0.  1.
        -12    1    3    3    0    0 -0.60297467660E+01  0.15635776771E+02  0.17923256395E+02  0.24537287566E+02  0.00000000000E+00 0.  1.
</event>
<event>
 7    1  0.1283194E-013  0.7246155E+02  0.7816164E-02  0.1226708E+00
        -11   -1    0    0    0    0  0.00000000000E+00  0.00000000000E+00  0.45593999997E+02  0.45594000000E+02  0.51100000000E-03 0.  1.
         11   -1    0    0    0    0 -0.00000000000E+00 -0.00000000000E+00 -0.45593999997E+02  0.45594000000E+02  0.51100000000E-03 0. -1.
    9900012    2    1    2    0    0  0.89164460027E+00  0.18419048795E+02  0.32593880122E+01  0.72461548152E+02  0.69999971155E+02 0.  0.
         12    1    1    2    0    0 -0.89164460027E+00 -0.18419048795E+02 -0.32593880122E+01  0.18726451848E+02  0.00000000000E+00 0. -1.
         11    1    3    3    0    0  0.77166187468E+01 -0.47122025238E+01  0.29186271228E+02  0.30554696627E+02  0.51100000000E-03 0. -1.
        -11    1    3    3    0    0  0.57764827883E+01  0.15978418336E+02 -0.20023175208E+02  0.26260334187E+02  0.51100000000E-03 0.  1.
         12    1    3    3    0    0 -0.12601456935E+02  0.71528329830E+01 -0.59037080079E+01  0.15646517338E+02  0.00000000000E+00 0. -1.
</event>
<event>
 7    1  0.1283194E-013  0.7246156E+02  0.7816164E-02  0.1226708E+00
        -11   -1    0    0    0    0  0.00000000000E+00  0.00000000000E+00  0.45593999997E+02  0.45594000000E+02  0.51100000000E-03 0. -1.
         11   -1    0    0    0    0 -0.00000000000E+00 -0.00000000000E+00 -0.45593999997E+02  0.45594000000E+02  0.51100000000E-03 0.  1.
    9900012    2    1    2    0    0  0.11632667482E+02 -0.92736231834E+01 -0.11373674936E+02  0.72461560903E+02  0.69999987766E+02 0.  0.
         12    1    1    2    0    0 -0.11632667482E+02  0.92736231834E+01  0.11373674936E+02  0.18726439097E+02  0.00000000000E+00 0. -1.
         11    1    3    3    0    0 -0.62857685144E+01 -0.24218673984E+02 -0.21752980974E+02  0.33154897630E+02  0.51100000000E-03 0.  1.
        -11    1    3    3    0    0  0.24708033300E+02  0.16867406185E+02  0.11708484830E+02  0.32126078476E+02  0.51100000000E-03 0. -1.
         12    1    3    3    0    0 -0.67895973032E+01 -0.19223553844E+01 -0.13291787926E+01  0.71805847969E+01  0.00000000000E+00 0. -1.
</event>
<event>
 7    1  0.1283194E-013  0.7246158E+02  0.7816164E-02  0.1226708E+00
        -11   -1    0    0    0    0  0.00000000000E+00  0.00000000000E+00  0.45593999997E+02  0.45594000000E+02  0.51100000000E-03 0. -1.
         11   -1    0    0    0    0 -0.00000000000E+00 -0.00000000000E+00 -0.45593999997E+02  0.45594000000E+02  0.51100000000E-03 0.  1.
    9900012    2    1    2    0    0  0.16152189579E+02  0.38722143468E+01  0.86482119284E+01  0.72461579047E+02  0.70000011402E+02 0.  0.
         12    1    1    2    0    0 -0.16152189579E+02 -0.38722143468E+01 -0.86482119284E+01  0.18726420953E+02  0.00000000000E+00 0. -1.
         11    1    3    3    0    0  0.31659970327E+02  0.16718876304E+02  0.20063877939E+02  0.41041853567E+02  0.51100000000E-03 0. -1.
        -11    1    3    3    0    0 -0.60129616374E+01  0.25811831302E+01  0.39688323195E+01  0.76530937696E+01  0.51100000000E-03 0.  1.
         12    1    3    3    0    0 -0.94948191101E+01 -0.15427845088E+02 -0.15384498330E+02  0.23766631710E+02  0.00000000000E+00 0. -1.
</event>
<event>
 7    1  0.1283194E-013  0.7246162E+02  0.7816164E-02  0.1226708E+00
        -11   -1    0    0    0    0  0.00000000000E+00  0.00000000000E+00  0.45593999997E+02  0.45594000000E+02  0.51100000000E-03 0.  1.
         11   -1    0    0    0    0 -0.00000000000E+00 -0.00000000000E+00 -0.45593999997E+02  0.45594000000E+02  0.51100000000E-03 0. -1.
    9900012    2    1    2    0    0 -0.12574150399E+02 -0.13665581982E+02  0.24124504473E+01  0.72461620042E+02  0.70000064805E+02 0.  0.
         12    1    1    2    0    0  0.12574150399E+02  0.13665581982E+02 -0.24124504473E+01  0.18726379958E+02  0.00000000000E+00 0. -1.
         11    1    3    3    0    0 -0.16464374661E+02  0.69379399465E+01  0.40916370515E+01  0.18328997182E+02  0.51100000000E-03 0. -1.
        -11    1    3    3    0    0  0.23400040366E+02 -0.22299479049E+01 -0.10739032768E+02  0.25843014179E+02  0.51100000000E-03 0.  1.
        -12    1    3    3    0    0 -0.19509816105E+02 -0.18373574024E+02  0.90598461634E+01  0.28289608682E+02  0.00000000000E+00 0.  1.
</event>
<event>
 7    1  0.1283194E-013  0.7246159E+02  0.7816164E-02  0.1226708E+00
        -11   -1    0    0    0    0  0.00000000000E+00  0.00000000000E+00  0.45593999997E+02  0.45594000000E+02  0.51100000000E-03 0. -1.
         11   -1    0    0    0    0 -0.00000000000E+00 -0.00000000000E+00 -0.45593999997E+02  0.45594000000E+02  0.51100000000E-03 0.  1.
    9900012    2    1    2    0    0  0.52965306973E+01  0.17672253055E+02  0.32119476299E+01  0.72461591561E+02  0.70000027704E+02 0.  0.
         12    1    1    2    0    0 -0.52965306973E+01 -0.17672253055E+02 -0.32119476299E+01  0.18726408439E+02  0.00000000000E+00 0. -1.
         11    1    3    3    0    0  0.11029657094E+02 -0.12013890836E+02  0.22890259282E+02  0.28106064806E+02  0.51100000000E-03 0. -1.
        -11    1    3    3    0    0 -0.16118754078E+01  0.35732556302E+01 -0.17383508909E+02  0.17820007867E+02  0.51100000000E-03 0.  1.
         12    1    3    3    0    0 -0.41212509890E+01  0.26112888260E+02 -0.22948027432E+01  0.26535518888E+02  0.00000000000E+00 0. -1.
</event>
<event>
 7    1  0.1283194E-013  0.7246163E+02  0.7816164E-02  0.1226708E+00
        -11   -1    0    0    0    0  0.00000000000E+00  0.00000000000E+00  0.45593999997E+02  0.45594000000E+02  0.51100000000E-03 0.  1.
         11   -1    0    0    0    0 -0.00000000000E+00 -0.00000000000E+00 -0.45593999997E+02  0.45594000000E+02  0.51100000000E-03 0. -1.
    9900012    2    1    2    0    0  0.69174006344E+01  0.95629727004E+01  0.14538774863E+02  0.72461632149E+02  0.70000080577E+02 0.  0.
         12    1    1    2    0    0 -0.69174006344E+01 -0.95629727004E+01 -0.14538774863E+02  0.18726367851E+02  0.00000000000E+00 0. -1.
         11    1    3    3    0    0  0.80749203655E+01  0.13191682587E+01 -0.45714010480E+01  0.93724197306E+01  0.51100000000E-03 0. -1.
        -11    1    3    3    0    0 -0.21085891800E+01 -0.25338486618E+02  0.14240522824E+02  0.29142366805E+02  0.51100000000E-03 0.  1.
        -12    1    3    3    0    0  0.95106944886E+00  0.33582291060E+02  0.48696530869E+01  0.33946845613E+02  0.00000000000E+00 0.  1.
</event>
<event>
 7    1  0.1283194E-013  0.7246157E+02  0.7816164E-02  0.1226708E+00
        -11   -1    0    0    0    0  0.00000000000E+00  0.00000000000E+00  0.45593999997E+02  0.45594000000E+02  0.51100000000E-03 0. -1.
         11   -1    0    0    0    0 -0.00000000000E+00 -0.00000000000E+00 -0.45593999997E+02  0.45594000000E+02  0.51100000000E-03 0.  1.
    9900012    2    1    2    0    0  0.96106016628E-01  0.17077420375E+02 -0.76832139364E+01  0.72461566826E+02  0.69999995481E+02 0.  0.
         12    1    1    2    0    0 -0.96106016628E-01 -0.17077420375E+02  0.76832139364E+01  0.18726433174E+02  0.00000000000E+00 0. -1.
         11    1    3    3    0    0 -0.78529409508E+01 -0.17592273603E+02 -0.18291820877E+02  0.26565908292E+02  0.51100000000E-03 0. -1.
        -11    1    3    3    0    0  0.13086468265E+02  0.26616634765E+02 -0.23999101583E+01  0.29756687768E+02  0.51100000000E-03 0.  1.
         12    1    3    3    0    0 -0.51374212976E+01  0.80530592135E+01  0.13008517099E+02  0.16138970766E+02  0.00000000000E+00 0. -1.
</event>
<event>
 7    1  0.1283194E-013  0.7246158E+02  0.7816164E-02  0.1226708E+00
        -11   -1    0    0    0    0  0.00000000000E+00  0.00000000000E+00  0.45593999997E+02  0.45594000000E+02  0.51100000000E-03 0. -1.
         11   -1    0    0    0    0 -0.00000000000E+00 -0.00000000000E+00 -0.45593999997E+02  0.45594000000E+02  0.51100000000E-03 0.  1.
    9900012    2    1    2    0    0 -0.14811923723E+02 -0.79225201703E+01 -0.82776501156E+01  0.72461577446E+02  0.70000009317E+02 0.  0.
         12    1    1    2    0    0  0.14811923723E+02  0.79225201703E+01  0.82776501156E+01  0.18726422554E+02  0.00000000000E+00 0. -1.
         11    1    3    3    0    0 -0.38755545469E+02 -0.35000394438E+01 -0.84487381499E+01  0.39819891478E+02  0.51100000000E-03 0. -1.
        -11    1    3    3    0    0  0.22462133662E+02 -0.88094848727E+01  0.63223105487E+01  0.24942455439E+02  0.51100000000E-03 0.  1.
        -12    1    3    3    0    0  0.14814880840E+01  0.43870041462E+01 -0.61512225144E+01  0.76992305293E+01  0.00000000000E+00 0.  1.
</event>
<event>
 7    1  0.1283194E-013  0.7246154E+02  0.7816164E-02  0.1226708E+00
        -11   -1    0    0    0    0  0.00000000000E+00  0.00000000000E+00  0.45593999997E+02  0.45594000000E+02  0.51100000000E-03 0.  1.
         11   -1    0    0    0    0 -0.00000000000E+00 -0.00000000000E+00 -0.45593999997E+02  0.45594000000E+02  0.51100000000E-03 0. -1.
    9900012    2    1    2    0    0 -0.16314265601E+02 -0.88722981417E+01  0.24098229985E+01  0.72461543227E+02  0.69999964739E+02 0.  0.
         12    1    1    2    0    0  0.16314265601E+02  0.88722981417E+01 -0.24098229985E+01  0.18726456773E+02  0.00000000000E+00 0. -1.
         11    1    3    3    0    0 -0.71332126902E+01  0.30456912895E+01 -0.12701746398E+02  0.14882651663E+02  0.51100000000E-03 0. -1.
        -11    1    3    3    0    0  0.22234273344E+02 -0.24763738709E+01  0.28226047438E+01  0.22549111657E+02  0.51100000000E-03 0.  1.
        -12    1    3    3    0    0 -0.31415326255E+02 -0.94416155603E+01  0.12288964653E+02  0.35029779907E+02  0.00000000000E+00 0.  1.
</event>
<event>
 7    1  0.1283194E-013  0.7246123E+02  0.7816164E-02  0.1226709E+00
        -11   -1    0    0    0    0  0.00000000000E+00  0.00000000000E+00  0.45593999997E+02  0.45594000000E+02  0.51100000000E-03 0.  1.
         11   -1    0    0    0    0 -0.00000000000E+00 -0.00000000000E+00 -0.45593999997E+02  0.45594000000E+02  0.51100000000E-03 0. -1.
    9900012    2    1    2    0    0 -0.11235431989E+02  0.57124164841E+00 -0.14970988624E+02  0.72461234413E+02  0.69999562450E+02 0.  0.
         12    1    1    2    0    0  0.11235431989E+02 -0.57124164841E+00  0.14970988624E+02  0.18726765587E+02  0.00000000000E+00 0. -1.
         11    1    3    3    0    0 -0.23820821353E+02 -0.21422947106E+02 -0.21334508215E+02  0.38490718799E+02  0.51100000000E-03 0. -1.
        -11    1    3    3    0    0  0.62465794648E+01  0.27319785559E+01  0.11210473498E+02  0.13120906149E+02  0.51100000000E-03 0.  1.
         12    1    3    3    0    0  0.63388098991E+01  0.19262210198E+02 -0.48469539072E+01  0.20849609465E+02  0.00000000000E+00 0. -1.
</event>
<event>
 7    1  0.1283194E-013  0.7246155E+02  0.7816164E-02  0.1226708E+00
        -11   -1    0    0    0    0  0.00000000000E+00  0.00000000000E+00  0.45593999997E+02  0.45594000000E+02  0.51100000000E-03 0.  1.
         11   -1    0    0    0    0 -0.00000000000E+00 -0.00000000000E+00 -0.45593999997E+02  0.45594000000E+02  0.51100000000E-03 0. -1.
    9900012    2    1    2    0    0  0.25869690258E+01 -0.15121188615E+02  0.10739519229E+02  0.72461547396E+02  0.69999970170E+02 0.  0.
         12    1    1    2    0    0 -0.25869690258E+01  0.15121188615E+02 -0.10739519229E+02  0.18726452604E+02  0.00000000000E+00 0. -1.
         11    1    3    3    0    0 -0.90656550655E+00  0.20804905986E+02 -0.13474930839E+02  0.24804026598E+02  0.51100000000E-03 0. -1.
        -11    1    3    3    0    0  0.84450947332E+01 -0.13867762869E+02  0.17938003115E+02  0.24195173653E+02  0.51100000000E-03 0.  1.
         12    1    3    3    0    0 -0.49515602008E+01 -0.22058331732E+02  0.62764469522E+01  0.23462347145E+02  0.00000000000E+00 0. -1.
</event>
<event>
 7    1  0.1283194E-013  0.7246153E+02  0.7816164E-02  0.1226708E+00
        -11   -1    0    0    0    0  0.00000000000E+00  0.00000000000E+00  0.45593999997E+02  0.45594000000E+02  0.51100000000E-03 0.  1.
         11   -1    0    0    0    0 -0.00000000000E+00 -0.00000000000E+00 -0.45593999997E+02  0.45594000000E+02  0.51100000000E-03 0. -1.
    9900012    2    1    2    0    0  0.15967682961E+02 -0.93014339595E+01  0.30326730753E+01  0.72461529996E+02  0.69999947504E+02 0.  0.
         12    1    1    2    0    0 -0.15967682961E+02  0.93014339595E+01 -0.30326730753E+01  0.18726470004E+02  0.00000000000E+00 0. -1.
         11    1    3    3    0    0 -0.12379588933E+01  0.54037245287E+01 -0.30985995372E+01  0.63509133482E+01  0.51100000000E-03 0. -1.
        -11    1    3    3    0    0  0.12124177153E+02 -0.33481566360E+02 -0.13865660304E+02  0.38213446501E+02  0.51100000000E-03 0.  1.
        -12    1    3    3    0    0  0.50814647013E+01  0.18776407872E+02  0.19996932917E+02  0.27897170146E+02  0.00000000000E+00 0.  1.
</event>
<event>
 7    1  0.1283194E-013  0.7246160E+02  0.7816164E-02  0.1226708E+00
        -11   -1    0    0    0    0  0.00000000000E+00  0.00000000000E+00  0.45593999997E+02  0.45594000000E+02  0.51100000000E-03 0.  1.
         11   -1    0    0    0    0 -0.00000000000E+00 -0.00000000000E+00 -0.45593999997E+02  0.45594000000E+02  0.51100000000E-03 0. -1.
    9900012    2    1    2    0    0  0.77210065031E+01 -0.16077015773E+02 -0.57090747261E+01  0.72461603875E+02  0.70000043746E+02 0.  0.
         12    1    1    2    0    0 -0.77210065031E+01  0.16077015773E+02  0.57090747261E+01  0.18726396125E+02  0.00000000000E+00 0. -1.
         11    1    3    3    0    0  0.10432343325E+02 -0.14924930664E+02 -0.15805864161E+02  0.24112500590E+02  0.51100000000E-03 0. -1.
        -11    1    3    3    0    0  0.19249083656E+02  0.95457727349E+01  0.10508413780E+02  0.23918105258E+02  0.51100000000E-03 0.  1.
        -12    1    3    3    0    0 -0.21960420478E+02 -0.10697857844E+02 -0.41162434501E+00  0.24430998028E+02  0.00000000000E+00 0.  1.
</event>
<event>
 7    1  0.1283194E-013  0.7246157E+02  0.7816164E-02  0.1226708E+00
        -11   -1    0    0    0    0  0.00000000000E+00  0.00000000000E+00  0.45593999997E+02  0.45594000000E+02  0.51100000000E-03 0.  1.
         11   -1    0    0    0    0 -0.00000000000E+00 -0.00000000000E+00 -0.45593999997E+02  0.45594000000E+02  0.51100000000E-03 0. -1.
    9900012    2    1    2    0    0  0.12359522804E+01  0.57064741617E+01  0.17792908688E+02  0.72461574154E+02  0.70000005028E+02 0.  0.
         12    1    1    2    0    0 -0.12359522804E+01 -0.57064741617E+01 -0.17792908688E+02  0.18726425846E+02  0.00000000000E+00 0. -1.
         11    1    3    3    0    0 -0.23989476611E+02  0.35763511306E+01  0.20130503955E+02  0.31520191389E+02  0.51100000000E-03 0. -1.
        -11    1    3    3    0    0  0.12123092169E+02 -0.18045486694E+01  0.14668831191E+02  0.19115448423E+02  0.51100000000E-03 0.  1.
         12    1    3    3    0    0  0.13102336722E+02  0.39346717005E+01 -0.17006426459E+02  0.21825934341E+02  0.00000000000E+00 0. -1.
</event>
<event>
 7    1  0.1283194E-013  0.7246158E+02  0.7816164E-02  0.1226708E+00
        -11   -1    0    0    0    0  0.00000000000E+00  0.00000000000E+00  0.45593999997E+02  0.45594000000E+02  0.51100000000E-03 0.  1.
         11   -1    0    0    0    0 -0.00000000000E+00 -0.00000000000E+00 -0.45593999997E+02  0.45594000000E+02  0.51100000000E-03 0. -1.
    9900012    2    1    2    0    0 -0.97857026051E+00  0.90190991857E+01  0.16382214712E+02  0.72461582597E+02  0.70000016027E+02 0.  0.
         12    1    1    2    0    0  0.97857026051E+00 -0.90190991857E+01 -0.16382214712E+02  0.18726417403E+02  0.00000000000E+00 0. -1.
         11    1    3    3    0    0  0.57661752502E+01 -0.19507622537E+01 -0.85443849881E+01  0.10490984962E+02  0.51100000000E-03 0. -1.
        -11    1    3    3    0    0 -0.67641187619E+01  0.19066199384E+02  0.40020013508E+02  0.44842778048E+02  0.51100000000E-03 0.  1.
        -12    1    3    3    0    0  0.19373251159E-01 -0.80963379447E+01 -0.15093413808E+02  0.17127819588E+02  0.00000000000E+00 0.  1.
</event>
<event>
 7    1  0.1283194E-013  0.7246161E+02  0.7816164E-02  0.1226708E+00
        -11   -1    0    0    0    0  0.00000000000E+00  0.00000000000E+00  0.45593999997E+02  0.45594000000E+02  0.51100000000E-03 0.  1.
         11   -1    0    0    0    0 -0.00000000000E+00 -0.00000000000E+00 -0.45593999997E+02  0.45594000000E+02  0.51100000000E-03 0. -1.
    9900012    2    1    2    0    0 -0.14373959680E+02  0.10189162832E+02  0.63441383315E+01  0.72461605599E+02  0.70000045991E+02 0.  0.
         12    1    1    2    0    0  0.14373959680E+02 -0.10189162832E+02 -0.63441383315E+01  0.18726394401E+02  0.00000000000E+00 0. -1.
         11    1    3    3    0    0 -0.17091081105E+02  0.97384801094E+01  0.21254628794E+02  0.28960357277E+02  0.51100000000E-03 0.  1.
        -11    1    3    3    0    0  0.17207845413E+02  0.13007208201E+02 -0.62202329128E+01  0.22449692797E+02  0.51100000000E-03 0. -1.
         12    1    3    3    0    0 -0.14490723987E+02 -0.12556525478E+02 -0.86902575498E+01  0.21051555525E+02  0.00000000000E+00 0. -1.
</event>
<event>
 7    1  0.1283194E-013  0.7246151E+02  0.7816164E-02  0.1226708E+00
        -11   -1    0    0    0    0  0.00000000000E+00  0.00000000000E+00  0.45593999997E+02  0.45594000000E+02  0.51100000000E-03 0. -1.
         11   -1    0    0    0    0 -0.00000000000E+00 -0.00000000000E+00 -0.45593999997E+02  0.45594000000E+02  0.51100000000E-03 0.  1.
    9900012    2    1    2    0    0  0.47346788953E+01  0.43643706473E+00 -0.18112805342E+02  0.72461511303E+02  0.69999923153E+02 0.  0.
         12    1    1    2    0    0 -0.47346788953E+01 -0.43643706473E+00  0.18112805342E+02  0.18726488697E+02  0.00000000000E+00 0. -1.
         11    1    3    3    0    0 -0.17637594881E+02  0.36816425371E+01  0.50438509224E+01  0.18710416279E+02  0.51100000000E-03 0. -1.
        -11    1    3    3    0    0  0.29500201392E+02  0.11827441128E+02 -0.14007384463E+02  0.34732651289E+02  0.51100000000E-03 0.  1.
        -12    1    3    3    0    0 -0.71279276160E+01 -0.15072646600E+02 -0.91492718011E+01  0.19018443735E+02  0.00000000000E+00 0.  1.
</event>
<event>
 7    1  0.1283194E-013  0.7246159E+02  0.7816164E-02  0.1226708E+00
        -11   -1    0    0    0    0  0.00000000000E+00  0.00000000000E+00  0.45593999997E+02  0.45594000000E+02  0.51100000000E-03 0.  1.
         11   -1    0    0    0    0 -0.00000000000E+00 -0.00000000000E+00 -0.45593999997E+02  0.45594000000E+02  0.51100000000E-03 0. -1.
    9900012    2    1    2    0    0 -0.47168080976E+00 -0.11706937217E+02  0.14608337232E+02  0.72461591415E+02  0.70000027514E+02 0.  0.
         12    1    1    2    0    0  0.47168080976E+00  0.11706937217E+02 -0.14608337232E+02  0.18726408585E+02  0.00000000000E+00 0. -1.
         11    1    3    3    0    0 -0.90372378424E+01 -0.12661100364E+02  0.26220931464E+01  0.15774996132E+02  0.51100000000E-03 0. -1.
        -11    1    3    3    0    0  0.51385682641E+01  0.18700431997E+02 -0.14784078191E+02  0.24386061775E+02  0.51100000000E-03 0.  1.
        -12    1    3    3    0    0  0.34269887686E+01 -0.17746268850E+02  0.26770322277E+02  0.32300533508E+02  0.00000000000E+00 0.  1.
</event>
<event>
 7    1  0.1283194E-013  0.7246159E+02  0.7816164E-02  0.1226708E+00
        -11   -1    0    0    0    0  0.00000000000E+00  0.00000000000E+00  0.45593999997E+02  0.45594000000E+02  0.51100000000E-03 0.  1.
         11   -1    0    0    0    0 -0.00000000000E+00 -0.00000000000E+00 -0.45593999997E+02  0.45594000000E+02  0.51100000000E-03 0. -1.
    9900012    2    1    2    0    0 -0.15907719906E+02  0.92101425538E+01 -0.35771832700E+01  0.72461587674E+02  0.70000022640E+02 0.  0.
         12    1    1    2    0    0  0.15907719906E+02 -0.92101425538E+01  0.35771832700E+01  0.18726412326E+02  0.00000000000E+00 0. -1.
         11    1    3    3    0    0  0.22914094670E+01 -0.24439320350E+02 -0.52741798271E+01  0.25106730365E+02  0.51100000000E-03 0. -1.
        -11    1    3    3    0    0 -0.15598199650E+02  0.18440745964E+02 -0.11776125834E+02  0.26870840775E+02  0.51100000000E-03 0.  1.
        -12    1    3    3    0    0 -0.26009297228E+01  0.15208716940E+02  0.13473122391E+02  0.20484016534E+02  0.00000000000E+00 0.  1.
</event>
<event>
 7    1  0.1283194E-013  0.7246158E+02  0.7816164E-02  0.1226708E+00
        -11   -1    0    0    0    0  0.00000000000E+00  0.00000000000E+00  0.45593999997E+02  0.45594000000E+02  0.51100000000E-03 0.  1.
         11   -1    0    0    0    0 -0.00000000000E+00 -0.00000000000E+00 -0.45593999997E+02  0.45594000000E+02  0.51100000000E-03 0. -1.
    9900012    2    1    2    0    0 -0.11283475526E+02 -0.14496856165E+02  0.36336229746E+01  0.72461578171E+02  0.70000010261E+02 0.  0.
         12    1    1    2    0    0  0.11283475526E+02  0.14496856165E+02 -0.36336229746E+01  0.18726421829E+02  0.00000000000E+00 0. -1.
         11    1    3    3    0    0  0.47774905159E+01 -0.29762237209E+02  0.11746180773E+02  0.32351011457E+02  0.51100000000E-03 0. -1.
        -11    1    3    3    0    0  0.18873638625E+01  0.18499424031E+02  0.28790027435E+01  0.18816999997E+02  0.51100000000E-03 0.  1.
         12    1    3    3    0    0 -0.17948329904E+02 -0.32340429869E+01 -0.10991560542E+02  0.21293566717E+02  0.00000000000E+00 0. -1.
</event>
<event>
 7    1  0.1283194E-013  0.7246183E+02  0.7816164E-02  0.1226707E+00
        -11   -1    0    0    0    0  0.00000000000E+00  0.00000000000E+00  0.45593999997E+02  0.45594000000E+02  0.51100000000E-03 0.  1.
         11   -1    0    0    0    0 -0.00000000000E+00 -0.00000000000E+00 -0.45593999997E+02  0.45594000000E+02  0.51100000000E-03 0. -1.
    9900012    2    1    2    0    0  0.74625657169E+01  0.23021988108E+00  0.17173428118E+02  0.72461827898E+02  0.70000335576E+02 0.  0.
         12    1    1    2    0    0 -0.74625657169E+01 -0.23021988108E+00 -0.17173428118E+02  0.18726172102E+02  0.00000000000E+00 0. -1.
         11    1    3    3    0    0 -0.26038571060E+01  0.51199492583E+01 -0.21094518279E+02  0.21862585710E+02  0.51100000000E-03 0. -1.
        -11    1    3    3    0    0 -0.34088571057E+01 -0.86718545023E+01  0.35010448396E+02  0.36229171457E+02  0.51100000000E-03 0.  1.
         12    1    3    3    0    0  0.13475279929E+02  0.37821251251E+01  0.32574980003E+01  0.14370070732E+02  0.00000000000E+00 0. -1.
</event>
<event>
 7    1  0.1283194E-013  0.7246165E+02  0.7816164E-02  0.1226708E+00
        -11   -1    0    0    0    0  0.00000000000E+00  0.00000000000E+00  0.45593999997E+02  0.45594000000E+02  0.51100000000E-03 0.  1.
         11   -1    0    0    0    0 -0.00000000000E+00 -0.00000000000E+00 -0.45593999997E+02  0.45594000000E+02  0.51100000000E-03 0. -1.
    9900012    2    1    2    0    0  0.85826249604E+01  0.90964154332E+01 -0.13938069528E+02  0.72461654732E+02  0.70000109995E+02 0.  0.
         12    1    1    2    0    0 -0.85826249604E+01 -0.90964154332E+01  0.13938069528E+02  0.18726345268E+02  0.00000000000E+00 0. -1.
         11    1    3    3    0    0  0.82924322416E+01 -0.97414601495E+01 -0.39197183280E+01  0.13380010103E+02  0.51100000000E-03 0. -1.
        -11    1    3    3    0    0 -0.25416187258E+02  0.17052637840E+02 -0.12775888977E+02  0.33166223352E+02  0.51100000000E-03 0.  1.
        -12    1    3    3    0    0  0.25706379977E+02  0.17852377428E+01  0.27575377766E+01  0.25915421276E+02  0.00000000000E+00 0.  1.
</event>
<event>
 7    1  0.1283194E-013  0.7246161E+02  0.7816164E-02  0.1226708E+00
        -11   -1    0    0    0    0  0.00000000000E+00  0.00000000000E+00  0.45593999997E+02  0.45594000000E+02  0.51100000000E-03 0.  1.
         11   -1    0    0    0    0 -0.00000000000E+00 -0.00000000000E+00 -0.45593999997E+02  0.45594000000E+02  0.51100000000E-03 0. -1.
    9900012    2    1    2    0    0 -0.49311786169E+01 -0.67886947028E+01  0.16741408380E+02  0.72461610789E+02  0.70000052752E+02 0.  0.
         12    1    1    2    0    0  0.49311786169E+01  0.67886947028E+01 -0.16741408380E+02  0.18726389211E+02  0.00000000000E+00 0. -1.
         11    1    3    3    0    0  0.19872274366E+02  0.21934772341E+02  0.10196596016E+01  0.29615557265E+02  0.51100000000E-03 0. -1.
        -11    1    3    3    0    0 -0.17904347424E+02 -0.11953781735E+02  0.64134020579E+01  0.22463087069E+02  0.51100000000E-03 0.  1.
         12    1    3    3    0    0 -0.68991055592E+01 -0.16769685309E+02  0.93083467206E+01  0.20382966456E+02  0.00000000000E+00 0. -1.
</event>
<event>
 7    1  0.1283194E-013  0.7246158E+02  0.7816164E-02  0.1226708E+00
        -11   -1    0    0    0    0  0.00000000000E+00  0.00000000000E+00  0.45593999997E+02  0.45594000000E+02  0.51100000000E-03 0.  1.
         11   -1    0    0    0    0 -0.00000000000E+00 -0.00000000000E+00 -0.45593999997E+02  0.45594000000E+02  0.51100000000E-03 0. -1.
    9900012    2    1    2    0    0 -0.62585903985E+01  0.91904878837E+01  0.15067973306E+02  0.72461579069E+02  0.70000011431E+02 0.  0.
         12    1    1    2    0    0  0.62585903985E+01 -0.91904878837E+01 -0.15067973306E+02  0.18726420931E+02  0.00000000000E+00 0. -1.
         11    1    3    3    0    0 -0.23024379147E+02 -0.78101666369E+01 -0.30478051907E+01  0.24503262124E+02  0.51100000000E-03 0. -1.
        -11    1    3    3    0    0  0.23792824457E+02  0.69888330386E+01 -0.14977843998E+01  0.24843221234E+02  0.51100000000E-03 0.  1.
        -12    1    3    3    0    0 -0.70270357091E+01  0.10011821482E+02  0.19613562897E+02  0.23115095711E+02  0.00000000000E+00 0.  1.
</event>
<event>
 7    1  0.1283194E-013  0.7246132E+02  0.7816164E-02  0.1226709E+00
        -11   -1    0    0    0    0  0.00000000000E+00  0.00000000000E+00  0.45593999997E+02  0.45594000000E+02  0.51100000000E-03 0. -1.
         11   -1    0    0    0    0 -0.00000000000E+00 -0.00000000000E+00 -0.45593999997E+02  0.45594000000E+02  0.51100000000E-03 0.  1.
    9900012    2    1    2    0    0 -0.33817509980E+01  0.18161984016E+02 -0.30650418016E+01  0.72461324255E+02  0.69999679488E+02 0.  0.
         12    1    1    2    0    0  0.33817509980E+01 -0.18161984016E+02  0.30650418016E+01  0.18726675745E+02  0.00000000000E+00 0. -1.
         11    1    3    3    0    0 -0.20562523417E+02  0.18476880629E+02  0.24313382693E+02  0.36815120063E+02  0.51100000000E-03 0. -1.
        -11    1    3    3    0    0  0.19764190571E+02  0.55426155475E+00 -0.21757775940E+02  0.29399511032E+02  0.51100000000E-03 0.  1.
         12    1    3    3    0    0 -0.25834181518E+01 -0.86915816851E+00 -0.56206485543E+01  0.62466931604E+01  0.00000000000E+00 0. -1.
</event>
<event>
 7    1  0.1283194E-013  0.7246155E+02  0.7816164E-02  0.1226708E+00
        -11   -1    0    0    0    0  0.00000000000E+00  0.00000000000E+00  0.45593999997E+02  0.45594000000E+02  0.51100000000E-03 0. -1.
         11   -1    0    0    0    0 -0.00000000000E+00 -0.00000000000E+00 -0.45593999997E+02  0.45594000000E+02  0.51100000000E-03 0.  1.
    9900012    2    1    2    0    0 -0.86189193820E+01 -0.61528843050E+01 -0.15444613618E+02  0.72461552221E+02  0.69999976457E+02 0.  0.
         12    1    1    2    0    0  0.86189193820E+01  0.61528843050E+01  0.15444613618E+02  0.18726447779E+02  0.00000000000E+00 0. -1.
         11    1    3    3    0    0 -0.33063689848E+02 -0.14128377993E+02 -0.23553685672E+02  0.42983656895E+02  0.51100000000E-03 0. -1.
        -11    1    3    3    0    0  0.61192059892E+01 -0.17316022566E+01 -0.16330586899E+01  0.65658212936E+01  0.51100000000E-03 0.  1.
         12    1    3    3    0    0  0.18325564476E+02  0.97070959450E+01  0.97421307437E+01  0.22912074033E+02  0.00000000000E+00 0. -1.
</event>
<event>
 7    1  0.1283194E-013  0.7246156E+02  0.7816164E-02  0.1226708E+00
        -11   -1    0    0    0    0  0.00000000000E+00  0.00000000000E+00  0.45593999997E+02  0.45594000000E+02  0.51100000000E-03 0.  1.
         11   -1    0    0    0    0 -0.00000000000E+00 -0.00000000000E+00 -0.45593999997E+02  0.45594000000E+02  0.51100000000E-03 0. -1.
    9900012    2    1    2    0    0  0.85275279523E+01  0.12142580874E+02  0.11424473992E+02  0.72461558553E+02  0.69999984705E+02 0.  0.
         12    1    1    2    0    0 -0.85275279523E+01 -0.12142580874E+02 -0.11424473992E+02  0.18726441447E+02  0.00000000000E+00 0. -1.
         11    1    3    3    0    0  0.10284986434E+02 -0.13752192559E+02  0.80803588716E+01  0.18978828885E+02  0.51100000000E-03 0. -1.
        -11    1    3    3    0    0  0.13928865987E+02  0.28360538571E+02  0.13791439854E+02  0.34475168879E+02  0.51100000000E-03 0.  1.
        -12    1    3    3    0    0 -0.15686324469E+02 -0.24657651386E+01 -0.10447324734E+02  0.19007560789E+02  0.00000000000E+00 0.  1.
</event>
<event>
 7    1  0.1283194E-013  0.7246167E+02  0.7816164E-02  0.1226708E+00
        -11   -1    0    0    0    0  0.00000000000E+00  0.00000000000E+00  0.45593999997E+02  0.45594000000E+02  0.51100000000E-03 0.  1.
         11   -1    0    0    0    0 -0.00000000000E+00 -0.00000000000E+00 -0.45593999997E+02  0.45594000000E+02  0.51100000000E-03 0. -1.
    9900012    2    1    2    0    0 -0.16675671785E+02  0.83552423090E+01 -0.16695099740E+01  0.72461671821E+02  0.70000132257E+02 0.  0.
         12    1    1    2    0    0  0.16675671785E+02 -0.83552423090E+01  0.16695099740E+01  0.18726328179E+02  0.00000000000E+00 0. -1.
         11    1    3    3    0    0  0.23425930608E+02 -0.86031130940E+01 -0.53481389027E+01  0.25522350397E+02  0.51100000000E-03 0. -1.
        -11    1    3    3    0    0 -0.87193117152E+01 -0.18607683727E+01  0.51889399227E+01  0.10315713912E+02  0.51100000000E-03 0.  1.
         12    1    3    3    0    0 -0.31382290679E+02  0.18819123776E+02 -0.15103109940E+01  0.36623607512E+02  0.00000000000E+00 0. -1.
</event>
<event>
 7    1  0.1283194E-013  0.7246157E+02  0.7816164E-02  0.1226708E+00
        -11   -1    0    0    0    0  0.00000000000E+00  0.00000000000E+00  0.45593999997E+02  0.45594000000E+02  0.51100000000E-03 0.  1.
         11   -1    0    0    0    0 -0.00000000000E+00 -0.00000000000E+00 -0.45593999997E+02  0.45594000000E+02  0.51100000000E-03 0. -1.
    9900012    2    1    2    0    0 -0.18136036624E+02  0.22420048715E+01  0.40910789682E+01  0.72461565812E+02  0.69999994161E+02 0.  0.
         12    1    1    2    0    0  0.18136036624E+02 -0.22420048715E+01 -0.40910789682E+01  0.18726434188E+02  0.00000000000E+00 0. -1.
         11    1    3    3    0    0  0.72727902100E+01 -0.28826943235E+02 -0.68877304742E+01  0.30517650058E+02  0.51100000000E-03 0. -1.
        -11    1    3    3    0    0 -0.56903187018E+01  0.89984839490E+01  0.49451247143E+01  0.11739109805E+02  0.51100000000E-03 0.  1.
         12    1    3    3    0    0 -0.19718508132E+02  0.22070464157E+02  0.60336847282E+01  0.30204805950E+02  0.00000000000E+00 0. -1.
</event>
<event>
 7    1  0.1283194E-013  0.7246162E+02  0.7816164E-02  0.1226708E+00
        -11   -1    0    0    0    0  0.00000000000E+00  0.00000000000E+00  0.45593999997E+02  0.45594000000E+02  0.51100000000E-03 0. -1.
         11   -1    0    0    0    0 -0.00000000000E+00 -0.00000000000E+00 -0.45593999997E+02  0.45594000000E+02  0.51100000000E-03 0.  1.
    9900012    2    1    2    0    0 -0.14038788926E+02  0.59237171666E+01 -0.10885739964E+02  0.72461618765E+02  0.70000063143E+02 0.  0.
         12    1    1    2    0    0  0.14038788926E+02 -0.59237171666E+01  0.10885739964E+02  0.18726381235E+02  0.00000000000E+00 0. -1.
         11    1    3    3    0    0  0.19570952851E+02  0.11284826767E+02 -0.41857825328E+01  0.22975863125E+02  0.51100000000E-03 0. -1.
        -11    1    3    3    0    0 -0.11024015072E+02 -0.58012862904E+01 -0.19784673312E+02  0.23379844509E+02  0.51100000000E-03 0.  1.
         12    1    3    3    0    0 -0.22585726706E+02  0.44017669032E+00  0.13084715881E+02  0.26105911132E+02  0.00000000000E+00 0. -1.
</event>
<event>
 7    1  0.1283194E-013  0.7246158E+02  0.7816164E-02  0.1226708E+00
        -11   -1    0    0    0    0  0.00000000000E+00  0.00000000000E+00  0.45593999997E+02  0.45594000000E+02  0.51100000000E-03 0. -1.
         11   -1    0    0    0    0 -0.00000000000E+00 -0.00000000000E+00 -0.45593999997E+02  0.45594000000E+02  0.51100000000E-03 0.  1.
    9900012    2    1    2    0    0  0.91375645180E+01 -0.12820918803E+02  0.10139420285E+02  0.72461577811E+02  0.70000009792E+02 0.  0.
         12    1    1    2    0    0 -0.91375645180E+01  0.12820918803E+02 -0.10139420285E+02  0.18726422189E+02  0.00000000000E+00 0. -1.
         11    1    3    3    0    0  0.11198413115E+02  0.39723320337E+01 -0.69733344182E+01  0.13777201140E+02  0.51100000000E-03 0. -1.
        -11    1    3    3    0    0  0.73782586489E+01 -0.69661399060E+01  0.34861546291E+02  0.36308307809E+02  0.51100000000E-03 0.  1.
        -12    1    3    3    0    0 -0.94391072464E+01 -0.98271109308E+01 -0.17748791589E+02  0.22376068862E+02  0.00000000000E+00 0.  1.
</event>
<event>
 7    1  0.1283194E-013  0.7246156E+02  0.7816164E-02  0.1226708E+00
        -11   -1    0    0    0    0  0.00000000000E+00  0.00000000000E+00  0.45593999997E+02  0.45594000000E+02  0.51100000000E-03 0. -1.
         11   -1    0    0    0    0 -0.00000000000E+00 -0.00000000000E+00 -0.45593999997E+02  0.45594000000E+02  0.51100000000E-03 0.  1.
    9900012    2    1    2    0    0 -0.13882749669E+02 -0.11134818598E+02 -0.58279140007E+01  0.72461561332E+02  0.69999988326E+02 0.  0.
         12    1    1    2    0    0  0.13882749669E+02  0.11134818598E+02  0.58279140007E+01  0.18726438668E+02  0.00000000000E+00 0. -1.
         11    1    3    3    0    0  0.45426690904E+01 -0.19291364092E+02 -0.12538077141E+02  0.23451992445E+02  0.51100000000E-03 0. -1.
        -11    1    3    3    0    0 -0.25659028419E+02  0.19441210724E+02 -0.31838994842E+01  0.32349399222E+02  0.51100000000E-03 0.  1.
        -12    1    3    3    0    0  0.72336096603E+01 -0.11284665230E+02  0.98940626243E+01  0.16660169666E+02  0.00000000000E+00 0.  1.
</event>
<event>
 7    1  0.1283194E-013  0.7246155E+02  0.7816164E-02  0.1226708E+00
        -11   -1    0    0    0    0  0.00000000000E+00  0.00000000000E+00  0.45593999997E+02  0.45594000000E+02  0.51100000000E-03 0. -1.
         11   -1    0    0    0    0 -0.00000000000E+00 -0.00000000000E+00 -0.45593999997E+02  0.45594000000E+02  0.51100000000E-03 0.  1.
    9900012    2    1    2    0    0  0.42159215811E+01  0.69844259432E+01 -0.16855965042E+02  0.72461554581E+02  0.69999979531E+02 0.  0.
         12    1    1    2    0    0 -0.42159215811E+01 -0.69844259432E+01  0.16855965042E+02  0.18726445419E+02  0.00000000000E+00 0. -1.
         11    1    3    3    0    0 -0.19232473412E+02 -0.17844673388E+02 -0.11167040929E+02  0.28513561777E+02  0.51100000000E-03 0. -1.
        -11    1    3    3    0    0  0.11144147382E+02  0.27195013178E+02  0.16342471445E+01  0.29435208962E+02  0.51100000000E-03 0.  1.
        -12    1    3    3    0    0  0.12304247611E+02 -0.23659138470E+01 -0.73231712573E+01  0.14512783843E+02  0.00000000000E+00 0.  1.
</event>
<event>
 7    1  0.1283194E-013  0.7246142E+02  0.7816164E-02  0.1226708E+00
        -11   -1    0    0    0    0  0.00000000000E+00  0.00000000000E+00  0.45593999997E+02  0.45594000000E+02  0.51100000000E-03 0. -1.
         11   -1    0    0    0    0 -0.00000000000E+00 -0.00000000000E+00 -0.45593999997E+02  0.45594000000E+02  0.51100000000E-03 0.  1.
    9900012    2    1    2    0    0  0.74721010904E+01  0.14938460392E+02 -0.84672812492E+01  0.72461421420E+02  0.69999806063E+02 0.  0.
         12    1    1    2    0    0 -0.74721010904E+01 -0.14938460392E+02  0.84672812492E+01  0.18726578580E+02  0.00000000000E+00 0. -1.
         11    1    3    3    0    0  0.14449856082E+02 -0.81692206591E+01  0.79678340541E+01  0.18412519837E+02  0.51100000000E-03 0. -1.
        -11    1    3    3    0    0 -0.25751581296E+02  0.13630219065E+02 -0.15488269375E+02  0.32997171083E+02  0.51100000000E-03 0.  1.
        -12    1    3    3    0    0  0.18773826305E+02  0.94774619860E+01 -0.94684592852E+00  0.21051730499E+02  0.00000000000E+00 0.  1.
</event>
<event>
 8    1  0.1283194E-013  0.7246196E+02  0.7816164E-02  0.1226707E+00
        -11   -1    0    0    0    0  0.00000000000E+00  0.00000000000E+00  0.45593999997E+02  0.45594000000E+02  0.51100000000E-03 0.  1.
         11   -1    0    0    0    0 -0.00000000000E+00 -0.00000000000E+00 -0.45593999997E+02  0.45594000000E+02  0.51100000000E-03 0. -1.
    9900012    2    1    2    0    0  0.11488780648E+01  0.17028071598E+02  0.77064495718E+01  0.72461961760E+02  0.70000509955E+02 0.  0.
         24    2    3    3    0    0 -0.72471829352E+01  0.22375789269E+02  0.11065828517E+02  0.61955899141E+02  0.56239516994E+02 0.  0.
         12    1    1    2    0    0 -0.11488780648E+01 -0.17028071598E+02 -0.77064495718E+01  0.18726038240E+02  0.00000000000E+00 0. -1.
         11    1    3    3    0    0  0.83960610000E+01 -0.53477176709E+01 -0.33593789453E+01  0.10506062619E+02  0.51100000000E-03 0. -1.
        -11    1    4    4    0    0 -0.32235255055E+01  0.11016999675E+02  0.34088998579E+02  0.35969782081E+02  0.51100000000E-03 0.  1.
         12    1    4    4    0    0 -0.40236574297E+01  0.11358789594E+02 -0.23023170062E+02  0.25986117060E+02  0.00000000000E+00 0. -1.
</event>
<event>
 7    1  0.1283194E-013  0.7246151E+02  0.7816164E-02  0.1226708E+00
        -11   -1    0    0    0    0  0.00000000000E+00  0.00000000000E+00  0.45593999997E+02  0.45594000000E+02  0.51100000000E-03 0.  1.
         11   -1    0    0    0    0 -0.00000000000E+00 -0.00000000000E+00 -0.45593999997E+02  0.45594000000E+02  0.51100000000E-03 0. -1.
    9900012    2    1    2    0    0  0.16807663909E+02 -0.81542657067E+01  0.13006610996E+01  0.72461512487E+02  0.69999924695E+02 0.  0.
         12    1    1    2    0    0 -0.16807663909E+02  0.81542657067E+01 -0.13006610996E+01  0.18726487513E+02  0.00000000000E+00 0. -1.
         11    1    3    3    0    0  0.10459328670E+02 -0.11776571798E+02 -0.17232106732E+02  0.23345892620E+02  0.51100000000E-03 0. -1.
        -11    1    3    3    0    0 -0.91719419884E+01  0.11274193884E+02  0.26377413661E+02  0.30116439353E+02  0.51100000000E-03 0.  1.
        -12    1    3    3    0    0  0.15520277228E+02 -0.76518877926E+01 -0.78446458291E+01  0.18999180514E+02  0.00000000000E+00 0.  1.
</event>
<event>
 7    1  0.1283194E-013  0.7246155E+02  0.7816164E-02  0.1226708E+00
        -11   -1    0    0    0    0  0.00000000000E+00  0.00000000000E+00  0.45593999997E+02  0.45594000000E+02  0.51100000000E-03 0. -1.
         11   -1    0    0    0    0 -0.00000000000E+00 -0.00000000000E+00 -0.45593999997E+02  0.45594000000E+02  0.51100000000E-03 0.  1.
    9900012    2    1    2    0    0  0.57105786768E+01 -0.82152971299E+01 -0.15829656572E+02  0.72461552314E+02  0.69999976577E+02 0.  0.
         12    1    1    2    0    0 -0.57105786768E+01  0.82152971299E+01  0.15829656572E+02  0.18726447686E+02  0.00000000000E+00 0. -1.
         11    1    3    3    0    0  0.12607231030E+01  0.11933073400E+01  0.22230289262E+01  0.28205075816E+01  0.51100000000E-03 0. -1.
        -11    1    3    3    0    0  0.29838209741E+02 -0.23662697172E+02 -0.11714099235E+02  0.39842968252E+02  0.51100000000E-03 0.  1.
        -12    1    3    3    0    0 -0.25388354168E+02  0.14254092702E+02 -0.63385862626E+01  0.29798076480E+02  0.00000000000E+00 0.  1.
</event>
<event>
 7    1  0.1283194E-013  0.7246154E+02  0.7816164E-02  0.1226708E+00
        -11   -1    0    0    0    0  0.00000000000E+00  0.00000000000E+00  0.45593999997E+02  0.45594000000E+02  0.51100000000E-03 0.  1.
         11   -1    0    0    0    0 -0.00000000000E+00 -0.00000000000E+00 -0.45593999997E+02  0.45594000000E+02  0.51100000000E-03 0. -1.
    9900012    2    1    2    0    0 -0.10514221161E+02 -0.12325564519E+02 -0.93921183084E+01  0.72461540814E+02  0.69999961596E+02 0.  0.
         12    1    1    2    0    0  0.10514221161E+02  0.12325564519E+02  0.93921183084E+01  0.18726459186E+02  0.00000000000E+00 0. -1.
         11    1    3    3    0    0 -0.46961607640E+01 -0.37318334178E+02 -0.12626883290E+02  0.39675561416E+02  0.51100000000E-03 0. -1.
        -11    1    3    3    0    0  0.40696522409E+01  0.14992125794E+02  0.85733092570E+01  0.17743380091E+02  0.51100000000E-03 0.  1.
         12    1    3    3    0    0 -0.98877126382E+01  0.10000643866E+02 -0.53385442749E+01  0.15042599307E+02  0.00000000000E+00 0. -1.
</event>
<event>
 8    1  0.1283194E-013  0.7246160E+02  0.7816164E-02  0.1226708E+00
        -11   -1    0    0    0    0  0.00000000000E+00  0.00000000000E+00  0.45593999997E+02  0.45594000000E+02  0.51100000000E-03 0.  1.
         11   -1    0    0    0    0 -0.00000000000E+00 -0.00000000000E+00 -0.45593999997E+02  0.45594000000E+02  0.51100000000E-03 0. -1.
    9900012    2    1    2    0    0 -0.10095475818E+02 -0.11692973035E+02  0.10584609046E+02  0.72461596206E+02  0.70000033755E+02 0.  0.
        -24    2    3    3    0    0 -0.11938268639E+02 -0.24570093457E+02  0.29716091110E+01  0.57389307594E+02  0.50383433933E+02 0.  0.
         12    1    1    2    0    0  0.10095475818E+02  0.11692973035E+02 -0.10584609046E+02  0.18726403794E+02  0.00000000000E+00 0. -1.
         11    1    4    4    0    0 -0.27409692799E+02 -0.23643173505E+02  0.13520831459E+02  0.38640701292E+02  0.51100000000E-03 0. -1.
        -11    1    3    3    0    0  0.18427928204E+01  0.12877120422E+02  0.76129999347E+01  0.15072288612E+02  0.51100000000E-03 0.  1.
        -12    1    4    4    0    0  0.15471424160E+02 -0.92691995247E+00 -0.10549222348E+02  0.18748606303E+02  0.00000000000E+00 0.  1.
</event>
<event>
 7    1  0.1283194E-013  0.7246156E+02  0.7816164E-02  0.1226708E+00
        -11   -1    0    0    0    0  0.00000000000E+00  0.00000000000E+00  0.45593999997E+02  0.45594000000E+02  0.51100000000E-03 0.  1.
         11   -1    0    0    0    0 -0.00000000000E+00 -0.00000000000E+00 -0.45593999997E+02  0.45594000000E+02  0.51100000000E-03 0. -1.
    9900012    2    1    2    0    0  0.14977802395E+01  0.16476895921E+02  0.87720059264E+01  0.72461560594E+02  0.69999987364E+02 0.  0.
         12    1    1    2    0    0 -0.14977802395E+01 -0.16476895921E+02 -0.87720059264E+01  0.18726439406E+02  0.00000000000E+00 0. -1.
         11    1    3    3    0    0  0.30097591618E+01 -0.87274599139E+00  0.28219090520E+02  0.28392558987E+02  0.51100000000E-03 0. -1.
        -11    1    3    3    0    0  0.13206007264E+02 -0.10769458742E+01 -0.15099431819E+02  0.20088585858E+02  0.51100000000E-03 0.  1.
         12    1    3    3    0    0 -0.14717986186E+02  0.18426587787E+02 -0.43476527753E+01  0.23980415749E+02  0.00000000000E+00 0. -1.
</event>
<event>
 7    1  0.1283194E-013  0.7246166E+02  0.7816164E-02  0.1226708E+00
        -11   -1    0    0    0    0  0.00000000000E+00  0.00000000000E+00  0.45593999997E+02  0.45594000000E+02  0.51100000000E-03 0. -1.
         11   -1    0    0    0    0 -0.00000000000E+00 -0.00000000000E+00 -0.45593999997E+02  0.45594000000E+02  0.51100000000E-03 0.  1.
    9900012    2    1    2    0    0 -0.73088955076E+01  0.17158438491E+02 -0.16863820880E+01  0.72461658939E+02  0.70000115476E+02 0.  0.
         12    1    1    2    0    0  0.73088955076E+01 -0.17158438491E+02  0.16863820880E+01  0.18726341061E+02  0.00000000000E+00 0. -1.
         11    1    3    3    0    0  0.80929598490E+01  0.69822803903E+01  0.18008986141E+02  0.20942106404E+02  0.51100000000E-03 0. -1.
        -11    1    3    3    0    0 -0.74714656529E+01  0.92503640564E+00 -0.32783798550E+02  0.33637121443E+02  0.51100000000E-03 0.  1.
        -12    1    3    3    0    0 -0.79303897037E+01  0.92511216953E+01  0.13088430321E+02  0.17882431091E+02  0.00000000000E+00 0.  1.
</event>
<event>
 7    1  0.1283194E-013  0.7246159E+02  0.7816164E-02  0.1226708E+00
        -11   -1    0    0    0    0  0.00000000000E+00  0.00000000000E+00  0.45593999997E+02  0.45594000000E+02  0.51100000000E-03 0.  1.
         11   -1    0    0    0    0 -0.00000000000E+00 -0.00000000000E+00 -0.45593999997E+02  0.45594000000E+02  0.51100000000E-03 0. -1.
    9900012    2    1    2    0    0  0.15646222293E+02 -0.27744213403E+00  0.10285784227E+02  0.72461585412E+02  0.70000019693E+02 0.  0.
         12    1    1    2    0    0 -0.15646222293E+02  0.27744213403E+00 -0.10285784227E+02  0.18726414588E+02  0.00000000000E+00 0. -1.
         11    1    3    3    0    0 -0.29870655566E+01  0.46315698064E+01 -0.74566179778E+01  0.92722786541E+01  0.51100000000E-03 0. -1.
        -11    1    3    3    0    0  0.36520073256E+02 -0.15332244095E+02  0.84604036005E+01  0.40501504774E+02  0.51100000000E-03 0.  1.
        -12    1    3    3    0    0 -0.17886785407E+02  0.10423232154E+02  0.92819986046E+01  0.22687801983E+02  0.00000000000E+00 0.  1.
</event>
<event>
 7    1  0.1283194E-013  0.7246156E+02  0.7816164E-02  0.1226708E+00
        -11   -1    0    0    0    0  0.00000000000E+00  0.00000000000E+00  0.45593999997E+02  0.45594000000E+02  0.51100000000E-03 0. -1.
         11   -1    0    0    0    0 -0.00000000000E+00 -0.00000000000E+00 -0.45593999997E+02  0.45594000000E+02  0.51100000000E-03 0.  1.
    9900012    2    1    2    0    0 -0.33111851805E+01 -0.48954879497E+01 -0.17769349327E+02  0.72461560801E+02  0.69999987634E+02 0.  0.
         12    1    1    2    0    0  0.33111851805E+01  0.48954879497E+01  0.17769349327E+02  0.18726439199E+02  0.00000000000E+00 0. -1.
         11    1    3    3    0    0  0.82201424261E+01 -0.56739411212E+01 -0.38196089138E+02  0.39480445477E+02  0.51100000000E-03 0.  1.
        -11    1    3    3    0    0  0.31906903926E+01 -0.10589273277E+01  0.17549328664E+02  0.17868429396E+02  0.51100000000E-03 0. -1.
         12    1    3    3    0    0 -0.14722017999E+02  0.18373804992E+01  0.28774111476E+01  0.15112685929E+02  0.00000000000E+00 0. -1.
</event>
<event>
 7    1  0.1283194E-013  0.7246158E+02  0.7816164E-02  0.1226708E+00
        -11   -1    0    0    0    0  0.00000000000E+00  0.00000000000E+00  0.45593999997E+02  0.45594000000E+02  0.51100000000E-03 0. -1.
         11   -1    0    0    0    0 -0.00000000000E+00 -0.00000000000E+00 -0.45593999997E+02  0.45594000000E+02  0.51100000000E-03 0.  1.
    9900012    2    1    2    0    0 -0.10165875358E+02  0.14253529044E+02 -0.66460933400E+01  0.72461583667E+02  0.70000017420E+02 0.  0.
         12    1    1    2    0    0  0.10165875358E+02 -0.14253529044E+02  0.66460933400E+01  0.18726416333E+02  0.00000000000E+00 0. -1.
         11    1    3    3    0    0 -0.88095555997E+01 -0.19626078154E+02  0.34877328911E+01  0.21793473668E+02  0.51100000000E-03 0. -1.
        -11    1    3    3    0    0  0.14796878586E+02  0.22816168534E+02 -0.14189807587E+02  0.30673698865E+02  0.51100000000E-03 0.  1.
         12    1    3    3    0    0 -0.16153198344E+02  0.11063438664E+02  0.40559813562E+01  0.19994411133E+02  0.00000000000E+00 0. -1.
</event>
<event>
 7    1  0.1283194E-013  0.7246154E+02  0.7816164E-02  0.1226708E+00
        -11   -1    0    0    0    0  0.00000000000E+00  0.00000000000E+00  0.45593999997E+02  0.45594000000E+02  0.51100000000E-03 0.  1.
         11   -1    0    0    0    0 -0.00000000000E+00 -0.00000000000E+00 -0.45593999997E+02  0.45594000000E+02  0.51100000000E-03 0. -1.
    9900012    2    1    2    0    0 -0.40293551585E+01 -0.18099076126E+02  0.26206808023E+01  0.72461542046E+02  0.69999963202E+02 0.  0.
         12    1    1    2    0    0  0.40293551585E+01  0.18099076126E+02 -0.26206808023E+01  0.18726457954E+02  0.00000000000E+00 0. -1.
         11    1    3    3    0    0 -0.14381804370E+02  0.13756470262E+02 -0.15906359540E+02  0.25477226008E+02  0.51100000000E-03 0. -1.
        -11    1    3    3    0    0  0.71730661503E+01 -0.17259253580E+02  0.24568962346E+02  0.30870189879E+02  0.51100000000E-03 0.  1.
        -12    1    3    3    0    0  0.31793830610E+01 -0.14596292807E+02 -0.60419220041E+01  0.16114126159E+02  0.00000000000E+00 0.  1.
</event>
<event>
 7    1  0.1283194E-013  0.7246153E+02  0.7816164E-02  0.1226708E+00
        -11   -1    0    0    0    0  0.00000000000E+00  0.00000000000E+00  0.45593999997E+02  0.45594000000E+02  0.51100000000E-03 0. -1.
         11   -1    0    0    0    0 -0.00000000000E+00 -0.00000000000E+00 -0.45593999997E+02  0.45594000000E+02  0.51100000000E-03 0.  1.
    9900012    2    1    2    0    0  0.15995839982E+01 -0.16307586230E+02 -0.90655731593E+01  0.72461530650E+02  0.69999948356E+02 0.  0.
         12    1    1    2    0    0 -0.15995839982E+01  0.16307586230E+02  0.90655731593E+01  0.18726469350E+02  0.00000000000E+00 0. -1.
         11    1    3    3    0    0 -0.95021779658E+01  0.20708810588E+02  0.65405658833E+01  0.23704962021E+02  0.51100000000E-03 0. -1.
        -11    1    3    3    0    0  0.10868484292E+02 -0.42633350553E+01  0.15573284616E+01  0.11778168312E+02  0.51100000000E-03 0.  1.
         12    1    3    3    0    0  0.23327767249E+00 -0.32753061762E+02 -0.17163467504E+02  0.36978400318E+02  0.00000000000E+00 0. -1.
</event>
<event>
 7    1  0.1283194E-013  0.7246157E+02  0.7816164E-02  0.1226708E+00
        -11   -1    0    0    0    0  0.00000000000E+00  0.00000000000E+00  0.45593999997E+02  0.45594000000E+02  0.51100000000E-03 0.  1.
         11   -1    0    0    0    0 -0.00000000000E+00 -0.00000000000E+00 -0.45593999997E+02  0.45594000000E+02  0.51100000000E-03 0. -1.
    9900012    2    1    2    0    0  0.94764249799E+01  0.39093291376E+01  0.15671430692E+02  0.72461568823E+02  0.69999998083E+02 0.  0.
         12    1    1    2    0    0 -0.94764249799E+01 -0.39093291376E+01 -0.15671430692E+02  0.18726431177E+02  0.00000000000E+00 0. -1.
         11    1    3    3    0    0  0.16973515026E+02  0.27531495332E+02 -0.70884976697E+01  0.33110878077E+02  0.51100000000E-03 0. -1.
        -11    1    3    3    0    0 -0.69969126360E+00 -0.26712157806E+01  0.16106757234E+02  0.16341743802E+02  0.51100000000E-03 0.  1.
         12    1    3    3    0    0 -0.67973987827E+01 -0.20950950414E+02  0.66531711268E+01  0.23008946944E+02  0.00000000000E+00 0. -1.
</event>
<event>
 7    1  0.1283194E-013  0.7246158E+02  0.7816164E-02  0.1226708E+00
        -11   -1    0    0    0    0  0.00000000000E+00  0.00000000000E+00  0.45593999997E+02  0.45594000000E+02  0.51100000000E-03 0. -1.
         11   -1    0    0    0    0 -0.00000000000E+00 -0.00000000000E+00 -0.45593999997E+02  0.45594000000E+02  0.51100000000E-03 0.  1.
    9900012    2    1    2    0    0  0.13392279433E+02 -0.83708557230E+01 -0.10062528036E+02  0.72461578975E+02  0.70000011308E+02 0.  0.
         12    1    1    2    0    0 -0.13392279433E+02  0.83708557230E+01  0.10062528036E+02  0.18726421025E+02  0.00000000000E+00 0. -1.
         11    1    3    3    0    0  0.20784685208E+02 -0.16840033961E+02  0.11936582444E+02  0.29292864041E+02  0.51100000000E-03 0. -1.
        -11    1    3    3    0    0 -0.20253054590E+02  0.74801712432E+01 -0.55998968759E+01  0.22304663803E+02  0.51100000000E-03 0.  1.
        -12    1    3    3    0    0  0.12860648815E+02  0.98900699495E+00 -0.16399213604E+02  0.20864051131E+02  0.00000000000E+00 0.  1.
</event>
<event>
 7    1  0.1283194E-013  0.7246151E+02  0.7816164E-02  0.1226708E+00
        -11   -1    0    0    0    0  0.00000000000E+00  0.00000000000E+00  0.45593999997E+02  0.45594000000E+02  0.51100000000E-03 0. -1.
         11   -1    0    0    0    0 -0.00000000000E+00 -0.00000000000E+00 -0.45593999997E+02  0.45594000000E+02  0.51100000000E-03 0.  1.
    9900012    2    1    2    0    0 -0.57934830519E+01  0.15865637636E+02 -0.80869433283E+01  0.72461506578E+02  0.69999916998E+02 0.  0.
         12    1    1    2    0    0  0.57934830519E+01 -0.15865637636E+02  0.80869433283E+01  0.18726493422E+02  0.00000000000E+00 0. -1.
         11    1    3    3    0    0  0.70481852090E+01 -0.17897960891E+02  0.79761200678E+01  0.20823842354E+02  0.51100000000E-03 0. -1.
        -11    1    3    3    0    0 -0.96412845071E+00  0.24980429850E+02 -0.24182220317E+02  0.34781190303E+02  0.51100000000E-03 0.  1.
        -12    1    3    3    0    0 -0.11877539810E+02  0.87831686772E+01  0.81191569211E+01  0.16856473921E+02  0.00000000000E+00 0.  1.
</event>
<event>
 7    1  0.1283194E-013  0.7246159E+02  0.7816164E-02  0.1226708E+00
        -11   -1    0    0    0    0  0.00000000000E+00  0.00000000000E+00  0.45593999997E+02  0.45594000000E+02  0.51100000000E-03 0.  1.
         11   -1    0    0    0    0 -0.00000000000E+00 -0.00000000000E+00 -0.45593999997E+02  0.45594000000E+02  0.51100000000E-03 0. -1.
    9900012    2    1    2    0    0  0.11340448994E+02 -0.14440402265E+02 -0.36806960050E+01  0.72461587529E+02  0.70000022451E+02 0.  0.
         12    1    1    2    0    0 -0.11340448994E+02  0.14440402265E+02  0.36806960050E+01  0.18726412471E+02  0.00000000000E+00 0. -1.
         11    1    3    3    0    0  0.34196344848E+02  0.64077985612E+01  0.55742989334E+01  0.35235247866E+02  0.51100000000E-03 0. -1.
        -11    1    3    3    0    0  0.29001081694E+00 -0.37039322247E+01  0.40518305992E+01  0.54973222268E+01  0.51100000000E-03 0.  1.
         12    1    3    3    0    0 -0.23145906671E+02 -0.17144268602E+02 -0.13306825538E+02  0.31729017435E+02  0.00000000000E+00 0. -1.
</event>
<event>
 7    1  0.1283194E-013  0.7246158E+02  0.7816164E-02  0.1226708E+00
        -11   -1    0    0    0    0  0.00000000000E+00  0.00000000000E+00  0.45593999997E+02  0.45594000000E+02  0.51100000000E-03 0.  1.
         11   -1    0    0    0    0 -0.00000000000E+00 -0.00000000000E+00 -0.45593999997E+02  0.45594000000E+02  0.51100000000E-03 0. -1.
    9900012    2    1    2    0    0 -0.81463973792E+01 -0.15547444166E+02 -0.65262531617E+01  0.72461580409E+02  0.70000013177E+02 0.  0.
         12    1    1    2    0    0  0.81463973792E+01  0.15547444166E+02  0.65262531617E+01  0.18726419591E+02  0.00000000000E+00 0. -1.
         11    1    3    3    0    0  0.23082569461E+01  0.17218755746E+02 -0.24559155055E+01  0.17545515689E+02  0.51100000000E-03 0. -1.
        -11    1    3    3    0    0 -0.22047222439E+02 -0.30254977723E+02 -0.13466108900E+02  0.39784164984E+02  0.51100000000E-03 0.  1.
        -12    1    3    3    0    0  0.11592568114E+02 -0.25112221894E+01  0.93957712437E+01  0.15131899736E+02  0.00000000000E+00 0.  1.
</event>
<event>
 7    1  0.1283194E-013  0.7246161E+02  0.7816164E-02  0.1226708E+00
        -11   -1    0    0    0    0  0.00000000000E+00  0.00000000000E+00  0.45593999997E+02  0.45594000000E+02  0.51100000000E-03 0.  1.
         11   -1    0    0    0    0 -0.00000000000E+00 -0.00000000000E+00 -0.45593999997E+02  0.45594000000E+02  0.51100000000E-03 0. -1.
    9900012    2    1    2    0    0 -0.28231290743E+01  0.13345603447E+02  0.12829744616E+02  0.72461613909E+02  0.70000056816E+02 0.  0.
         12    1    1    2    0    0  0.28231290743E+01 -0.13345603447E+02 -0.12829744616E+02  0.18726386091E+02  0.00000000000E+00 0. -1.
         11    1    3    3    0    0  0.11403240143E+02  0.28003617004E+02  0.12698782868E+02  0.32794748629E+02  0.51100000000E-03 0.  1.
        -11    1    3    3    0    0 -0.25227960329E+02 -0.91321700235E+01 -0.29047615483E+01  0.26986740292E+02  0.51100000000E-03 0. -1.
        -12    1    3    3    0    0  0.11001591112E+02 -0.55258435342E+01  0.30357232958E+01  0.12680124987E+02  0.00000000000E+00 0.  1.
</event>
<event>
 7    1  0.1283194E-013  0.7246159E+02  0.7816164E-02  0.1226708E+00
        -11   -1    0    0    0    0  0.00000000000E+00  0.00000000000E+00  0.45593999997E+02  0.45594000000E+02  0.51100000000E-03 0. -1.
         11   -1    0    0    0    0 -0.00000000000E+00 -0.00000000000E+00 -0.45593999997E+02  0.45594000000E+02  0.51100000000E-03 0.  1.
    9900012    2    1    2    0    0  0.86806697194E+00  0.70272332154E+01 -0.17336169523E+02  0.72461592959E+02  0.70000029526E+02 0.  0.
         12    1    1    2    0    0 -0.86806697194E+00 -0.70272332154E+01  0.17336169523E+02  0.18726407041E+02  0.00000000000E+00 0. -1.
         11    1    3    3    0    0 -0.19107508385E+02  0.21944883054E+02 -0.54122025819E+01  0.29596734718E+02  0.51100000000E-03 0. -1.
        -11    1    3    3    0    0  0.26378329814E+02 -0.90258525850E+01  0.27453435428E+00  0.27881134626E+02  0.51100000000E-03 0.  1.
        -12    1    3    3    0    0 -0.64027544579E+01 -0.58917972536E+01 -0.12198501295E+02  0.14983723615E+02  0.00000000000E+00 0.  1.
</event>
<event>
 7    1  0.1283194E-013  0.7246157E+02  0.7816164E-02  0.1226708E+00
        -11   -1    0    0    0    0  0.00000000000E+00  0.00000000000E+00  0.45593999997E+02  0.45594000000E+02  0.51100000000E-03 0.  1.
         11   -1    0    0    0    0 -0.00000000000E+00 -0.00000000000E+00 -0.45593999997E+02  0.45594000000E+02  0.51100000000E-03 0. -1.
    9900012    2    1    2    0    0 -0.10400738154E+02 -0.10095805249E+02  0.11856583782E+02  0.72461569033E+02  0.69999998357E+02 0.  0.
         12    1    1    2    0    0  0.10400738154E+02  0.10095805249E+02 -0.11856583782E+02  0.18726430967E+02  0.00000000000E+00 0. -1.
         11    1    3    3    0    0 -0.64203645627E+01  0.58356112880E+01  0.41338772082E+01  0.96106389619E+01  0.51100000000E-03 0. -1.
        -11    1    3    3    0    0  0.53720953631E+01 -0.37743747980E+02  0.86763490150E+01  0.39098963575E+02  0.51100000000E-03 0.  1.
        -12    1    3    3    0    0 -0.93524689538E+01  0.21812331443E+02 -0.95364244093E+00  0.23751966496E+02  0.00000000000E+00 0.  1.
</event>
<event>
 7    1  0.1283194E-013  0.7246161E+02  0.7816164E-02  0.1226708E+00
        -11   -1    0    0    0    0  0.00000000000E+00  0.00000000000E+00  0.45593999997E+02  0.45594000000E+02  0.51100000000E-03 0. -1.
         11   -1    0    0    0    0 -0.00000000000E+00 -0.00000000000E+00 -0.45593999997E+02  0.45594000000E+02  0.51100000000E-03 0.  1.
    9900012    2    1    2    0    0 -0.95453431519E+01  0.15084739429E+02 -0.56581643181E+01  0.72461607850E+02  0.70000048923E+02 0.  0.
         12    1    1    2    0    0  0.95453431519E+01 -0.15084739429E+02  0.56581643181E+01  0.18726392150E+02  0.00000000000E+00 0. -1.
         11    1    3    3    0    0 -0.22145944234E+01 -0.15260034409E+02 -0.11394542910E+02  0.19173124081E+02  0.51100000000E-03 0. -1.
        -11    1    3    3    0    0 -0.21307943699E+02  0.73853576733E+01  0.12204100497E+02  0.25641997618E+02  0.51100000000E-03 0.  1.
         12    1    3    3    0    0  0.13977194970E+02  0.22959416164E+02 -0.64677219045E+01  0.27646486151E+02  0.00000000000E+00 0. -1.
</event>
<event>
 7    1  0.1283194E-013  0.7246176E+02  0.7816164E-02  0.1226708E+00
        -11   -1    0    0    0    0  0.00000000000E+00  0.00000000000E+00  0.45593999997E+02  0.45594000000E+02  0.51100000000E-03 0. -1.
         11   -1    0    0    0    0 -0.00000000000E+00 -0.00000000000E+00 -0.45593999997E+02  0.45594000000E+02  0.51100000000E-03 0.  1.
    9900012    2    1    2    0    0 -0.69300528490E+01  0.58073243245E+01 -0.16398824270E+02  0.72461759434E+02  0.70000246388E+02 0.  0.
         12    1    1    2    0    0  0.69300528490E+01 -0.58073243245E+01  0.16398824270E+02  0.18726240566E+02  0.00000000000E+00 0. -1.
         11    1    3    3    0    0  0.58374193261E+00  0.34450597095E+01  0.91545134603E+01  0.97986890961E+01  0.51100000000E-03 0. -1.
        -11    1    3    3    0    0  0.11466688324E+02 -0.22100181086E+02 -0.47121965672E+01  0.25339844946E+02  0.51100000000E-03 0.  1.
        -12    1    3    3    0    0 -0.18980483106E+02  0.24462445701E+02 -0.20841141164E+02  0.37323225391E+02  0.00000000000E+00 0.  1.
</event>
<event>
 7    1  0.1283194E-013  0.7246157E+02  0.7816164E-02  0.1226708E+00
        -11   -1    0    0    0    0  0.00000000000E+00  0.00000000000E+00  0.45593999997E+02  0.45594000000E+02  0.51100000000E-03 0. -1.
         11   -1    0    0    0    0 -0.00000000000E+00 -0.00000000000E+00 -0.45593999997E+02  0.45594000000E+02  0.51100000000E-03 0.  1.
    9900012    2    1    2    0    0 -0.13714800805E+02  0.11281713905E+02  0.59419037672E+01  0.72461573482E+02  0.70000004153E+02 0.  0.
         12    1    1    2    0    0  0.13714800805E+02 -0.11281713905E+02 -0.59419037672E+01  0.18726426518E+02  0.00000000000E+00 0. -1.
         11    1    3    3    0    0 -0.28128455665E+02 -0.19460592424E+02  0.11297770286E+02  0.36021719688E+02  0.51100000000E-03 0. -1.
        -11    1    3    3    0    0 -0.29172330127E+00  0.83365228492E+01 -0.48198499827E+01  0.96339851472E+01  0.51100000000E-03 0.  1.
         12    1    3    3    0    0  0.14705378161E+02  0.22405783479E+02 -0.53601653562E+00  0.26805868647E+02  0.00000000000E+00 0. -1.
</event>
<event>
 7    1  0.1283194E-013  0.7246155E+02  0.7816164E-02  0.1226708E+00
        -11   -1    0    0    0    0  0.00000000000E+00  0.00000000000E+00  0.45593999997E+02  0.45594000000E+02  0.51100000000E-03 0. -1.
         11   -1    0    0    0    0 -0.00000000000E+00 -0.00000000000E+00 -0.45593999997E+02  0.45594000000E+02  0.51100000000E-03 0.  1.
    9900012    2    1    2    0    0  0.15485817644E+02 -0.53523693007E+01  0.90676011065E+01  0.72461553593E+02  0.69999978243E+02 0.  0.
         12    1    1    2    0    0 -0.15485817644E+02  0.53523693007E+01 -0.90676011065E+01  0.18726446407E+02  0.00000000000E+00 0. -1.
         11    1    3    3    0    0  0.30136320577E+02 -0.10363105146E+02 -0.40587028051E+00  0.31870934990E+02  0.51100000000E-03 0. -1.
        -11    1    3    3    0    0 -0.20994999771E+02  0.61633412822E+01 -0.69405847963E+01  0.22955359041E+02  0.51100000000E-03 0.  1.
        -12    1    3    3    0    0  0.63444968374E+01 -0.11526054367E+01  0.16414056183E+02  0.17635259562E+02  0.00000000000E+00 0.  1.
</event>
<event>
 7    1  0.1283194E-013  0.7246153E+02  0.7816164E-02  0.1226708E+00
        -11   -1    0    0    0    0  0.00000000000E+00  0.00000000000E+00  0.45593999997E+02  0.45594000000E+02  0.51100000000E-03 0.  1.
         11   -1    0    0    0    0 -0.00000000000E+00 -0.00000000000E+00 -0.45593999997E+02  0.45594000000E+02  0.51100000000E-03 0. -1.
    9900012    2    1    2    0    0  0.10600181817E+02 -0.21400731774E+01  0.15288456912E+02  0.72461529897E+02  0.69999947375E+02 0.  0.
         12    1    1    2    0    0 -0.10600181817E+02  0.21400731774E+01 -0.15288456912E+02  0.18726470103E+02  0.00000000000E+00 0. -1.
         11    1    3    3    0    0 -0.22948887301E+02  0.32848997473E+01 -0.10603581697E+02  0.25492703658E+02  0.51100000000E-03 0. -1.
        -11    1    3    3    0    0  0.43005455045E+01 -0.82756307667E+01  0.95278798768E+01  0.13332713581E+02  0.51100000000E-03 0.  1.
         12    1    3    3    0    0  0.29248523614E+02  0.28506578420E+01  0.16364158733E+02  0.33636112658E+02  0.00000000000E+00 0. -1.
</event>
<event>
 7    1  0.1283194E-013  0.7246165E+02  0.7816164E-02  0.1226708E+00
        -11   -1    0    0    0    0  0.00000000000E+00  0.00000000000E+00  0.45593999997E+02  0.45594000000E+02  0.51100000000E-03 0. -1.
         11   -1    0    0    0    0 -0.00000000000E+00 -0.00000000000E+00 -0.45593999997E+02  0.45594000000E+02  0.51100000000E-03 0.  1.
    9900012    2    1    2    0    0  0.12684375259E+02  0.46914239738E+01 -0.12952729517E+02  0.72461653946E+02  0.70000108972E+02 0.  0.
         12    1    1    2    0    0 -0.12684375259E+02 -0.46914239738E+01  0.12952729517E+02  0.18726346054E+02  0.00000000000E+00 0. -1.
         11    1    3    3    0    0  0.27382944220E+02 -0.74282988241E+01 -0.13146569512E+02  0.31270394109E+02  0.51100000000E-03 0. -1.
        -11    1    3    3    0    0 -0.86976722452E+01  0.21788547050E+02 -0.10382941652E+02  0.25655326204E+02  0.51100000000E-03 0.  1.
         12    1    3    3    0    0 -0.60008967159E+01 -0.96688242523E+01  0.10576781647E+02  0.15535933632E+02  0.00000000000E+00 0. -1.
</event>
<event>
 7    1  0.1283194E-013  0.7246161E+02  0.7816164E-02  0.1226708E+00
        -11   -1    0    0    0    0  0.00000000000E+00  0.00000000000E+00  0.45593999997E+02  0.45594000000E+02  0.51100000000E-03 0.  1.
         11   -1    0    0    0    0 -0.00000000000E+00 -0.00000000000E+00 -0.45593999997E+02  0.45594000000E+02  0.51100000000E-03 0. -1.
    9900012    2    1    2    0    0  0.18292787735E+01 -0.59048026387E+01  0.17676675556E+02  0.72461606494E+02  0.70000047157E+02 0.  0.
         12    1    1    2    0    0 -0.18292787735E+01  0.59048026387E+01 -0.17676675556E+02  0.18726393506E+02  0.00000000000E+00 0. -1.
         11    1    3    3    0    0  0.29984306721E+02  0.59956644796E+00 -0.89339992028E+01  0.31292722340E+02  0.51100000000E-03 0. -1.
        -11    1    3    3    0    0 -0.99854116304E+00  0.19758111091E+01  0.33312761678E-03  0.22138008865E+01  0.51100000000E-03 0.  1.
         12    1    3    3    0    0 -0.27156486784E+02 -0.84801801958E+01  0.26610341631E+02  0.38955083267E+02  0.00000000000E+00 0. -1.
</event>
<event>
 7    1  0.1283194E-013  0.7246157E+02  0.7816164E-02  0.1226708E+00
        -11   -1    0    0    0    0  0.00000000000E+00  0.00000000000E+00  0.45593999997E+02  0.45594000000E+02  0.51100000000E-03 0.  1.
         11   -1    0    0    0    0 -0.00000000000E+00 -0.00000000000E+00 -0.45593999997E+02  0.45594000000E+02  0.51100000000E-03 0. -1.
    9900012    2    1    2    0    0  0.48337160904E+01 -0.13116236506E+02 -0.12461084301E+02  0.72461572330E+02  0.70000002651E+02 0.  0.
         12    1    1    2    0    0 -0.48337160904E+01  0.13116236506E+02  0.12461084301E+02  0.18726427670E+02  0.00000000000E+00 0. -1.
         11    1    3    3    0    0  0.34948142245E-01 -0.20996720615E+02 -0.20757959684E+02  0.29525520969E+02  0.51100000000E-03 0. -1.
        -11    1    3    3    0    0  0.10752156888E+02 -0.28602237730E+01  0.21927918392E+02  0.24589090326E+02  0.51100000000E-03 0.  1.
         12    1    3    3    0    0 -0.59533889397E+01  0.10740707882E+02 -0.13631043010E+02  0.18346961035E+02  0.00000000000E+00 0. -1.
</event>
<event>
 7    1  0.1283194E-013  0.7246157E+02  0.7816164E-02  0.1226708E+00
        -11   -1    0    0    0    0  0.00000000000E+00  0.00000000000E+00  0.45593999997E+02  0.45594000000E+02  0.51100000000E-03 0.  1.
         11   -1    0    0    0    0 -0.00000000000E+00 -0.00000000000E+00 -0.45593999997E+02  0.45594000000E+02  0.51100000000E-03 0. -1.
    9900012    2    1    2    0    0 -0.60174070294E+01 -0.23162810559E+01  0.17581381353E+02  0.72461566395E+02  0.69999994920E+02 0.  0.
         12    1    1    2    0    0  0.60174070294E+01  0.23162810559E+01 -0.17581381353E+02  0.18726433605E+02  0.00000000000E+00 0. -1.
         11    1    3    3    0    0 -0.14468334767E+01 -0.28779744519E+01 -0.17062265778E+02  0.17363668328E+02  0.51100000000E-03 0. -1.
        -11    1    3    3    0    0 -0.21784354570E+02 -0.75955054259E+01  0.23943249620E+02  0.33249496377E+02  0.51100000000E-03 0.  1.
         12    1    3    3    0    0  0.17213781017E+02  0.81571988220E+01  0.10700397511E+02  0.21848401690E+02  0.00000000000E+00 0. -1.
</event>
<event>
 7    1  0.1283194E-013  0.7246156E+02  0.7816164E-02  0.1226708E+00
        -11   -1    0    0    0    0  0.00000000000E+00  0.00000000000E+00  0.45593999997E+02  0.45594000000E+02  0.51100000000E-03 0. -1.
         11   -1    0    0    0    0 -0.00000000000E+00 -0.00000000000E+00 -0.45593999997E+02  0.45594000000E+02  0.51100000000E-03 0.  1.
    9900012    2    1    2    0    0 -0.16695032692E+02 -0.48395634787E+01 -0.69666383530E+01  0.72461560370E+02  0.69999987072E+02 0.  0.
         12    1    1    2    0    0  0.16695032692E+02  0.48395634787E+01  0.69666383530E+01  0.18726439630E+02  0.00000000000E+00 0. -1.
         11    1    3    3    0    0  0.23103764696E+01  0.41058769827E+01  0.16175319599E+02  0.16847463596E+02  0.51100000000E-03 0. -1.
        -11    1    3    3    0    0 -0.26824817429E+02  0.11093171741E+02 -0.14271672097E+02  0.32346714115E+02  0.51100000000E-03 0.  1.
        -12    1    3    3    0    0  0.78194082671E+01 -0.20038612202E+02 -0.88702858551E+01  0.23267382659E+02  0.00000000000E+00 0.  1.
</event>
<event>
 7    1  0.1283194E-013  0.7246140E+02  0.7816164E-02  0.1226708E+00
        -11   -1    0    0    0    0  0.00000000000E+00  0.00000000000E+00  0.45593999997E+02  0.45594000000E+02  0.51100000000E-03 0.  1.
         11   -1    0    0    0    0 -0.00000000000E+00 -0.00000000000E+00 -0.45593999997E+02  0.45594000000E+02  0.51100000000E-03 0. -1.
    9900012    2    1    2    0    0  0.39788304034E+01 -0.64685084113E+01  0.17117622774E+02  0.72461395880E+02  0.69999772792E+02 0.  0.
         12    1    1    2    0    0 -0.39788304034E+01  0.64685084113E+01 -0.17117622774E+02  0.18726604120E+02  0.00000000000E+00 0. -1.
         11    1    3    3    0    0  0.98972204891E+01  0.12925905269E+02  0.24009041652E+02  0.29008069252E+02  0.51100000000E-03 0. -1.
        -11    1    3    3    0    0 -0.14023338422E+02 -0.16610288843E+02  0.10442691172E+02  0.24116498816E+02  0.51100000000E-03 0.  1.
         12    1    3    3    0    0  0.81049483362E+01 -0.27841248372E+01 -0.17334110049E+02  0.19336827812E+02  0.00000000000E+00 0. -1.
</event>
<event>
 7    1  0.1283194E-013  0.7246160E+02  0.7816164E-02  0.1226708E+00
        -11   -1    0    0    0    0  0.00000000000E+00  0.00000000000E+00  0.45593999997E+02  0.45594000000E+02  0.51100000000E-03 0. -1.
         11   -1    0    0    0    0 -0.00000000000E+00 -0.00000000000E+00 -0.45593999997E+02  0.45594000000E+02  0.51100000000E-03 0.  1.
    9900012    2    1    2    0    0 -0.13620646934E+02 -0.12594565300E+02 -0.25559931698E+01  0.72461596205E+02  0.70000033754E+02 0.  0.
         12    1    1    2    0    0  0.13620646934E+02  0.12594565300E+02  0.25559931698E+01  0.18726403795E+02  0.00000000000E+00 0. -1.
         11    1    3    3    0    0 -0.44692117856E+01  0.33720214946E+01  0.18939341489E+02  0.19749507317E+02  0.51100000000E-03 0. -1.
        -11    1    3    3    0    0  0.71022956728E+01 -0.26749664534E+02 -0.74056882076E+01  0.28650154879E+02  0.51100000000E-03 0.  1.
        -12    1    3    3    0    0 -0.16253730822E+02  0.10783077740E+02 -0.14089646451E+02  0.24061934010E+02  0.00000000000E+00 0.  1.
</event>
<event>
 7    1  0.1283194E-013  0.7246154E+02  0.7816164E-02  0.1226708E+00
        -11   -1    0    0    0    0  0.00000000000E+00  0.00000000000E+00  0.45593999997E+02  0.45594000000E+02  0.51100000000E-03 0.  1.
         11   -1    0    0    0    0 -0.00000000000E+00 -0.00000000000E+00 -0.45593999997E+02  0.45594000000E+02  0.51100000000E-03 0. -1.
    9900012    2    1    2    0    0 -0.60381772350E+01 -0.17629707006E+02 -0.18477029184E+01  0.72461543862E+02  0.69999965567E+02 0.  0.
         12    1    1    2    0    0  0.60381772350E+01  0.17629707006E+02  0.18477029184E+01  0.18726456138E+02  0.00000000000E+00 0. -1.
         11    1    3    3    0    0  0.35815335874E+01 -0.11130227476E+01 -0.60850980607E+00  0.37995377244E+01  0.51100000000E-03 0. -1.
        -11    1    3    3    0    0 -0.63471357668E+01 -0.53116281603E+01 -0.33419936476E+02  0.34429517576E+02  0.51100000000E-03 0.  1.
        -12    1    3    3    0    0 -0.32725750556E+01 -0.11205056098E+02  0.32180743364E+02  0.34232488561E+02  0.00000000000E+00 0.  1.
</event>
<event>
 7    1  0.1283194E-013  0.7246156E+02  0.7816164E-02  0.1226708E+00
        -11   -1    0    0    0    0  0.00000000000E+00  0.00000000000E+00  0.45593999997E+02  0.45594000000E+02  0.51100000000E-03 0. -1.
         11   -1    0    0    0    0 -0.00000000000E+00 -0.00000000000E+00 -0.45593999997E+02  0.45594000000E+02  0.51100000000E-03 0.  1.
    9900012    2    1    2    0    0 -0.16527131248E+02 -0.63908052393E+01  0.60573051023E+01  0.72461564034E+02  0.69999991844E+02 0.  0.
         12    1    1    2    0    0  0.16527131248E+02  0.63908052393E+01 -0.60573051023E+01  0.18726435966E+02  0.00000000000E+00 0. -1.
         11    1    3    3    0    0 -0.47235650021E+01  0.19117677702E+02  0.12097763826E+02  0.23111762306E+02  0.51100000000E-03 0. -1.
        -11    1    3    3    0    0  0.13568779896E+02 -0.11825367447E+02 -0.94387285645E+01  0.20323402773E+02  0.51100000000E-03 0.  1.
         12    1    3    3    0    0 -0.25372346142E+02 -0.13683115494E+02  0.33982698405E+01  0.29026398954E+02  0.00000000000E+00 0. -1.
</event>
<event>
 7    1  0.1283194E-013  0.7246149E+02  0.7816164E-02  0.1226708E+00
        -11   -1    0    0    0    0  0.00000000000E+00  0.00000000000E+00  0.45593999997E+02  0.45594000000E+02  0.51100000000E-03 0.  1.
         11   -1    0    0    0    0 -0.00000000000E+00 -0.00000000000E+00 -0.45593999997E+02  0.45594000000E+02  0.51100000000E-03 0. -1.
    9900012    2    1    2    0    0  0.18751308546E+01  0.15805734355E+02  0.98663465416E+01  0.72461490761E+02  0.69999896392E+02 0.  0.
         12    1    1    2    0    0 -0.18751308546E+01 -0.15805734355E+02 -0.98663465416E+01  0.18726509239E+02  0.00000000000E+00 0. -1.
         11    1    3    3    0    0 -0.25623381108E+01  0.26213550824E+02 -0.18784464837E+01  0.26405385528E+02  0.51100000000E-03 0. -1.
        -11    1    3    3    0    0  0.20007664409E+02  0.69668397234E+01  0.62259343939E+01  0.22081796806E+02  0.51100000000E-03 0.  1.
         12    1    3    3    0    0 -0.15570195444E+02 -0.17374656193E+02  0.55188586314E+01  0.23974308427E+02  0.00000000000E+00 0. -1.
</event>
<event>
 7    1  0.1283194E-013  0.7246160E+02  0.7816164E-02  0.1226708E+00
        -11   -1    0    0    0    0  0.00000000000E+00  0.00000000000E+00  0.45593999997E+02  0.45594000000E+02  0.51100000000E-03 0.  1.
         11   -1    0    0    0    0 -0.00000000000E+00 -0.00000000000E+00 -0.45593999997E+02  0.45594000000E+02  0.51100000000E-03 0. -1.
    9900012    2    1    2    0    0 -0.10954292708E+02 -0.15025998570E+02  0.22137583391E+01  0.72461604518E+02  0.70000044583E+02 0.  0.
         12    1    1    2    0    0  0.10954292708E+02  0.15025998570E+02 -0.22137583391E+01  0.18726395482E+02  0.00000000000E+00 0. -1.
         11    1    3    3    0    0  0.90801205920E+01 -0.10747696001E+02 -0.30615446233E+02  0.33693725048E+02  0.51100000000E-03 0. -1.
        -11    1    3    3    0    0 -0.97539724231E+01 -0.21776738881E+01  0.13821020667E+02  0.17055874476E+02  0.51100000000E-03 0.  1.
         12    1    3    3    0    0 -0.10280440877E+02 -0.21006286809E+01  0.19008183906E+02  0.21712004994E+02  0.00000000000E+00 0. -1.
</event>
<event>
 7    1  0.1704794E-013  0.7246155E+02  0.7816164E-02  0.1226708E+00
        -11   -1    0    0    0    0  0.00000000000E+00  0.00000000000E+00  0.45593999997E+02  0.45594000000E+02  0.51100000000E-03 0. -1.
         11   -1    0    0    0    0 -0.00000000000E+00 -0.00000000000E+00 -0.45593999997E+02  0.45594000000E+02  0.51100000000E-03 0.  1.
    9900012    2    1    2    0    0  0.14424706084E+02  0.54483428896E+01 -0.10626542876E+02  0.72461548138E+02  0.69999971137E+02 0.  0.
         12    1    1    2    0    0 -0.14424706084E+02 -0.54483428896E+01  0.10626542876E+02  0.18726451862E+02  0.00000000000E+00 0. -1.
         11    1    3    3    0    0  0.10119342713E+01  0.48367938832E+01  0.18023200798E+02  0.18688348062E+02  0.51100000000E-03 0. -1.
        -11    1    3    3    0    0  0.19660866242E+02  0.16354492017E+02 -0.26281996646E+02  0.36671002421E+02  0.51100000000E-03 0.  1.
        -12    1    3    3    0    0 -0.62480944302E+01 -0.15742943011E+02 -0.23677470277E+01  0.17102197655E+02  0.00000000000E+00 0.  1.
</event>
<event>
 7    1  0.1283194E-013  0.7246157E+02  0.7816164E-02  0.1226708E+00
        -11   -1    0    0    0    0  0.00000000000E+00  0.00000000000E+00  0.45593999997E+02  0.45594000000E+02  0.51100000000E-03 0.  1.
         11   -1    0    0    0    0 -0.00000000000E+00 -0.00000000000E+00 -0.45593999997E+02  0.45594000000E+02  0.51100000000E-03 0. -1.
    9900012    2    1    2    0    0  0.28140584192E+01  0.28714718388E+01  0.18289752911E+02  0.72461565826E+02  0.69999994179E+02 0.  0.
         12    1    1    2    0    0 -0.28140584192E+01 -0.28714718388E+01 -0.18289752911E+02  0.18726434174E+02  0.00000000000E+00 0. -1.
         11    1    3    3    0    0  0.20445326814E+02  0.28834224112E+01  0.70788014776E+01  0.21827389765E+02  0.51100000000E-03 0. -1.
        -11    1    3    3    0    0 -0.11500752118E+02 -0.18232730644E+02 -0.84337145465E+01  0.23147943912E+02  0.51100000000E-03 0.  1.
        -12    1    3    3    0    0 -0.61305162770E+01  0.18220780072E+02  0.19644665980E+02  0.27486232149E+02  0.00000000000E+00 0.  1.
</event>
<event>
 7    1  0.1283194E-013  0.7246153E+02  0.7816164E-02  0.1226708E+00
        -11   -1    0    0    0    0  0.00000000000E+00  0.00000000000E+00  0.45593999997E+02  0.45594000000E+02  0.51100000000E-03 0. -1.
         11   -1    0    0    0    0 -0.00000000000E+00 -0.00000000000E+00 -0.45593999997E+02  0.45594000000E+02  0.51100000000E-03 0.  1.
    9900012    2    1    2    0    0 -0.12022318084E+02 -0.66417650112E+01 -0.12729156786E+02  0.72461531911E+02  0.69999949999E+02 0.  0.
         12    1    1    2    0    0  0.12022318084E+02  0.66417650112E+01  0.12729156786E+02  0.18726468089E+02  0.00000000000E+00 0. -1.
         11    1    3    3    0    0  0.84596411866E+01 -0.15330432775E+02  0.91696867934E+01  0.19765395372E+02  0.51100000000E-03 0. -1.
        -11    1    3    3    0    0  0.40432236651E+01  0.13276173524E+02 -0.23929904755E+02  0.27663058090E+02  0.51100000000E-03 0.  1.
        -12    1    3    3    0    0 -0.24525182936E+02 -0.45875057605E+01  0.20310611751E+01  0.25033078449E+02  0.00000000000E+00 0.  1.
</event>
<event>
 7    1  0.1283194E-013  0.7246159E+02  0.7816164E-02  0.1226708E+00
        -11   -1    0    0    0    0  0.00000000000E+00  0.00000000000E+00  0.45593999997E+02  0.45594000000E+02  0.51100000000E-03 0.  1.
         11   -1    0    0    0    0 -0.00000000000E+00 -0.00000000000E+00 -0.45593999997E+02  0.45594000000E+02  0.51100000000E-03 0. -1.
    9900012    2    1    2    0    0  0.11050351388E+02 -0.13201246946E+02  0.73685302223E+01  0.72461590191E+02  0.70000025919E+02 0.  0.
         12    1    1    2    0    0 -0.11050351388E+02  0.13201246946E+02 -0.73685302223E+01  0.18726409809E+02  0.00000000000E+00 0. -1.
         11    1    3    3    0    0  0.26703922052E+02 -0.13624772967E+02 -0.93803008746E+01  0.31412162232E+02  0.51100000000E-03 0. -1.
        -11    1    3    3    0    0 -0.20870952834E+02 -0.65889863267E+00 -0.25426476318E+01  0.21035585964E+02  0.51100000000E-03 0.  1.
         12    1    3    3    0    0  0.52173821697E+01  0.10824246533E+01  0.19291478729E+02  0.20013841994E+02  0.00000000000E+00 0. -1.
</event>
<event>
 7    1  0.1283194E-013  0.7246155E+02  0.7816164E-02  0.1226708E+00
        -11   -1    0    0    0    0  0.00000000000E+00  0.00000000000E+00  0.45593999997E+02  0.45594000000E+02  0.51100000000E-03 0. -1.
         11   -1    0    0    0    0 -0.00000000000E+00 -0.00000000000E+00 -0.45593999997E+02  0.45594000000E+02  0.51100000000E-03 0.  1.
    9900012    2    1    2    0    0 -0.12447340438E+02  0.10743476625E+01  0.13949524609E+02  0.72461554964E+02  0.69999980030E+02 0.  0.
         12    1    1    2    0    0  0.12447340438E+02 -0.10743476625E+01 -0.13949524609E+02  0.18726445036E+02  0.00000000000E+00 0. -1.
         11    1    3    3    0    0  0.17454750802E+01 -0.82958624611E+01  0.16962829836E+02  0.18963270117E+02  0.51100000000E-03 0. -1.
        -11    1    3    3    0    0  0.19111521192E+01  0.54174249818E+01 -0.25173650709E+02  0.25820799486E+02  0.51100000000E-03 0.  1.
        -12    1    3    3    0    0 -0.16103967637E+02  0.39527851417E+01  0.22160345482E+02  0.27677485361E+02  0.00000000000E+00 0.  1.
</event>
<event>
 7    1  0.1283194E-013  0.7246156E+02  0.7816164E-02  0.1226708E+00
        -11   -1    0    0    0    0  0.00000000000E+00  0.00000000000E+00  0.45593999997E+02  0.45594000000E+02  0.51100000000E-03 0. -1.
         11   -1    0    0    0    0 -0.00000000000E+00 -0.00000000000E+00 -0.45593999997E+02  0.45594000000E+02  0.51100000000E-03 0.  1.
    9900012    2    1    2    0    0 -0.11745439478E+02  0.13455564631E+02 -0.56277769127E+01  0.72461563044E+02  0.69999990556E+02 0.  0.
         12    1    1    2    0    0  0.11745439478E+02 -0.13455564631E+02  0.56277769127E+01  0.18726436956E+02  0.00000000000E+00 0. -1.
         11    1    3    3    0    0 -0.25656380152E+02 -0.10431413700E+02  0.81834294788E+01  0.28879625216E+02  0.51100000000E-03 0. -1.
        -11    1    3    3    0    0 -0.21520806833E+01  0.92647807822E+01 -0.19001237625E+02  0.21248873988E+02  0.51100000000E-03 0.  1.
         12    1    3    3    0    0  0.16063021357E+02  0.14622197549E+02  0.51900312338E+01  0.22333063840E+02  0.00000000000E+00 0. -1.
</event>
<event>
 7    1  0.1283194E-013  0.7246154E+02  0.7816164E-02  0.1226708E+00
        -11   -1    0    0    0    0  0.00000000000E+00  0.00000000000E+00  0.45593999997E+02  0.45594000000E+02  0.51100000000E-03 0.  1.
         11   -1    0    0    0    0 -0.00000000000E+00 -0.00000000000E+00 -0.45593999997E+02  0.45594000000E+02  0.51100000000E-03 0. -1.
    9900012    2    1    2    0    0 -0.60264710113E+01 -0.14521736978E+02  0.10172572473E+02  0.72461536681E+02  0.69999956213E+02 0.  0.
         12    1    1    2    0    0  0.60264710113E+01  0.14521736978E+02 -0.10172572473E+02  0.18726463319E+02  0.00000000000E+00 0. -1.
         11    1    3    3    0    0 -0.20908381568E+02 -0.13572680940E+02 -0.38839355699E+01  0.25228219189E+02  0.51100000000E-03 0. -1.
        -11    1    3    3    0    0  0.67036577738E+01  0.88889786052E+01  0.26895305908E+02  0.29108597498E+02  0.51100000000E-03 0.  1.
         12    1    3    3    0    0  0.81782527831E+01 -0.98380346432E+01 -0.12838797865E+02  0.18124719993E+02  0.00000000000E+00 0. -1.
</event>
<event>
 7    1  0.1283194E-013  0.7246161E+02  0.7816164E-02  0.1226708E+00
        -11   -1    0    0    0    0  0.00000000000E+00  0.00000000000E+00  0.45593999997E+02  0.45594000000E+02  0.51100000000E-03 0. -1.
         11   -1    0    0    0    0 -0.00000000000E+00 -0.00000000000E+00 -0.45593999997E+02  0.45594000000E+02  0.51100000000E-03 0.  1.
    9900012    2    1    2    0    0  0.85895068433E+01 -0.44878057031E+01 -0.16023662378E+02  0.72461607292E+02  0.70000048196E+02 0.  0.
         12    1    1    2    0    0 -0.85895068433E+01  0.44878057031E+01  0.16023662378E+02  0.18726392708E+02  0.00000000000E+00 0. -1.
         11    1    3    3    0    0 -0.13671698451E+02 -0.71535002589E+01  0.17542656478E+02  0.23363062750E+02  0.51100000000E-03 0. -1.
        -11    1    3    3    0    0  0.79978448559E+01  0.96738923992E+01 -0.30406513674E+02  0.32895376431E+02  0.51100000000E-03 0.  1.
         12    1    3    3    0    0  0.14263360439E+02 -0.70081978433E+01 -0.31598051826E+01  0.16203168110E+02  0.00000000000E+00 0. -1.
</event>
<event>
 7    1  0.1283194E-013  0.7246173E+02  0.7816164E-02  0.1226708E+00
        -11   -1    0    0    0    0  0.00000000000E+00  0.00000000000E+00  0.45593999997E+02  0.45594000000E+02  0.51100000000E-03 0. -1.
         11   -1    0    0    0    0 -0.00000000000E+00 -0.00000000000E+00 -0.45593999997E+02  0.45594000000E+02  0.51100000000E-03 0.  1.
    9900012    2    1    2    0    0 -0.96088275140E+01  0.54724953675E+01 -0.15112754614E+02  0.72461731718E+02  0.70000210284E+02 0.  0.
         12    1    1    2    0    0  0.96088275140E+01 -0.54724953675E+01  0.15112754614E+02  0.18726268282E+02  0.00000000000E+00 0. -1.
         11    1    3    3    0    0  0.21063854885E+02  0.12290424945E+02 -0.11032365876E+02  0.26766651360E+02  0.51100000000E-03 0. -1.
        -11    1    3    3    0    0 -0.24570985620E+02 -0.10545315924E+02 -0.16460302857E+02  0.31398703678E+02  0.51100000000E-03 0.  1.
         12    1    3    3    0    0 -0.61016967796E+01  0.37273863470E+01  0.12379914119E+02  0.14296376680E+02  0.00000000000E+00 0. -1.
</event>
<event>
 7    1  0.1283194E-013  0.7246126E+02  0.7816164E-02  0.1226709E+00
        -11   -1    0    0    0    0  0.00000000000E+00  0.00000000000E+00  0.45593999997E+02  0.45594000000E+02  0.51100000000E-03 0. -1.
         11   -1    0    0    0    0 -0.00000000000E+00 -0.00000000000E+00 -0.45593999997E+02  0.45594000000E+02  0.51100000000E-03 0.  1.
    9900012    2    1    2    0    0 -0.10644526145E+02 -0.14445583626E+02 -0.53581752717E+01  0.72461258015E+02  0.69999593197E+02 0.  0.
         12    1    1    2    0    0  0.10644526145E+02  0.14445583626E+02  0.53581752717E+01  0.18726741985E+02  0.00000000000E+00 0. -1.
         11    1    3    3    0    0 -0.78450711087E+01  0.12190471925E+02 -0.14745929393E+01  0.14571450548E+02  0.51100000000E-03 0. -1.
        -11    1    3    3    0    0 -0.25393720495E+02 -0.12794957390E+02  0.69366931157E+01  0.29268920152E+02  0.51100000000E-03 0.  1.
        -12    1    3    3    0    0  0.22594265459E+02 -0.13841098161E+02 -0.10820275448E+02  0.28620887315E+02  0.00000000000E+00 0.  1.
</event>
<event>
 7    1  0.1283194E-013  0.7246141E+02  0.7816164E-02  0.1226708E+00
        -11   -1    0    0    0    0  0.00000000000E+00  0.00000000000E+00  0.45593999997E+02  0.45594000000E+02  0.51100000000E-03 0. -1.
         11   -1    0    0    0    0 -0.00000000000E+00 -0.00000000000E+00 -0.45593999997E+02  0.45594000000E+02  0.51100000000E-03 0.  1.
    9900012    2    1    2    0    0  0.25540702523E+01  0.16492842157E+02 -0.84939965292E+01  0.72461412102E+02  0.69999793925E+02 0.  0.
         12    1    1    2    0    0 -0.25540702523E+01 -0.16492842157E+02  0.84939965292E+01  0.18726587898E+02  0.00000000000E+00 0. -1.
         11    1    3    3    0    0 -0.33901771299E+01  0.25075135370E+02 -0.13081798974E+02  0.28484893882E+02  0.51100000000E-03 0. -1.
        -11    1    3    3    0    0 -0.79569845263E+01 -0.20061858927E+02 -0.68293734923E+01  0.22636963775E+02  0.51100000000E-03 0.  1.
         12    1    3    3    0    0  0.13901231908E+02  0.11479565714E+02  0.11417175937E+02  0.21339554446E+02  0.00000000000E+00 0. -1.
</event>
<event>
 7    1  0.1283194E-013  0.7246184E+02  0.7816164E-02  0.1226707E+00
        -11   -1    0    0    0    0  0.00000000000E+00  0.00000000000E+00  0.45593999997E+02  0.45594000000E+02  0.51100000000E-03 0.  1.
         11   -1    0    0    0    0 -0.00000000000E+00 -0.00000000000E+00 -0.45593999997E+02  0.45594000000E+02  0.51100000000E-03 0. -1.
    9900012    2    1    2    0    0  0.96560097516E+01 -0.77907425889E+01  0.14026226829E+02  0.72461835591E+02  0.70000345597E+02 0.  0.
         12    1    1    2    0    0 -0.96560097516E+01  0.77907425889E+01 -0.14026226829E+02  0.18726164409E+02  0.00000000000E+00 0. -1.
         11    1    3    3    0    0 -0.66694671664E+01  0.29327182822E+01 -0.29696732180E+01  0.78677562296E+01  0.51100000000E-03 0. -1.
        -11    1    3    3    0    0  0.91854560133E+01 -0.56803964979E+01  0.39237321736E+02  0.40696522257E+02  0.51100000000E-03 0.  1.
        -12    1    3    3    0    0  0.71400209048E+01 -0.50430643733E+01 -0.22241421689E+02  0.23897557104E+02  0.00000000000E+00 0.  1.
</event>
<event>
 7    1  0.1283194E-013  0.7246153E+02  0.7816164E-02  0.1226708E+00
        -11   -1    0    0    0    0  0.00000000000E+00  0.00000000000E+00  0.45593999997E+02  0.45594000000E+02  0.51100000000E-03 0. -1.
         11   -1    0    0    0    0 -0.00000000000E+00 -0.00000000000E+00 -0.45593999997E+02  0.45594000000E+02  0.51100000000E-03 0.  1.
    9900012    2    1    2    0    0  0.12371369394E+02 -0.87720456955E+01 -0.10985503283E+02  0.72461525459E+02  0.69999941593E+02 0.  0.
         12    1    1    2    0    0 -0.12371369394E+02  0.87720456955E+01  0.10985503283E+02  0.18726474541E+02  0.00000000000E+00 0. -1.
         11    1    3    3    0    0  0.10691413470E+02 -0.32948332631E+02  0.79911227631E+01  0.35549359888E+02  0.51100000000E-03 0.  1.
        -11    1    3    3    0    0  0.59686820870E+01  0.81447338720E+01  0.18671976532E+01  0.10268801441E+02  0.51100000000E-03 0. -1.
         12    1    3    3    0    0 -0.42887261629E+01  0.16031553064E+02 -0.20843823699E+02  0.26643364129E+02  0.00000000000E+00 0. -1.
</event>
<event>
 7    1  0.1283194E-013  0.7246158E+02  0.7816164E-02  0.1226708E+00
        -11   -1    0    0    0    0  0.00000000000E+00  0.00000000000E+00  0.45593999997E+02  0.45594000000E+02  0.51100000000E-03 0. -1.
         11   -1    0    0    0    0 -0.00000000000E+00 -0.00000000000E+00 -0.45593999997E+02  0.45594000000E+02  0.51100000000E-03 0.  1.
    9900012    2    1    2    0    0  0.14111085508E+02  0.48122811986E+01 -0.11331278871E+02  0.72461583754E+02  0.70000017534E+02 0.  0.
         12    1    1    2    0    0 -0.14111085508E+02 -0.48122811986E+01  0.11331278871E+02  0.18726416246E+02  0.00000000000E+00 0. -1.
         11    1    3    3    0    0  0.21393206782E+02  0.70376899432E+01  0.18573623815E+02  0.29192085880E+02  0.51100000000E-03 0. -1.
        -11    1    3    3    0    0  0.89027872402E+01 -0.96821128117E+01 -0.97909797203E+01  0.16397140400E+02  0.51100000000E-03 0.  1.
         12    1    3    3    0    0 -0.16184908514E+02  0.74567040671E+01 -0.20113922966E+02  0.26872357474E+02  0.00000000000E+00 0. -1.
</event>
<event>
 7    1  0.1283194E-013  0.7246145E+02  0.7816164E-02  0.1226708E+00
        -11   -1    0    0    0    0  0.00000000000E+00  0.00000000000E+00  0.45593999997E+02  0.45594000000E+02  0.51100000000E-03 0.  1.
         11   -1    0    0    0    0 -0.00000000000E+00 -0.00000000000E+00 -0.45593999997E+02  0.45594000000E+02  0.51100000000E-03 0. -1.
    9900012    2    1    2    0    0 -0.13492865922E+02  0.76633694652E+01  0.10483275067E+02  0.72461448836E+02  0.69999841778E+02 0.  0.
         12    1    1    2    0    0  0.13492865922E+02 -0.76633694652E+01 -0.10483275067E+02  0.18726551164E+02  0.00000000000E+00 0. -1.
         11    1    3    3    0    0  0.60565526330E+01  0.16204184359E+02  0.18729963294E+01  0.17400159081E+02  0.51100000000E-03 0. -1.
        -11    1    3    3    0    0 -0.31451022111E+02 -0.21884215821E+00 -0.85377661140E+01  0.32590000525E+02  0.51100000000E-03 0.  1.
        -12    1    3    3    0    0  0.11901603556E+02 -0.83219727360E+01  0.17148044851E+02  0.22471289230E+02  0.00000000000E+00 0.  1.
</event>
<event>
 7    1  0.1283194E-013  0.7246160E+02  0.7816164E-02  0.1226708E+00
        -11   -1    0    0    0    0  0.00000000000E+00  0.00000000000E+00  0.45593999997E+02  0.45594000000E+02  0.51100000000E-03 0. -1.
         11   -1    0    0    0    0 -0.00000000000E+00 -0.00000000000E+00 -0.45593999997E+02  0.45594000000E+02  0.51100000000E-03 0.  1.
    9900012    2    1    2    0    0  0.22396107366E+01 -0.11375788107E+02 -0.14705569435E+02  0.72461596616E+02  0.70000034289E+02 0.  0.
         12    1    1    2    0    0 -0.22396107366E+01  0.11375788107E+02  0.14705569435E+02  0.18726403384E+02  0.00000000000E+00 0. -1.
         11    1    3    3    0    0  0.11914774938E+02  0.17678078597E+02 -0.15029818594E+02  0.26083937049E+02  0.51100000000E-03 0. -1.
        -11    1    3    3    0    0  0.42648926364E+01 -0.21516848909E+02 -0.13151211686E+02  0.25575739779E+02  0.51100000000E-03 0.  1.
         12    1    3    3    0    0 -0.13940056838E+02 -0.75370177945E+01  0.13475460846E+02  0.20801919788E+02  0.00000000000E+00 0. -1.
</event>
<event>
 7    1  0.1283194E-013  0.7246156E+02  0.7816164E-02  0.1226708E+00
        -11   -1    0    0    0    0  0.00000000000E+00  0.00000000000E+00  0.45593999997E+02  0.45594000000E+02  0.51100000000E-03 0.  1.
         11   -1    0    0    0    0 -0.00000000000E+00 -0.00000000000E+00 -0.45593999997E+02  0.45594000000E+02  0.51100000000E-03 0. -1.
    9900012    2    1    2    0    0 -0.74295562204E+01 -0.16739614604E+02  0.39072249367E+01  0.72461563889E+02  0.69999991656E+02 0.  0.
         12    1    1    2    0    0  0.74295562204E+01  0.16739614604E+02 -0.39072249367E+01  0.18726436111E+02  0.00000000000E+00 0. -1.
         11    1    3    3    0    0 -0.73076915178E+01  0.62593432327E+01 -0.23483694547E+02  0.25378448394E+02  0.51100000000E-03 0. -1.
        -11    1    3    3    0    0 -0.13576496270E+01 -0.30566649479E+02  0.21130919838E+02  0.37184392510E+02  0.51100000000E-03 0.  1.
         12    1    3    3    0    0  0.12357849244E+01  0.75676916422E+01  0.62599996457E+01  0.98987229851E+01  0.00000000000E+00 0. -1.
</event>
<event>
 7    1  0.1283194E-013  0.7246143E+02  0.7816164E-02  0.1226708E+00
        -11   -1    0    0    0    0  0.00000000000E+00  0.00000000000E+00  0.45593999997E+02  0.45594000000E+02  0.51100000000E-03 0.  1.
         11   -1    0    0    0    0 -0.00000000000E+00 -0.00000000000E+00 -0.45593999997E+02  0.45594000000E+02  0.51100000000E-03 0. -1.
    9900012    2    1    2    0    0  0.66489247449E+01 -0.12563448301E+02  0.12191640841E+02  0.72461426905E+02  0.69999813209E+02 0.  0.
         12    1    1    2    0    0 -0.66489247449E+01  0.12563448301E+02 -0.12191640841E+02  0.18726573095E+02  0.00000000000E+00 0. -1.
         11    1    3    3    0    0 -0.38232691711E+01 -0.32769322191E+02  0.14776323129E+02  0.36149489478E+02  0.51100000000E-03 0. -1.
        -11    1    3    3    0    0  0.13935500015E+02  0.55005619860E+01 -0.11395132905E+02  0.18822948680E+02  0.51100000000E-03 0.  1.
         12    1    3    3    0    0 -0.34633060993E+01  0.14705311904E+02  0.88104506169E+01  0.17488988747E+02  0.00000000000E+00 0. -1.
</event>
<event>
 7    1  0.1283194E-013  0.7246160E+02  0.7816164E-02  0.1226708E+00
        -11   -1    0    0    0    0  0.00000000000E+00  0.00000000000E+00  0.45593999997E+02  0.45594000000E+02  0.51100000000E-03 0. -1.
         11   -1    0    0    0    0 -0.00000000000E+00 -0.00000000000E+00 -0.45593999997E+02  0.45594000000E+02  0.51100000000E-03 0.  1.
    9900012    2    1    2    0    0  0.11455257047E+02 -0.12480369060E+02  0.79809525586E+01  0.72461598059E+02  0.70000036169E+02 0.  0.
         12    1    1    2    0    0 -0.11455257047E+02  0.12480369060E+02 -0.79809525586E+01  0.18726401941E+02  0.00000000000E+00 0. -1.
         11    1    3    3    0    0 -0.70002985668E+01 -0.12424893171E+01  0.14636623856E+02  0.16272022550E+02  0.51100000000E-03 0. -1.
        -11    1    3    3    0    0  0.97034831560E+01  0.16154766578E+02 -0.17245444249E+02  0.25544851069E+02  0.51100000000E-03 0.  1.
        -12    1    3    3    0    0  0.87520724580E+01 -0.27392646321E+02  0.10589772952E+02  0.30644724440E+02  0.00000000000E+00 0.  1.
</event>
<event>
 7    1  0.1283194E-013  0.7246142E+02  0.7816164E-02  0.1226708E+00
        -11   -1    0    0    0    0  0.00000000000E+00  0.00000000000E+00  0.45593999997E+02  0.45594000000E+02  0.51100000000E-03 0. -1.
         11   -1    0    0    0    0 -0.00000000000E+00 -0.00000000000E+00 -0.45593999997E+02  0.45594000000E+02  0.51100000000E-03 0.  1.
    9900012    2    1    2    0    0 -0.85859141252E+01  0.62640533658E+01 -0.15418448128E+02  0.72461419196E+02  0.69999803166E+02 0.  0.
         12    1    1    2    0    0  0.85859141252E+01 -0.62640533658E+01  0.15418448128E+02  0.18726580804E+02  0.00000000000E+00 0. -1.
         11    1    3    3    0    0 -0.21515989293E+02 -0.14191064545E+02  0.13361431472E+02  0.29031912775E+02  0.51100000000E-03 0. -1.
        -11    1    3    3    0    0  0.10739478599E+02  0.23902451526E+02 -0.17703396214E+02  0.31623943893E+02  0.51100000000E-03 0.  1.
        -12    1    3    3    0    0  0.21905965685E+01 -0.34473336160E+01 -0.11076483386E+02  0.11805562528E+02  0.00000000000E+00 0.  1.
</event>
<event>
 7    1  0.1283194E-013  0.7246158E+02  0.7816164E-02  0.1226708E+00
        -11   -1    0    0    0    0  0.00000000000E+00  0.00000000000E+00  0.45593999997E+02  0.45594000000E+02  0.51100000000E-03 0.  1.
         11   -1    0    0    0    0 -0.00000000000E+00 -0.00000000000E+00 -0.45593999997E+02  0.45594000000E+02  0.51100000000E-03 0. -1.
    9900012    2    1    2    0    0  0.94087239609E+01 -0.16220100495E+01  0.16109738910E+02  0.72461583073E+02  0.70000016647E+02 0.  0.
         12    1    1    2    0    0 -0.94087239609E+01  0.16220100495E+01 -0.16109738910E+02  0.18726416927E+02  0.00000000000E+00 0. -1.
         11    1    3    3    0    0  0.40495331244E+01 -0.22254193448E+02 -0.93910072159E+01  0.24491607978E+02  0.51100000000E-03 0. -1.
        -11    1    3    3    0    0 -0.14607576881E+02  0.85817467068E+01  0.13943868125E+02  0.21942177135E+02  0.51100000000E-03 0.  1.
         12    1    3    3    0    0  0.19966767717E+02  0.12050436692E+02  0.11556878000E+02  0.26027797960E+02  0.00000000000E+00 0. -1.
</event>
<event>
 7    1  0.1283194E-013  0.7246153E+02  0.7816164E-02  0.1226708E+00
        -11   -1    0    0    0    0  0.00000000000E+00  0.00000000000E+00  0.45593999997E+02  0.45594000000E+02  0.51100000000E-03 0.  1.
         11   -1    0    0    0    0 -0.00000000000E+00 -0.00000000000E+00 -0.45593999997E+02  0.45594000000E+02  0.51100000000E-03 0. -1.
    9900012    2    1    2    0    0  0.16886765819E+01 -0.12920199489E+02  0.13449811190E+02  0.72461531981E+02  0.69999950090E+02 0.  0.
         12    1    1    2    0    0 -0.16886765819E+01  0.12920199489E+02 -0.13449811190E+02  0.18726468019E+02  0.00000000000E+00 0. -1.
         11    1    3    3    0    0  0.24569514270E+02 -0.42240233211E+01 -0.77153476427E+01  0.26096551382E+02  0.51100000000E-03 0. -1.
        -11    1    3    3    0    0 -0.23094081689E+01 -0.18329980259E+02  0.10758656782E+02  0.21379201070E+02  0.51100000000E-03 0.  1.
         12    1    3    3    0    0 -0.20571429520E+02  0.96338040919E+01  0.10406502050E+02  0.24985779529E+02  0.00000000000E+00 0. -1.
</event>
<event>
 7    1  0.1283194E-013  0.7246154E+02  0.7816164E-02  0.1226708E+00
        -11   -1    0    0    0    0  0.00000000000E+00  0.00000000000E+00  0.45593999997E+02  0.45594000000E+02  0.51100000000E-03 0. -1.
         11   -1    0    0    0    0 -0.00000000000E+00 -0.00000000000E+00 -0.45593999997E+02  0.45594000000E+02  0.51100000000E-03 0.  1.
    9900012    2    1    2    0    0 -0.21213759648E+01 -0.12784566535E+02 -0.13517943627E+02  0.72461543384E+02  0.69999964944E+02 0.  0.
         12    1    1    2    0    0  0.21213759648E+01  0.12784566535E+02  0.13517943627E+02  0.18726456616E+02  0.00000000000E+00 0. -1.
         11    1    3    3    0    0  0.22612886770E+02 -0.12455755842E+02  0.76082345528E+01  0.26914192073E+02  0.51100000000E-03 0. -1.
        -11    1    3    3    0    0 -0.29115818128E+02 -0.81104856618E+01 -0.20648316495E+02  0.36604150274E+02  0.51100000000E-03 0.  1.
        -12    1    3    3    0    0  0.43815553936E+01  0.77816749691E+01 -0.47786168496E+00  0.89432010367E+01  0.00000000000E+00 0.  1.
</event>
<event>
 7    1  0.1283194E-013  0.7246158E+02  0.7816164E-02  0.1226708E+00
        -11   -1    0    0    0    0  0.00000000000E+00  0.00000000000E+00  0.45593999997E+02  0.45594000000E+02  0.51100000000E-03 0.  1.
         11   -1    0    0    0    0 -0.00000000000E+00 -0.00000000000E+00 -0.45593999997E+02  0.45594000000E+02  0.51100000000E-03 0. -1.
    9900012    2    1    2    0    0  0.97008274756E+01 -0.14463336171E+02 -0.68836572096E+01  0.72461577931E+02  0.70000009949E+02 0.  0.
         12    1    1    2    0    0 -0.97008274756E+01  0.14463336171E+02  0.68836572096E+01  0.18726422069E+02  0.00000000000E+00 0. -1.
         11    1    3    3    0    0  0.14462708058E+02 -0.31968815530E+02 -0.81271749624E+01  0.36017024639E+02  0.51100000000E-03 0. -1.
        -11    1    3    3    0    0 -0.62642740886E+00  0.16260364077E+02  0.14935502891E+02  0.22087577913E+02  0.51100000000E-03 0.  1.
         12    1    3    3    0    0 -0.41354531731E+01  0.12451152816E+01 -0.13691985138E+02  0.14356975379E+02  0.00000000000E+00 0. -1.
</event>
<event>
 7    1  0.1283194E-013  0.7246161E+02  0.7816164E-02  0.1226708E+00
        -11   -1    0    0    0    0  0.00000000000E+00  0.00000000000E+00  0.45593999997E+02  0.45594000000E+02  0.51100000000E-03 0. -1.
         11   -1    0    0    0    0 -0.00000000000E+00 -0.00000000000E+00 -0.45593999997E+02  0.45594000000E+02  0.51100000000E-03 0.  1.
    9900012    2    1    2    0    0 -0.12420375462E+02  0.36705115347E+01 -0.13525503565E+02  0.72461611447E+02  0.70000053609E+02 0.  0.
         12    1    1    2    0    0  0.12420375462E+02 -0.36705115347E+01  0.13525503565E+02  0.18726388553E+02  0.00000000000E+00 0. -1.
         11    1    3    3    0    0 -0.12956394100E+02  0.31827684531E+02 -0.24966053338E+01  0.34454356606E+02  0.51100000000E-03 0. -1.
        -11    1    3    3    0    0  0.10905313633E+02 -0.19224560222E+02 -0.10067922950E+02  0.24287294084E+02  0.51100000000E-03 0.  1.
        -12    1    3    3    0    0 -0.10369294996E+02 -0.89326127746E+01 -0.96097528107E+00  0.13719960757E+02  0.00000000000E+00 0.  1.
</event>
<event>
 7    1  0.1283194E-013  0.7246166E+02  0.7816164E-02  0.1226708E+00
        -11   -1    0    0    0    0  0.00000000000E+00  0.00000000000E+00  0.45593999997E+02  0.45594000000E+02  0.51100000000E-03 0.  1.
         11   -1    0    0    0    0 -0.00000000000E+00 -0.00000000000E+00 -0.45593999997E+02  0.45594000000E+02  0.51100000000E-03 0. -1.
    9900012    2    1    2    0    0 -0.51770650064E+01 -0.57091211218E+01  0.17066919339E+02  0.72461660214E+02  0.70000117137E+02 0.  0.
         12    1    1    2    0    0  0.51770650064E+01  0.57091211218E+01 -0.17066919339E+02  0.18726339786E+02  0.00000000000E+00 0. -1.
         11    1    3    3    0    0  0.18011455883E+02 -0.59535306578E+01 -0.40493825126E+00  0.18974220552E+02  0.51100000000E-03 0. -1.
        -11    1    3    3    0    0 -0.27046964842E+02 -0.13960296959E+02  0.22589217066E+02  0.37903837884E+02  0.51100000000E-03 0.  1.
        -12    1    3    3    0    0  0.38584439529E+01  0.14204706496E+02 -0.51173594766E+01  0.15583601778E+02  0.00000000000E+00 0.  1.
</event>
<event>
 7    1  0.1283194E-013  0.7246179E+02  0.7816164E-02  0.1226707E+00
        -11   -1    0    0    0    0  0.00000000000E+00  0.00000000000E+00  0.45593999997E+02  0.45594000000E+02  0.51100000000E-03 0. -1.
         11   -1    0    0    0    0 -0.00000000000E+00 -0.00000000000E+00 -0.45593999997E+02  0.45594000000E+02  0.51100000000E-03 0.  1.
    9900012    2    1    2    0    0 -0.91963377025E+01  0.18560329258E+01 -0.16206585706E+02  0.72461790944E+02  0.70000287437E+02 0.  0.
         12    1    1    2    0    0  0.91963377025E+01 -0.18560329258E+01  0.16206585706E+02  0.18726209056E+02  0.00000000000E+00 0. -1.
         11    1    3    3    0    0 -0.13840202557E+02 -0.12749458869E+02 -0.32637774017E+02  0.37673919378E+02  0.51100000000E-03 0.  1.
        -11    1    3    3    0    0  0.13495580710E+02  0.38258177113E+01  0.15355700129E+02  0.20798199599E+02  0.51100000000E-03 0. -1.
        -12    1    3    3    0    0 -0.88517158551E+01  0.10779674083E+02  0.10754881818E+01  0.13989671967E+02  0.00000000000E+00 0.  1.
</event>
<event>
 7    1  0.1283194E-013  0.7246156E+02  0.7816164E-02  0.1226708E+00
        -11   -1    0    0    0    0  0.00000000000E+00  0.00000000000E+00  0.45593999997E+02  0.45594000000E+02  0.51100000000E-03 0.  1.
         11   -1    0    0    0    0 -0.00000000000E+00 -0.00000000000E+00 -0.45593999997E+02  0.45594000000E+02  0.51100000000E-03 0. -1.
    9900012    2    1    2    0    0  0.92059614563E+01 -0.12379983762E+02  0.10614414932E+02  0.72461560706E+02  0.69999987509E+02 0.  0.
         12    1    1    2    0    0 -0.92059614563E+01  0.12379983762E+02 -0.10614414932E+02  0.18726439294E+02  0.00000000000E+00 0. -1.
         11    1    3    3    0    0  0.45332338153E+01 -0.22078413762E+02 -0.13611564010E+02  0.26330234297E+02  0.51100000000E-03 0. -1.
        -11    1    3    3    0    0 -0.50260715520E+01  0.21737724519E+02  0.79553723592E+01  0.23687085345E+02  0.51100000000E-03 0.  1.
         12    1    3    3    0    0  0.96987991931E+01 -0.12039294520E+02  0.16270606583E+02  0.22444241063E+02  0.00000000000E+00 0. -1.
</event>
<event>
 7    1  0.1283194E-013  0.7246141E+02  0.7816164E-02  0.1226708E+00
        -11   -1    0    0    0    0  0.00000000000E+00  0.00000000000E+00  0.45593999997E+02  0.45594000000E+02  0.51100000000E-03 0. -1.
         11   -1    0    0    0    0 -0.00000000000E+00 -0.00000000000E+00 -0.45593999997E+02  0.45594000000E+02  0.51100000000E-03 0.  1.
    9900012    2    1    2    0    0  0.17934080801E+02 -0.10042977663E+01 -0.52957911117E+01  0.72461407366E+02  0.69999787756E+02 0.  0.
         12    1    1    2    0    0 -0.17934080801E+02  0.10042977663E+01  0.52957911117E+01  0.18726592634E+02  0.00000000000E+00 0. -1.
         11    1    3    3    0    0 -0.18513606230E+02 -0.17554537542E+01 -0.10173882255E+01  0.18624454693E+02  0.51100000000E-03 0. -1.
        -11    1    3    3    0    0  0.27419188217E+02  0.18403304851E+02  0.18783118538E+01  0.33075996850E+02  0.51100000000E-03 0.  1.
        -12    1    3    3    0    0  0.90284988138E+01 -0.17652148863E+02 -0.61567147400E+01  0.20760955824E+02  0.00000000000E+00 0.  1.
</event>
<event>
 7    1  0.1283194E-013  0.7246160E+02  0.7816164E-02  0.1226708E+00
        -11   -1    0    0    0    0  0.00000000000E+00  0.00000000000E+00  0.45593999997E+02  0.45594000000E+02  0.51100000000E-03 0.  1.
         11   -1    0    0    0    0 -0.00000000000E+00 -0.00000000000E+00 -0.45593999997E+02  0.45594000000E+02  0.51100000000E-03 0. -1.
    9900012    2    1    2    0    0 -0.12636025468E+02 -0.90737498440E+01  0.10424772275E+02  0.72461602780E+02  0.70000042318E+02 0.  0.
         12    1    1    2    0    0  0.12636025468E+02  0.90737498440E+01 -0.10424772275E+02  0.18726397220E+02  0.00000000000E+00 0. -1.
         11    1    3    3    0    0 -0.14725386307E+02  0.21436074487E+02  0.10433933706E+02  0.28021585683E+02  0.51100000000E-03 0. -1.
        -11    1    3    3    0    0  0.12609963830E+01 -0.16348145759E+02 -0.16106346381E+02  0.22984046111E+02  0.51100000000E-03 0.  1.
        -12    1    3    3    0    0  0.82836445660E+00 -0.14161678572E+02  0.16097184950E+02  0.21455970986E+02  0.00000000000E+00 0.  1.
</event>
<event>
 7    1  0.1283194E-013  0.7246153E+02  0.7816164E-02  0.1226708E+00
        -11   -1    0    0    0    0  0.00000000000E+00  0.00000000000E+00  0.45593999997E+02  0.45594000000E+02  0.51100000000E-03 0.  1.
         11   -1    0    0    0    0 -0.00000000000E+00 -0.00000000000E+00 -0.45593999997E+02  0.45594000000E+02  0.51100000000E-03 0. -1.
    9900012    2    1    2    0    0  0.57044151907E+01 -0.44638422274E+01  0.17268882393E+02  0.72461533723E+02  0.69999952359E+02 0.  0.
         12    1    1    2    0    0 -0.57044151907E+01  0.44638422274E+01 -0.17268882393E+02  0.18726466277E+02  0.00000000000E+00 0. -1.
         11    1    3    3    0    0 -0.13750283158E+01 -0.31567875978E+02  0.22770206333E+02  0.38947449125E+02  0.51100000000E-03 0. -1.
        -11    1    3    3    0    0 -0.40407743568E+01  0.11238303731E+02 -0.73953075373E+01  0.14046989072E+02  0.51100000000E-03 0.  1.
         12    1    3    3    0    0  0.11120217863E+02  0.15865730020E+02  0.18939835980E+01  0.19467095527E+02  0.00000000000E+00 0. -1.
</event>
<event>
 7    1  0.1283194E-013  0.7246166E+02  0.7816164E-02  0.1226708E+00
        -11   -1    0    0    0    0  0.00000000000E+00  0.00000000000E+00  0.45593999997E+02  0.45594000000E+02  0.51100000000E-03 0.  1.
         11   -1    0    0    0    0 -0.00000000000E+00 -0.00000000000E+00 -0.45593999997E+02  0.45594000000E+02  0.51100000000E-03 0. -1.
    9900012    2    1    2    0    0  0.91730737599E+01  0.16321890627E+02 -0.35558272663E+00  0.72461659329E+02  0.70000115984E+02 0.  0.
         12    1    1    2    0    0 -0.91730737599E+01 -0.16321890627E+02  0.35558272663E+00  0.18726340671E+02  0.00000000000E+00 0. -1.
         11    1    3    3    0    0 -0.17746777021E+02 -0.53098955532E+01  0.15892572947E+02  0.24407313669E+02  0.51100000000E-03 0. -1.
        -11    1    3    3    0    0  0.24233498452E+02  0.77486067135E+01 -0.21153115130E+02  0.33087121863E+02  0.51100000000E-03 0.  1.
         12    1    3    3    0    0  0.26863523289E+01  0.13883179467E+02  0.49049594556E+01  0.14967223797E+02  0.00000000000E+00 0. -1.
</event>
<event>
 7    1  0.1283194E-013  0.7246155E+02  0.7816164E-02  0.1226708E+00
        -11   -1    0    0    0    0  0.00000000000E+00  0.00000000000E+00  0.45593999997E+02  0.45594000000E+02  0.51100000000E-03 0.  1.
         11   -1    0    0    0    0 -0.00000000000E+00 -0.00000000000E+00 -0.45593999997E+02  0.45594000000E+02  0.51100000000E-03 0. -1.
    9900012    2    1    2    0    0  0.15047866680E+02  0.84581993188E+01  0.72595160584E+01  0.72461548101E+02  0.69999971089E+02 0.  0.
         12    1    1    2    0    0 -0.15047866680E+02 -0.84581993188E+01 -0.72595160584E+01  0.18726451899E+02  0.00000000000E+00 0. -1.
         11    1    3    3    0    0  0.11976703275E+01  0.31723979380E+02  0.18304434698E+02  0.36645567423E+02  0.51100000000E-03 0. -1.
        -11    1    3    3    0    0  0.19242172897E+02 -0.18411868397E+02 -0.71191842762E+01  0.27567025605E+02  0.51100000000E-03 0.  1.
         12    1    3    3    0    0 -0.53919765449E+01 -0.48539116643E+01 -0.39257343634E+01  0.82489550731E+01  0.00000000000E+00 0. -1.
</event>
<event>
 7    1  0.1283194E-013  0.7246163E+02  0.7816164E-02  0.1226708E+00
        -11   -1    0    0    0    0  0.00000000000E+00  0.00000000000E+00  0.45593999997E+02  0.45594000000E+02  0.51100000000E-03 0.  1.
         11   -1    0    0    0    0 -0.00000000000E+00 -0.00000000000E+00 -0.45593999997E+02  0.45594000000E+02  0.51100000000E-03 0. -1.
    9900012    2    1    2    0    0  0.62318897742E+01  0.14943705734E+02 -0.94088250385E+01  0.72461634100E+02  0.70000083119E+02 0.  0.
         12    1    1    2    0    0 -0.62318897742E+01 -0.14943705734E+02  0.94088250385E+01  0.18726365900E+02  0.00000000000E+00 0. -1.
         11    1    3    3    0    0  0.19580887739E+01 -0.40657070858E+01 -0.23822605245E+02  0.24246249333E+02  0.51100000000E-03 0. -1.
        -11    1    3    3    0    0  0.11482676153E+02  0.13067366416E+02  0.27256288141E+02  0.32334395930E+02  0.51100000000E-03 0.  1.
        -12    1    3    3    0    0 -0.72088751524E+01  0.59420464033E+01 -0.12842507934E+02  0.15880988837E+02  0.00000000000E+00 0.  1.
</event>
<event>
 7    1  0.1283194E-013  0.7246088E+02  0.7816164E-02  0.1226710E+00
        -11   -1    0    0    0    0  0.00000000000E+00  0.00000000000E+00  0.45593999997E+02  0.45594000000E+02  0.51100000000E-03 0.  1.
         11   -1    0    0    0    0 -0.00000000000E+00 -0.00000000000E+00 -0.45593999997E+02  0.45594000000E+02  0.51100000000E-03 0. -1.
    9900012    2    1    2    0    0  0.18423725662E+02 -0.31021014027E+01  0.12839214826E+01  0.72460876495E+02  0.69999096192E+02 0.  0.
         12    1    1    2    0    0 -0.18423725662E+02  0.31021014027E+01 -0.12839214826E+01  0.18727123505E+02  0.00000000000E+00 0. -1.
         11    1    3    3    0    0  0.32129855009E+02 -0.40686428670E+01  0.19354196623E+02  0.37728853214E+02  0.51100000000E-03 0. -1.
        -11    1    3    3    0    0 -0.37809136599E+01 -0.94605536212E+01  0.16453855527E+01  0.10320110310E+02  0.51100000000E-03 0.  1.
         12    1    3    3    0    0 -0.99252156865E+01  0.10427095085E+02 -0.19715660693E+02  0.24411912971E+02  0.00000000000E+00 0. -1.
</event>
<event>
 7    1  0.1283194E-013  0.7246157E+02  0.7816164E-02  0.1226708E+00
        -11   -1    0    0    0    0  0.00000000000E+00  0.00000000000E+00  0.45593999997E+02  0.45594000000E+02  0.51100000000E-03 0. -1.
         11   -1    0    0    0    0 -0.00000000000E+00 -0.00000000000E+00 -0.45593999997E+02  0.45594000000E+02  0.51100000000E-03 0.  1.
    9900012    2    1    2    0    0 -0.31908358237E+01  0.15688880828E+02 -0.97137353777E+01  0.72461572955E+02  0.70000003466E+02 0.  0.
         12    1    1    2    0    0  0.31908358237E+01 -0.15688880828E+02  0.97137353777E+01  0.18726427045E+02  0.00000000000E+00 0. -1.
         11    1    3    3    0    0 -0.15456646839E+02  0.13391203025E+02  0.11704591389E+02  0.23563312794E+02  0.51100000000E-03 0. -1.
        -11    1    3    3    0    0  0.26893433689E+02  0.43220809947E+01 -0.20521888628E+02  0.34104033088E+02  0.51100000000E-03 0.  1.
         12    1    3    3    0    0 -0.14627622674E+02 -0.20244031917E+01 -0.89643813874E+00  0.14794227074E+02  0.00000000000E+00 0. -1.
</event>
<event>
 7    1  0.1283194E-013  0.7246159E+02  0.7816164E-02  0.1226708E+00
        -11   -1    0    0    0    0  0.00000000000E+00  0.00000000000E+00  0.45593999997E+02  0.45594000000E+02  0.51100000000E-03 0. -1.
         11   -1    0    0    0    0 -0.00000000000E+00 -0.00000000000E+00 -0.45593999997E+02  0.45594000000E+02  0.51100000000E-03 0.  1.
    9900012    2    1    2    0    0 -0.94534743168E+01  0.91929526087E+01 -0.13296615868E+02  0.72461586893E+02  0.70000021623E+02 0.  0.
         12    1    1    2    0    0  0.94534743168E+01 -0.91929526087E+01  0.13296615868E+02  0.18726413107E+02  0.00000000000E+00 0. -1.
         11    1    3    3    0    0  0.17562740247E+02 -0.67406898890E+00 -0.36353195913E+01  0.17947695194E+02  0.51100000000E-03 0. -1.
        -11    1    3    3    0    0 -0.52314497937E+01 -0.17707476650E+02 -0.43945961825E+01  0.18979864913E+02  0.51100000000E-03 0.  1.
         12    1    3    3    0    0 -0.21784764770E+02  0.27574498248E+02 -0.52667000939E+01  0.35534026785E+02  0.00000000000E+00 0. -1.
</event>
<event>
 7    1  0.1283194E-013  0.7246155E+02  0.7816164E-02  0.1226708E+00
        -11   -1    0    0    0    0  0.00000000000E+00  0.00000000000E+00  0.45593999997E+02  0.45594000000E+02  0.51100000000E-03 0. -1.
         11   -1    0    0    0    0 -0.00000000000E+00 -0.00000000000E+00 -0.45593999997E+02  0.45594000000E+02  0.51100000000E-03 0.  1.
    9900012    2    1    2    0    0 -0.85166970749E-01  0.18392873575E+02 -0.35178115740E+01  0.72461546785E+02  0.69999969374E+02 0.  0.
         12    1    1    2    0    0  0.85166970749E-01 -0.18392873575E+02  0.35178115740E+01  0.18726453215E+02  0.00000000000E+00 0. -1.
         11    1    3    3    0    0  0.41451531581E+00 -0.70242458535E+01 -0.22056154102E+02  0.23151366845E+02  0.51100000000E-03 0.  1.
        -11    1    3    3    0    0  0.96421560366E+01 -0.11419458966E+01  0.18485733474E+02  0.20880554490E+02  0.51100000000E-03 0. -1.
         12    1    3    3    0    0 -0.10141838323E+02  0.26559065325E+02  0.52609053969E-01  0.28429625450E+02  0.00000000000E+00 0. -1.
</event>
<event>
 7    1  0.1283194E-013  0.7246159E+02  0.7816164E-02  0.1226708E+00
        -11   -1    0    0    0    0  0.00000000000E+00  0.00000000000E+00  0.45593999997E+02  0.45594000000E+02  0.51100000000E-03 0. -1.
         11   -1    0    0    0    0 -0.00000000000E+00 -0.00000000000E+00 -0.45593999997E+02  0.45594000000E+02  0.51100000000E-03 0.  1.
    9900012    2    1    2    0    0  0.27686850498E+01 -0.75825889126E+01 -0.16897249371E+02  0.72461593302E+02  0.70000029972E+02 0.  0.
         12    1    1    2    0    0 -0.27686850498E+01  0.75825889126E+01  0.16897249371E+02  0.18726406698E+02  0.00000000000E+00 0. -1.
         11    1    3    3    0    0  0.39397824705E+01  0.16898503541E+02  0.15656929857E+02  0.23371366255E+02  0.51100000000E-03 0. -1.
        -11    1    3    3    0    0 -0.86317995885E+01 -0.27309688227E+02 -0.27059856806E+02  0.39402574609E+02  0.51100000000E-03 0.  1.
         12    1    3    3    0    0  0.74607021678E+01  0.28285957736E+01 -0.54943224216E+01  0.96876524380E+01  0.00000000000E+00 0. -1.
</event>
<event>
 7    1  0.1283194E-013  0.7246160E+02  0.7816164E-02  0.1226708E+00
        -11   -1    0    0    0    0  0.00000000000E+00  0.00000000000E+00  0.45593999997E+02  0.45594000000E+02  0.51100000000E-03 0. -1.
         11   -1    0    0    0    0 -0.00000000000E+00 -0.00000000000E+00 -0.45593999997E+02  0.45594000000E+02  0.51100000000E-03 0.  1.
    9900012    2    1    2    0    0 -0.18675552913E+02  0.13726398348E+01 -0.13276598798E+00  0.72461600359E+02  0.70000039164E+02 0.  0.
         12    1    1    2    0    0  0.18675552913E+02 -0.13726398348E+01  0.13276598798E+00  0.18726399641E+02  0.00000000000E+00 0. -1.
         11    1    3    3    0    0 -0.22004282873E+02  0.28279951102E+01  0.15750877286E+02  0.27208016404E+02  0.51100000000E-03 0. -1.
        -11    1    3    3    0    0  0.64251514850E+01 -0.62409367541E+01 -0.29320267848E+02  0.30657951173E+02  0.51100000000E-03 0.  1.
        -12    1    3    3    0    0 -0.30964215250E+01  0.47855814787E+01  0.13436624574E+02  0.14595632782E+02  0.00000000000E+00 0.  1.
</event>
<event>
 7    1  0.1283194E-013  0.7246155E+02  0.7816164E-02  0.1226708E+00
        -11   -1    0    0    0    0  0.00000000000E+00  0.00000000000E+00  0.45593999997E+02  0.45594000000E+02  0.51100000000E-03 0.  1.
         11   -1    0    0    0    0 -0.00000000000E+00 -0.00000000000E+00 -0.45593999997E+02  0.45594000000E+02  0.51100000000E-03 0. -1.
    9900012    2    1    2    0    0 -0.13164948988E+01  0.17639286423E+02  0.61483711381E+01  0.72461546733E+02  0.69999969307E+02 0.  0.
         12    1    1    2    0    0  0.13164948988E+01 -0.17639286423E+02 -0.61483711381E+01  0.18726453267E+02  0.00000000000E+00 0. -1.
         11    1    3    3    0    0 -0.21159160557E+02  0.40079008393E+01 -0.15484060193E+02  0.26524129862E+02  0.51100000000E-03 0. -1.
        -11    1    3    3    0    0  0.23776815804E+02  0.21034201288E+02  0.14372128306E+02  0.34847276306E+02  0.51100000000E-03 0.  1.
         12    1    3    3    0    0 -0.39341501459E+01 -0.74028157050E+01  0.72603030249E+01  0.11090140565E+02  0.00000000000E+00 0. -1.
</event>
<event>
 7    1  0.1283194E-013  0.7246152E+02  0.7816164E-02  0.1226708E+00
        -11   -1    0    0    0    0  0.00000000000E+00  0.00000000000E+00  0.45593999997E+02  0.45594000000E+02  0.51100000000E-03 0.  1.
         11   -1    0    0    0    0 -0.00000000000E+00 -0.00000000000E+00 -0.45593999997E+02  0.45594000000E+02  0.51100000000E-03 0. -1.
    9900012    2    1    2    0    0 -0.18121715866E+01  0.64568364037E+01  0.17484458242E+02  0.72461521895E+02  0.69999936951E+02 0.  0.
         12    1    1    2    0    0  0.18121715866E+01 -0.64568364037E+01 -0.17484458242E+02  0.18726478105E+02  0.00000000000E+00 0. -1.
         11    1    3    3    0    0 -0.29023364126E+02  0.77346761078E+01 -0.66067135377E+01  0.30754341868E+02  0.51100000000E-03 0. -1.
        -11    1    3    3    0    0  0.13023013066E+02 -0.57285734373E+01  0.22676550613E+02  0.26770158216E+02  0.51100000000E-03 0.  1.
         12    1    3    3    0    0  0.14188179474E+02  0.44507337332E+01  0.14146211669E+01  0.14937021811E+02  0.00000000000E+00 0. -1.
</event>
<event>
 7    1  0.1283194E-013  0.7246157E+02  0.7816164E-02  0.1226708E+00
        -11   -1    0    0    0    0  0.00000000000E+00  0.00000000000E+00  0.45593999997E+02  0.45594000000E+02  0.51100000000E-03 0. -1.
         11   -1    0    0    0    0 -0.00000000000E+00 -0.00000000000E+00 -0.45593999997E+02  0.45594000000E+02  0.51100000000E-03 0.  1.
    9900012    2    1    2    0    0 -0.80846292062E+01 -0.83899210490E+01 -0.14660396543E+02  0.72461568642E+02  0.69999997847E+02 0.  0.
         12    1    1    2    0    0  0.80846292062E+01  0.83899210490E+01  0.14660396543E+02  0.18726431358E+02  0.00000000000E+00 0. -1.
         11    1    3    3    0    0 -0.10407642354E+02 -0.14675753561E+02  0.15729658177E+02  0.23898094245E+02  0.51100000000E-03 0. -1.
        -11    1    3    3    0    0  0.10758149733E+02  0.18660126258E+02 -0.11372306423E+02  0.24357082159E+02  0.51100000000E-03 0.  1.
         12    1    3    3    0    0 -0.84351365858E+01 -0.12374293746E+02 -0.19017748296E+02  0.24206392238E+02  0.00000000000E+00 0. -1.
</event>
<event>
 7    1  0.1283194E-013  0.7246156E+02  0.7816164E-02  0.1226708E+00
        -11   -1    0    0    0    0  0.00000000000E+00  0.00000000000E+00  0.45593999997E+02  0.45594000000E+02  0.51100000000E-03 0.  1.
         11   -1    0    0    0    0 -0.00000000000E+00 -0.00000000000E+00 -0.45593999997E+02  0.45594000000E+02  0.51100000000E-03 0. -1.
    9900012    2    1    2    0    0  0.17771622664E+02  0.34783984675E+01  0.47696736492E+01  0.72461558407E+02  0.69999984515E+02 0.  0.
         12    1    1    2    0    0 -0.17771622664E+02 -0.34783984675E+01 -0.47696736492E+01  0.18726441593E+02  0.00000000000E+00 0. -1.
         11    1    3    3    0    0  0.92757031102E+01 -0.13904796126E+02 -0.17511026673E+02  0.24207810287E+02  0.51100000000E-03 0. -1.
        -11    1    3    3    0    0  0.21054910649E+02  0.25736417846E+01  0.19165643507E+02  0.28587668422E+02  0.51100000000E-03 0.  1.
         12    1    3    3    0    0 -0.12558991096E+02  0.14809552809E+02  0.31150568155E+01  0.19666079698E+02  0.00000000000E+00 0. -1.
</event>
<event>
 7    1  0.1283194E-013  0.7246158E+02  0.7816164E-02  0.1226708E+00
        -11   -1    0    0    0    0  0.00000000000E+00  0.00000000000E+00  0.45593999997E+02  0.45594000000E+02  0.51100000000E-03 0.  1.
         11   -1    0    0    0    0 -0.00000000000E+00 -0.00000000000E+00 -0.45593999997E+02  0.45594000000E+02  0.51100000000E-03 0. -1.
    9900012    2    1    2    0    0  0.36670513559E+01  0.18352516889E+02  0.64541367588E+00  0.72461582814E+02  0.70000016309E+02 0.  0.
         12    1    1    2    0    0 -0.36670513559E+01 -0.18352516889E+02 -0.64541367588E+00  0.18726417186E+02  0.00000000000E+00 0. -1.
         11    1    3    3    0    0  0.15073005038E+02 -0.64059267192E+01 -0.16802028812E+02  0.23463579234E+02  0.51100000000E-03 0. -1.
        -11    1    3    3    0    0 -0.17481005332E+02  0.24625025878E+01  0.18876424707E+02  0.25845093856E+02  0.51100000000E-03 0.  1.
        -12    1    3    3    0    0  0.60750516503E+01  0.22295941020E+02 -0.14289822191E+01  0.23152909725E+02  0.00000000000E+00 0.  1.
</event>
<event>
 7    1  0.1283194E-013  0.7246154E+02  0.7816164E-02  0.1226708E+00
        -11   -1    0    0    0    0  0.00000000000E+00  0.00000000000E+00  0.45593999997E+02  0.45594000000E+02  0.51100000000E-03 0.  1.
         11   -1    0    0    0    0 -0.00000000000E+00 -0.00000000000E+00 -0.45593999997E+02  0.45594000000E+02  0.51100000000E-03 0. -1.
    9900012    2    1    2    0    0 -0.16733464412E+02  0.28421605623E+00 -0.84018161312E+01  0.72461544802E+02  0.69999966791E+02 0.  0.
         12    1    1    2    0    0  0.16733464412E+02 -0.28421605623E+00  0.84018161312E+01  0.18726455198E+02  0.00000000000E+00 0. -1.
         11    1    3    3    0    0  0.54408122706E+01 -0.24073730438E+02  0.12128714052E+01  0.24710685800E+02  0.51100000000E-03 0. -1.
        -11    1    3    3    0    0 -0.13195438498E+02  0.30965911967E+02 -0.13025380312E+02  0.36092489990E+02  0.51100000000E-03 0.  1.
         12    1    3    3    0    0 -0.89788381843E+01 -0.66079654725E+01  0.34106927758E+01  0.11658369013E+02  0.00000000000E+00 0. -1.
</event>
<event>
 7    1  0.1283194E-013  0.7246156E+02  0.7816164E-02  0.1226708E+00
        -11   -1    0    0    0    0  0.00000000000E+00  0.00000000000E+00  0.45593999997E+02  0.45594000000E+02  0.51100000000E-03 0.  1.
         11   -1    0    0    0    0 -0.00000000000E+00 -0.00000000000E+00 -0.45593999997E+02  0.45594000000E+02  0.51100000000E-03 0. -1.
    9900012    2    1    2    0    0  0.11481800510E+02  0.31538131530E+01  0.14453411318E+02  0.72461564698E+02  0.69999992710E+02 0.  0.
         12    1    1    2    0    0 -0.11481800510E+02 -0.31538131530E+01 -0.14453411318E+02  0.18726435302E+02  0.00000000000E+00 0. -1.
         11    1    3    3    0    0  0.13070403668E+02  0.16459796171E+01 -0.31350556011E+01  0.13541538865E+02  0.51100000000E-03 0. -1.
        -11    1    3    3    0    0  0.66357790323E+00  0.17895544112E+02  0.32202866622E+02  0.36847190580E+02  0.51100000000E-03 0.  1.
        -12    1    3    3    0    0 -0.22521810608E+01 -0.16387710576E+02 -0.14614399703E+02  0.22072835253E+02  0.00000000000E+00 0.  1.
</event>
<event>
 7    1  0.1283194E-013  0.7246154E+02  0.7816164E-02  0.1226708E+00
        -11   -1    0    0    0    0  0.00000000000E+00  0.00000000000E+00  0.45593999997E+02  0.45594000000E+02  0.51100000000E-03 0. -1.
         11   -1    0    0    0    0 -0.00000000000E+00 -0.00000000000E+00 -0.45593999997E+02  0.45594000000E+02  0.51100000000E-03 0.  1.
    9900012    2    1    2    0    0 -0.34665002717E+01  0.18325472720E+02  0.16854966505E+01  0.72461535477E+02  0.69999954645E+02 0.  0.
         12    1    1    2    0    0  0.34665002717E+01 -0.18325472720E+02 -0.16854966505E+01  0.18726464523E+02  0.00000000000E+00 0. -1.
         11    1    3    3    0    0 -0.29724994212E+01 -0.16078854177E+02  0.22863884919E+02  0.28109118419E+02  0.51100000000E-03 0. -1.
        -11    1    3    3    0    0  0.17115131480E+01  0.10893288958E+02 -0.17161756656E+02  0.20398992950E+02  0.51100000000E-03 0.  1.
         12    1    3    3    0    0 -0.22055139985E+01  0.23511037940E+02 -0.40166316123E+01  0.23953424108E+02  0.00000000000E+00 0. -1.
</event>
<event>
 7    1  0.1283194E-013  0.7246155E+02  0.7816164E-02  0.1226708E+00
        -11   -1    0    0    0    0  0.00000000000E+00  0.00000000000E+00  0.45593999997E+02  0.45594000000E+02  0.51100000000E-03 0.  1.
         11   -1    0    0    0    0 -0.00000000000E+00 -0.00000000000E+00 -0.45593999997E+02  0.45594000000E+02  0.51100000000E-03 0. -1.
    9900012    2    1    2    0    0  0.17920957475E+01  0.81314756993E+01  0.16773414457E+02  0.72461549809E+02  0.69999973314E+02 0.  0.
         12    1    1    2    0    0 -0.17920957475E+01 -0.81314756993E+01 -0.16773414457E+02  0.18726450191E+02  0.00000000000E+00 0. -1.
         11    1    3    3    0    0 -0.23249281855E+02  0.18449653078E+01  0.10511407384E+02  0.25581686598E+02  0.51100000000E-03 0. -1.
        -11    1    3    3    0    0  0.19395203347E+02 -0.85022001084E+01  0.17495488084E+02  0.27469135827E+02  0.51100000000E-03 0.  1.
         12    1    3    3    0    0  0.56461742555E+01  0.14788710500E+02 -0.11233481010E+02  0.19410727384E+02  0.00000000000E+00 0. -1.
</event>
<event>
 7    1  0.1283194E-013  0.7246155E+02  0.7816164E-02  0.1226708E+00
        -11   -1    0    0    0    0  0.00000000000E+00  0.00000000000E+00  0.45593999997E+02  0.45594000000E+02  0.51100000000E-03 0. -1.
         11   -1    0    0    0    0 -0.00000000000E+00 -0.00000000000E+00 -0.45593999997E+02  0.45594000000E+02  0.51100000000E-03 0.  1.
    9900012    2    1    2    0    0 -0.14953345942E+02  0.10335590736E+01 -0.11225385946E+02  0.72461545748E+02  0.69999968024E+02 0.  0.
         12    1    1    2    0    0  0.14953345942E+02 -0.10335590736E+01  0.11225385946E+02  0.18726454252E+02  0.00000000000E+00 0. -1.
         11    1    3    3    0    0 -0.17386792008E+02  0.57529949590E+01 -0.22897585597E+02  0.29320588564E+02  0.51100000000E-03 0. -1.
        -11    1    3    3    0    0  0.20756556773E+02 -0.91359453061E+01  0.60125691230E+01  0.23461695024E+02  0.51100000000E-03 0.  1.
         12    1    3    3    0    0 -0.18323110707E+02  0.44165094206E+01  0.56596305282E+01  0.19679262160E+02  0.00000000000E+00 0. -1.
</event>
<event>
 7    1  0.1295363E-013  0.7246150E+02  0.7816164E-02  0.1226708E+00
        -11   -1    0    0    0    0  0.00000000000E+00  0.00000000000E+00  0.45593999997E+02  0.45594000000E+02  0.51100000000E-03 0. -1.
         11   -1    0    0    0    0 -0.00000000000E+00 -0.00000000000E+00 -0.45593999997E+02  0.45594000000E+02  0.51100000000E-03 0.  1.
    9900012    2    1    2    0    0  0.85790914966E+01  0.12208736479E+02 -0.11314926937E+02  0.72461504628E+02  0.69999914457E+02 0.  0.
         12    1    1    2    0    0 -0.85790914966E+01 -0.12208736479E+02  0.11314926937E+02  0.18726495372E+02  0.00000000000E+00 0. -1.
         11    1    3    3    0    0  0.19983424841E+02 -0.12616337161E+02  0.55970032525E+01  0.24286532840E+02  0.51100000000E-03 0. -1.
        -11    1    3    3    0    0  0.73799585406E+01  0.24864230440E+02 -0.12898722513E+02  0.28966718595E+02  0.51100000000E-03 0.  1.
         12    1    3    3    0    0 -0.18784291885E+02 -0.39156799662E-01 -0.40132076772E+01  0.19208253193E+02  0.00000000000E+00 0. -1.
</event>
<event>
 7    1  0.1283194E-013  0.7246149E+02  0.7816164E-02  0.1226708E+00
        -11   -1    0    0    0    0  0.00000000000E+00  0.00000000000E+00  0.45593999997E+02  0.45594000000E+02  0.51100000000E-03 0.  1.
         11   -1    0    0    0    0 -0.00000000000E+00 -0.00000000000E+00 -0.45593999997E+02  0.45594000000E+02  0.51100000000E-03 0. -1.
    9900012    2    1    2    0    0 -0.81529338990E+01 -0.67455966062E+01  0.15450201274E+02  0.72461491405E+02  0.69999897232E+02 0.  0.
         12    1    1    2    0    0  0.81529338990E+01  0.67455966062E+01 -0.15450201274E+02  0.18726508595E+02  0.00000000000E+00 0. -1.
         11    1    3    3    0    0 -0.34111872962E+01 -0.26243656183E+02  0.55147900216E+01  0.27032916932E+02  0.51100000000E-03 0. -1.
        -11    1    3    3    0    0 -0.16907256390E+02  0.19575473224E+02  0.17382771118E+02  0.31164325800E+02  0.51100000000E-03 0.  1.
        -12    1    3    3    0    0  0.12165509787E+02 -0.77413647087E-01 -0.74473598651E+01  0.14264248673E+02  0.00000000000E+00 0.  1.
</event>
<event>
 7    1  0.1283194E-013  0.7246164E+02  0.7816164E-02  0.1226708E+00
        -11   -1    0    0    0    0  0.00000000000E+00  0.00000000000E+00  0.45593999997E+02  0.45594000000E+02  0.51100000000E-03 0. -1.
         11   -1    0    0    0    0 -0.00000000000E+00 -0.00000000000E+00 -0.45593999997E+02  0.45594000000E+02  0.51100000000E-03 0.  1.
    9900012    2    1    2    0    0 -0.11224800026E+02 -0.69393818925E+01 -0.13286287932E+02  0.72461638803E+02  0.70000089245E+02 0.  0.
         12    1    1    2    0    0  0.11224800026E+02  0.69393818925E+01  0.13286287932E+02  0.18726361197E+02  0.00000000000E+00 0. -1.
         11    1    3    3    0    0 -0.22347711672E+01 -0.26057135975E+02  0.99022406268E+01  0.27964672483E+02  0.51100000000E-03 0. -1.
        -11    1    3    3    0    0 -0.34456152289E+01  0.11145569961E+02 -0.30295124921E+02  0.32463681065E+02  0.51100000000E-03 0.  1.
        -12    1    3    3    0    0 -0.55444136301E+01  0.79721841211E+01  0.71065963624E+01  0.12033285255E+02  0.00000000000E+00 0.  1.
</event>
<event>
 7    1  0.1283194E-013  0.7246155E+02  0.7816164E-02  0.1226708E+00
        -11   -1    0    0    0    0  0.00000000000E+00  0.00000000000E+00  0.45593999997E+02  0.45594000000E+02  0.51100000000E-03 0.  1.
         11   -1    0    0    0    0 -0.00000000000E+00 -0.00000000000E+00 -0.45593999997E+02  0.45594000000E+02  0.51100000000E-03 0. -1.
    9900012    2    1    2    0    0 -0.51097858996E+01 -0.17042713742E+02  0.58408736645E+01  0.72461553226E+02  0.69999977765E+02 0.  0.
         12    1    1    2    0    0  0.51097858996E+01  0.17042713742E+02 -0.58408736645E+01  0.18726446774E+02  0.00000000000E+00 0. -1.
         11    1    3    3    0    0 -0.92093080070E+01  0.12936895703E+02  0.12939365644E+01  0.15932636206E+02  0.51100000000E-03 0. -1.
        -11    1    3    3    0    0 -0.80286073695E+01 -0.38640067638E+02 -0.34502981739E+01  0.39615879659E+02  0.51100000000E-03 0.  1.
        -12    1    3    3    0    0  0.12128129477E+02  0.86604581936E+01  0.79972352740E+01  0.16913037361E+02  0.00000000000E+00 0.  1.
</event>
<event>
 7    1  0.1283194E-013  0.7246154E+02  0.7816164E-02  0.1226708E+00
        -11   -1    0    0    0    0  0.00000000000E+00  0.00000000000E+00  0.45593999997E+02  0.45594000000E+02  0.51100000000E-03 0. -1.
         11   -1    0    0    0    0 -0.00000000000E+00 -0.00000000000E+00 -0.45593999997E+02  0.45594000000E+02  0.51100000000E-03 0.  1.
    9900012    2    1    2    0    0  0.24859839360E+01 -0.18495360283E+02 -0.15562583551E+01  0.72461537221E+02  0.69999956916E+02 0.  0.
         12    1    1    2    0    0 -0.24859839360E+01  0.18495360283E+02  0.15562583551E+01  0.18726462779E+02  0.00000000000E+00 0. -1.
         11    1    3    3    0    0 -0.14457838205E+02 -0.10604085504E+01  0.11982555679E+02  0.18807849231E+02  0.51100000000E-03 0. -1.
        -11    1    3    3    0    0  0.24030702727E+01 -0.28896193081E+02 -0.18613469120E+02  0.34456145377E+02  0.51100000000E-03 0.  1.
        -12    1    3    3    0    0  0.14540751868E+02  0.11461241348E+02  0.50746550861E+01  0.19197542613E+02  0.00000000000E+00 0.  1.
</event>
<event>
 7    1  0.1283194E-013  0.7246156E+02  0.7816164E-02  0.1226708E+00
        -11   -1    0    0    0    0  0.00000000000E+00  0.00000000000E+00  0.45593999997E+02  0.45594000000E+02  0.51100000000E-03 0. -1.
         11   -1    0    0    0    0 -0.00000000000E+00 -0.00000000000E+00 -0.45593999997E+02  0.45594000000E+02  0.51100000000E-03 0.  1.
    9900012    2    1    2    0    0  0.16710328843E+02 -0.84416916426E+01  0.42708039848E+00  0.72461557585E+02  0.69999983444E+02 0.  0.
         12    1    1    2    0    0 -0.16710328843E+02  0.84416916426E+01 -0.42708039848E+00  0.18726442415E+02  0.00000000000E+00 0. -1.
         11    1    3    3    0    0  0.31763770270E+02 -0.80968823306E+01 -0.15411433043E+02  0.36221663048E+02  0.51100000000E-03 0.  1.
        -11    1    3    3    0    0 -0.66372775928E+01  0.83349977825E+01  0.20642655726E+02  0.23230257802E+02  0.51100000000E-03 0. -1.
        -12    1    3    3    0    0 -0.84161638342E+01 -0.86798070945E+01 -0.48041422845E+01  0.13009636735E+02  0.00000000000E+00 0.  1.
</event>
<event>
 7    1  0.1283194E-013  0.7246151E+02  0.7816164E-02  0.1226708E+00
        -11   -1    0    0    0    0  0.00000000000E+00  0.00000000000E+00  0.45593999997E+02  0.45594000000E+02  0.51100000000E-03 0.  1.
         11   -1    0    0    0    0 -0.00000000000E+00 -0.00000000000E+00 -0.45593999997E+02  0.45594000000E+02  0.51100000000E-03 0. -1.
    9900012    2    1    2    0    0  0.17388341932E+02 -0.60791817261E+01 -0.33720448281E+01  0.72461506150E+02  0.69999916440E+02 0.  0.
         12    1    1    2    0    0 -0.17388341932E+02  0.60791817261E+01  0.33720448281E+01  0.18726493850E+02  0.00000000000E+00 0. -1.
         11    1    3    3    0    0 -0.13413535344E+02  0.65354087793E+01  0.29471370478E+01  0.15209211530E+02  0.51100000000E-03 0. -1.
        -11    1    3    3    0    0  0.34600652906E+02  0.43565189971E+01  0.67206867115E+01  0.35515518713E+02  0.51100000000E-03 0.  1.
        -12    1    3    3    0    0 -0.37987756307E+01 -0.16971109502E+02 -0.13039868587E+02  0.21736775907E+02  0.00000000000E+00 0.  1.
</event>
<event>
 7    1  0.1283194E-013  0.7246164E+02  0.7816164E-02  0.1226708E+00
        -11   -1    0    0    0    0  0.00000000000E+00  0.00000000000E+00  0.45593999997E+02  0.45594000000E+02  0.51100000000E-03 0.  1.
         11   -1    0    0    0    0 -0.00000000000E+00 -0.00000000000E+00 -0.45593999997E+02  0.45594000000E+02  0.51100000000E-03 0. -1.
    9900012    2    1    2    0    0  0.20457273165E+01  0.10355333290E+02  0.15467985842E+02  0.72461641203E+02  0.70000092372E+02 0.  0.
         12    1    1    2    0    0 -0.20457273165E+01 -0.10355333290E+02 -0.15467985842E+02  0.18726358797E+02  0.00000000000E+00 0. -1.
         11    1    3    3    0    0 -0.35658614755E+01  0.13288001877E+02 -0.24220422723E+02  0.27855255143E+02  0.51100000000E-03 0. -1.
        -11    1    3    3    0    0 -0.86693308538E+00  0.36274417931E+01  0.33014508382E+02  0.33224504073E+02  0.51100000000E-03 0.  1.
         12    1    3    3    0    0  0.64785218773E+01 -0.65601103806E+01  0.66739001826E+01  0.11381881987E+02  0.00000000000E+00 0. -1.
</event>
<event>
 7    1  0.1283194E-013  0.7246158E+02  0.7816164E-02  0.1226708E+00
        -11   -1    0    0    0    0  0.00000000000E+00  0.00000000000E+00  0.45593999997E+02  0.45594000000E+02  0.51100000000E-03 0.  1.
         11   -1    0    0    0    0 -0.00000000000E+00 -0.00000000000E+00 -0.45593999997E+02  0.45594000000E+02  0.51100000000E-03 0. -1.
    9900012    2    1    2    0    0  0.12158255160E+02  0.39528505788E+01  0.13683217553E+02  0.72461584464E+02  0.70000018458E+02 0.  0.
         12    1    1    2    0    0 -0.12158255160E+02 -0.39528505788E+01 -0.13683217553E+02  0.18726415536E+02  0.00000000000E+00 0. -1.
         11    1    3    3    0    0  0.38763293127E+02 -0.18419586730E+01  0.59036742174E+01  0.39253523095E+02  0.51100000000E-03 0. -1.
        -11    1    3    3    0    0 -0.11238419168E+02  0.79682733667E+00  0.12047621861E+02  0.16494914124E+02  0.51100000000E-03 0.  1.
         12    1    3    3    0    0 -0.15366618799E+02  0.49979819150E+01 -0.42680785254E+01  0.16713147245E+02  0.00000000000E+00 0. -1.
</event>
<event>
 7    1  0.1283194E-013  0.7246158E+02  0.7816164E-02  0.1226708E+00
        -11   -1    0    0    0    0  0.00000000000E+00  0.00000000000E+00  0.45593999997E+02  0.45594000000E+02  0.51100000000E-03 0. -1.
         11   -1    0    0    0    0 -0.00000000000E+00 -0.00000000000E+00 -0.45593999997E+02  0.45594000000E+02  0.51100000000E-03 0.  1.
    9900012    2    1    2    0    0 -0.76193642109E+01  0.20613080037E+01 -0.16981608839E+02  0.72461581751E+02  0.70000014925E+02 0.  0.
         12    1    1    2    0    0  0.76193642109E+01 -0.20613080037E+01  0.16981608839E+02  0.18726418249E+02  0.00000000000E+00 0. -1.
         11    1    3    3    0    0  0.11482953048E+02 -0.14433580376E+02  0.11399507016E+02  0.21682601634E+02  0.51100000000E-03 0.  1.
        -11    1    3    3    0    0  0.43335463308E+01  0.17115905786E+02 -0.17753943506E+02  0.25038697349E+02  0.51100000000E-03 0. -1.
        -12    1    3    3    0    0 -0.23435863590E+02 -0.62101740647E+00 -0.10627172349E+02  0.25740282767E+02  0.00000000000E+00 0.  1.
</event>
<event>
 7    1  0.1283194E-013  0.7246159E+02  0.7816164E-02  0.1226708E+00
        -11   -1    0    0    0    0  0.00000000000E+00  0.00000000000E+00  0.45593999997E+02  0.45594000000E+02  0.51100000000E-03 0.  1.
         11   -1    0    0    0    0 -0.00000000000E+00 -0.00000000000E+00 -0.45593999997E+02  0.45594000000E+02  0.51100000000E-03 0. -1.
    9900012    2    1    2    0    0 -0.16560680250E+02 -0.48791851345E+01  0.72536783705E+01  0.72461590098E+02  0.70000025798E+02 0.  0.
         12    1    1    2    0    0  0.16560680250E+02  0.48791851345E+01 -0.72536783705E+01  0.18726409902E+02  0.00000000000E+00 0. -1.
         11    1    3    3    0    0 -0.32965187449E+02  0.14021177964E+02  0.14303732054E+02  0.38573226025E+02  0.51100000000E-03 0. -1.
        -11    1    3    3    0    0  0.37583140670E+01  0.44988221444E+01 -0.40428183810E+01  0.71210045665E+01  0.51100000000E-03 0.  1.
         12    1    3    3    0    0  0.12646193133E+02 -0.23399185243E+02 -0.30072353023E+01  0.26767359507E+02  0.00000000000E+00 0. -1.
</event>
<event>
 7    1  0.1283194E-013  0.7246157E+02  0.7816164E-02  0.1226708E+00
        -11   -1    0    0    0    0  0.00000000000E+00  0.00000000000E+00  0.45593999997E+02  0.45594000000E+02  0.51100000000E-03 0. -1.
         11   -1    0    0    0    0 -0.00000000000E+00 -0.00000000000E+00 -0.45593999997E+02  0.45594000000E+02  0.51100000000E-03 0.  1.
    9900012    2    1    2    0    0  0.13755056068E+01 -0.15854935753E+01 -0.18608419694E+02  0.72461572442E+02  0.70000002798E+02 0.  0.
         12    1    1    2    0    0 -0.13755056068E+01  0.15854935753E+01  0.18608419694E+02  0.18726427558E+02  0.00000000000E+00 0. -1.
         11    1    3    3    0    0 -0.99776674841E+01  0.16485430611E+02  0.97461907956E+01  0.21594247061E+02  0.51100000000E-03 0. -1.
        -11    1    3    3    0    0  0.56056961033E+01 -0.87532062233E+01 -0.36028466188E+02  0.37497904263E+02  0.51100000000E-03 0.  1.
        -12    1    3    3    0    0  0.57474769876E+01 -0.93177179626E+01  0.76738556984E+01  0.13369421118E+02  0.00000000000E+00 0.  1.
</event>
<event>
 7    1  0.1283194E-013  0.7246151E+02  0.7816164E-02  0.1226708E+00
        -11   -1    0    0    0    0  0.00000000000E+00  0.00000000000E+00  0.45593999997E+02  0.45594000000E+02  0.51100000000E-03 0.  1.
         11   -1    0    0    0    0 -0.00000000000E+00 -0.00000000000E+00 -0.45593999997E+02  0.45594000000E+02  0.51100000000E-03 0. -1.
    9900012    2    1    2    0    0  0.68909110974E+00 -0.16379969639E+02  0.90500408704E+01  0.72461508292E+02  0.69999919231E+02 0.  0.
         12    1    1    2    0    0 -0.68909110974E+00  0.16379969639E+02 -0.90500408704E+01  0.18726491708E+02  0.00000000000E+00 0. -1.
         11    1    3    3    0    0  0.13407353597E+02 -0.33617031212E+01 -0.26741016273E+01  0.14078671746E+02  0.51100000000E-03 0. -1.
        -11    1    3    3    0    0 -0.30577828916E+02 -0.14701632337E+02  0.19159250207E+02  0.38964323211E+02  0.51100000000E-03 0.  1.
        -12    1    3    3    0    0  0.17859566429E+02  0.16833658191E+01 -0.74351077093E+01  0.19418513335E+02  0.00000000000E+00 0.  1.
</event>
<event>
 7    1  0.1283194E-013  0.7246195E+02  0.7816164E-02  0.1226707E+00
        -11   -1    0    0    0    0  0.00000000000E+00  0.00000000000E+00  0.45593999997E+02  0.45594000000E+02  0.51100000000E-03 0.  1.
         11   -1    0    0    0    0 -0.00000000000E+00 -0.00000000000E+00 -0.45593999997E+02  0.45594000000E+02  0.51100000000E-03 0. -1.
    9900012    2    1    2    0    0  0.18011884683E+02  0.27054412217E+01  0.43494188621E+01  0.72461952727E+02  0.70000498188E+02 0.  0.
         12    1    1    2    0    0 -0.18011884683E+02 -0.27054412217E+01 -0.43494188621E+01  0.18726047273E+02  0.00000000000E+00 0. -1.
         11    1    3    3    0    0  0.11515184684E+02  0.17267355887E+02 -0.20013141626E+01  0.20851050724E+02  0.51100000000E-03 0. -1.
        -11    1    3    3    0    0 -0.71873212238E+01 -0.10049582711E+02 -0.18875509138E+02  0.22559621994E+02  0.51100000000E-03 0.  1.
        -12    1    3    3    0    0  0.13684021223E+02 -0.45123319547E+01  0.25226242163E+02  0.29051280009E+02  0.00000000000E+00 0.  1.
</event>
<event>
 7    1  0.1283194E-013  0.7246157E+02  0.7816164E-02  0.1226708E+00
        -11   -1    0    0    0    0  0.00000000000E+00  0.00000000000E+00  0.45593999997E+02  0.45594000000E+02  0.51100000000E-03 0.  1.
         11   -1    0    0    0    0 -0.00000000000E+00 -0.00000000000E+00 -0.45593999997E+02  0.45594000000E+02  0.51100000000E-03 0. -1.
    9900012    2    1    2    0    0  0.15833613660E+02  0.76246214462E+01 -0.64684616310E+01  0.72461570292E+02  0.69999999998E+02 0.  0.
         12    1    1    2    0    0 -0.15833613660E+02 -0.76246214462E+01  0.64684616310E+01  0.18726429708E+02  0.00000000000E+00 0. -1.
         11    1    3    3    0    0  0.10580315619E+02 -0.29601962989E+02  0.23143614694E+01  0.31521033623E+02  0.51100000000E-03 0. -1.
        -11    1    3    3    0    0  0.91908431487E+01  0.24916565813E+02 -0.28200069600E+01  0.26706914633E+02  0.51100000000E-03 0.  1.
         12    1    3    3    0    0 -0.39375451082E+01  0.12310018622E+02 -0.59628161403E+01  0.14233622037E+02  0.00000000000E+00 0. -1.
</event>
<event>
 7    1  0.1283194E-013  0.7246153E+02  0.7816164E-02  0.1226708E+00
        -11   -1    0    0    0    0  0.00000000000E+00  0.00000000000E+00  0.45593999997E+02  0.45594000000E+02  0.51100000000E-03 0.  1.
         11   -1    0    0    0    0 -0.00000000000E+00 -0.00000000000E+00 -0.45593999997E+02  0.45594000000E+02  0.51100000000E-03 0. -1.
    9900012    2    1    2    0    0  0.34954561881E+01 -0.18379175352E+02 -0.81764534696E+00  0.72461525573E+02  0.69999941742E+02 0.  0.
         12    1    1    2    0    0 -0.34954561881E+01  0.18379175352E+02  0.81764534696E+00  0.18726474427E+02  0.00000000000E+00 0. -1.
         11    1    3    3    0    0  0.10513584796E+02 -0.28857243767E+02 -0.14294245690E+02  0.33876266666E+02  0.51100000000E-03 0.  1.
        -11    1    3    3    0    0  0.32676426390E+01  0.20109478116E+02  0.13596567679E+02  0.24493575718E+02  0.51100000000E-03 0. -1.
        -12    1    3    3    0    0 -0.10285771246E+02 -0.96314097004E+01 -0.11996733616E+00  0.14091683190E+02  0.00000000000E+00 0.  1.
</event>
<event>
 7    1  0.1283194E-013  0.7246167E+02  0.7816164E-02  0.1226708E+00
        -11   -1    0    0    0    0  0.00000000000E+00  0.00000000000E+00  0.45593999997E+02  0.45594000000E+02  0.51100000000E-03 0. -1.
         11   -1    0    0    0    0 -0.00000000000E+00 -0.00000000000E+00 -0.45593999997E+02  0.45594000000E+02  0.51100000000E-03 0.  1.
    9900012    2    1    2    0    0  0.23166312029E+00 -0.15861082266E+02 -0.99522860394E+01  0.72461665712E+02  0.70000124299E+02 0.  0.
         12    1    1    2    0    0 -0.23166312029E+00  0.15861082266E+02  0.99522860394E+01  0.18726334288E+02  0.00000000000E+00 0. -1.
         11    1    3    3    0    0 -0.62550824801E+01 -0.13618070261E+02 -0.24599386223E+01  0.15186480592E+02  0.51100000000E-03 0. -1.
        -11    1    3    3    0    0  0.25203743596E+02  0.95425499028E+01 -0.18381507146E+02  0.32621599518E+02  0.51100000000E-03 0.  1.
        -12    1    3    3    0    0 -0.18716997995E+02 -0.11785561908E+02  0.10889159729E+02  0.24653585602E+02  0.00000000000E+00 0.  1.
</event>
<event>
 7    1  0.1283194E-013  0.7246154E+02  0.7816164E-02  0.1226708E+00
        -11   -1    0    0    0    0  0.00000000000E+00  0.00000000000E+00  0.45593999997E+02  0.45594000000E+02  0.51100000000E-03 0. -1.
         11   -1    0    0    0    0 -0.00000000000E+00 -0.00000000000E+00 -0.45593999997E+02  0.45594000000E+02  0.51100000000E-03 0.  1.
    9900012    2    1    2    0    0  0.15897096358E+02 -0.87303019701E+01  0.46630966054E+01  0.72461539708E+02  0.69999960156E+02 0.  0.
         12    1    1    2    0    0 -0.15897096358E+02  0.87303019701E+01 -0.46630966054E+01  0.18726460292E+02  0.00000000000E+00 0. -1.
         11    1    3    3    0    0 -0.58612902540E+01  0.10859651742E+02  0.88154477842E+01  0.15165713940E+02  0.51100000000E-03 0. -1.
        -11    1    3    3    0    0  0.32686294033E+02 -0.28200219399E+02 -0.42909804640E+01  0.43382700531E+02  0.51100000000E-03 0.  1.
        -12    1    3    3    0    0 -0.10927907421E+02  0.86102656862E+01  0.13862928516E+00  0.13913125237E+02  0.00000000000E+00 0.  1.
</event>
<event>
 7    1  0.1283194E-013  0.7246155E+02  0.7816164E-02  0.1226708E+00
        -11   -1    0    0    0    0  0.00000000000E+00  0.00000000000E+00  0.45593999997E+02  0.45594000000E+02  0.51100000000E-03 0. -1.
         11   -1    0    0    0    0 -0.00000000000E+00 -0.00000000000E+00 -0.45593999997E+02  0.45594000000E+02  0.51100000000E-03 0.  1.
    9900012    2    1    2    0    0 -0.12370259372E+02 -0.35328276646E+01  0.13607931872E+02  0.72461548172E+02  0.69999971181E+02 0.  0.
         12    1    1    2    0    0  0.12370259372E+02  0.35328276646E+01 -0.13607931872E+02  0.18726451828E+02  0.00000000000E+00 0. -1.
         11    1    3    3    0    0  0.41295496141E+01  0.27118373582E+02  0.18476187037E+01  0.27493145707E+02  0.51100000000E-03 0. -1.
        -11    1    3    3    0    0 -0.17417482317E+02 -0.17490592751E+02 -0.33491869620E+01  0.24909969463E+02  0.51100000000E-03 0.  1.
         12    1    3    3    0    0  0.91767333107E+00 -0.13160608495E+02  0.15109500130E+02  0.20058433002E+02  0.00000000000E+00 0. -1.
</event>
<event>
 7    1  0.1283194E-013  0.7246153E+02  0.7816164E-02  0.1226708E+00
        -11   -1    0    0    0    0  0.00000000000E+00  0.00000000000E+00  0.45593999997E+02  0.45594000000E+02  0.51100000000E-03 0. -1.
         11   -1    0    0    0    0 -0.00000000000E+00 -0.00000000000E+00 -0.45593999997E+02  0.45594000000E+02  0.51100000000E-03 0.  1.
    9900012    2    1    2    0    0 -0.54834964229E+01 -0.55805692184E+01 -0.17013790688E+02  0.72461533185E+02  0.69999951658E+02 0.  0.
         12    1    1    2    0    0  0.54834964229E+01  0.55805692184E+01  0.17013790688E+02  0.18726466815E+02  0.00000000000E+00 0. -1.
         11    1    3    3    0    0  0.19783013926E+02 -0.42483930954E+01  0.10936822087E+02  0.23000664371E+02  0.51100000000E-03 0. -1.
        -11    1    3    3    0    0 -0.11862728973E+02  0.13637204014E+02 -0.22065482240E+02  0.28523379511E+02  0.51100000000E-03 0.  1.
        -12    1    3    3    0    0 -0.13403781376E+02 -0.14969380137E+02 -0.58851305345E+01  0.20937489302E+02  0.00000000000E+00 0.  1.
</event>
<event>
 7    1  0.1283194E-013  0.7246170E+02  0.7816164E-02  0.1226708E+00
        -11   -1    0    0    0    0  0.00000000000E+00  0.00000000000E+00  0.45593999997E+02  0.45594000000E+02  0.51100000000E-03 0.  1.
         11   -1    0    0    0    0 -0.00000000000E+00 -0.00000000000E+00 -0.45593999997E+02  0.45594000000E+02  0.51100000000E-03 0. -1.
    9900012    2    1    2    0    0  0.59916569566E+01 -0.87667078334E+01  0.15424625328E+02  0.72461703360E+02  0.70000173343E+02 0.  0.
         12    1    1    2    0    0 -0.59916569566E+01  0.87667078334E+01 -0.15424625328E+02  0.18726296640E+02  0.00000000000E+00 0. -1.
         11    1    3    3    0    0 -0.38072604741E+01  0.82798690960E+01 -0.13030284705E+02  0.15900936587E+02  0.51100000000E-03 0. -1.
        -11    1    3    3    0    0  0.13845439949E+02 -0.16158029519E+01  0.36226563811E+02  0.38815859547E+02  0.51100000000E-03 0.  1.
        -12    1    3    3    0    0 -0.40465225185E+01 -0.15430773977E+02 -0.77716537779E+01  0.17744907227E+02  0.00000000000E+00 0.  1.
</event>
<event>
 7    1  0.1283194E-013  0.7246118E+02  0.7816164E-02  0.1226709E+00
        -11   -1    0    0    0    0  0.00000000000E+00  0.00000000000E+00  0.45593999997E+02  0.45594000000E+02  0.51100000000E-03 0. -1.
         11   -1    0    0    0    0 -0.00000000000E+00 -0.00000000000E+00 -0.45593999997E+02  0.45594000000E+02  0.51100000000E-03 0.  1.
    9900012    2    1    2    0    0 -0.73664314182E+01 -0.13724033771E+02 -0.10396167523E+02  0.72461181959E+02  0.69999494119E+02 0.  0.
         12    1    1    2    0    0  0.73664314182E+01  0.13724033771E+02  0.10396167523E+02  0.18726818041E+02  0.00000000000E+00 0. -1.
         11    1    3    3    0    0  0.15045791741E+02 -0.26855296468E+02  0.10431265259E+02  0.32502216735E+02  0.51100000000E-03 0. -1.
        -11    1    3    3    0    0 -0.15645246803E+02  0.17545193769E+02 -0.80619614602E+01  0.24851615536E+02  0.51100000000E-03 0.  1.
         12    1    3    3    0    0 -0.67669763562E+01 -0.44139310711E+01 -0.12765471322E+02  0.15107349687E+02  0.00000000000E+00 0. -1.
</event>
<event>
 7    1  0.1283194E-013  0.7246126E+02  0.7816164E-02  0.1226709E+00
        -11   -1    0    0    0    0  0.00000000000E+00  0.00000000000E+00  0.45593999997E+02  0.45594000000E+02  0.51100000000E-03 0.  1.
         11   -1    0    0    0    0 -0.00000000000E+00 -0.00000000000E+00 -0.45593999997E+02  0.45594000000E+02  0.51100000000E-03 0. -1.
    9900012    2    1    2    0    0  0.14994347851E+01  0.18596401400E+02 -0.16175252431E+01  0.72461258756E+02  0.69999594162E+02 0.  0.
         12    1    1    2    0    0 -0.14994347851E+01 -0.18596401400E+02  0.16175252431E+01  0.18726741244E+02  0.00000000000E+00 0. -1.
         11    1    3    3    0    0  0.84643460479E+01 -0.15436450886E+01 -0.16301811529E+02  0.18433042439E+02  0.51100000000E-03 0. -1.
        -11    1    3    3    0    0 -0.27200687836E+02  0.11329100702E+02  0.11918358831E+02  0.31784795405E+02  0.51100000000E-03 0.  1.
        -12    1    3    3    0    0  0.20235776573E+02  0.88109457869E+01  0.27659274549E+01  0.22243420912E+02  0.00000000000E+00 0.  1.
</event>
<event>
 7    1  0.1283194E-013  0.7246160E+02  0.7816164E-02  0.1226708E+00
        -11   -1    0    0    0    0  0.00000000000E+00  0.00000000000E+00  0.45593999997E+02  0.45594000000E+02  0.51100000000E-03 0. -1.
         11   -1    0    0    0    0 -0.00000000000E+00 -0.00000000000E+00 -0.45593999997E+02  0.45594000000E+02  0.51100000000E-03 0.  1.
    9900012    2    1    2    0    0  0.16973049927E+02 -0.12608515889E+01 -0.78105050931E+01  0.72461597239E+02  0.70000035100E+02 0.  0.
         12    1    1    2    0    0 -0.16973049927E+02  0.12608515889E+01  0.78105050931E+01  0.18726402761E+02  0.00000000000E+00 0. -1.
         11    1    3    3    0    0 -0.50040267956E+01 -0.98453211661E+01  0.13713440821E+02  0.17607643012E+02  0.51100000000E-03 0. -1.
        -11    1    3    3    0    0  0.25365689231E+02 -0.11369560315E+02 -0.20590578574E+02  0.34592730713E+02  0.51100000000E-03 0.  1.
        -12    1    3    3    0    0 -0.33886125081E+01  0.19954029893E+02 -0.93336734043E+00  0.20261223514E+02  0.00000000000E+00 0.  1.
</event>
<event>
 7    1  0.1283194E-013  0.7246156E+02  0.7816164E-02  0.1226708E+00
        -11   -1    0    0    0    0  0.00000000000E+00  0.00000000000E+00  0.45593999997E+02  0.45594000000E+02  0.51100000000E-03 0. -1.
         11   -1    0    0    0    0 -0.00000000000E+00 -0.00000000000E+00 -0.45593999997E+02  0.45594000000E+02  0.51100000000E-03 0.  1.
    9900012    2    1    2    0    0 -0.53594527393E+01  0.83984413941E+01 -0.15856290956E+02  0.72461561086E+02  0.69999988004E+02 0.  0.
         12    1    1    2    0    0  0.53594527393E+01 -0.83984413941E+01  0.15856290956E+02  0.18726438914E+02  0.00000000000E+00 0. -1.
         11    1    3    3    0    0  0.68908359380E+01 -0.32113073669E+01  0.11439494757E+02  0.13735288693E+02  0.51100000000E-03 0. -1.
        -11    1    3    3    0    0 -0.29182829719E+02  0.73271563097E+01 -0.51569553868E+01  0.30527347725E+02  0.51100000000E-03 0.  1.
        -12    1    3    3    0    0  0.16932541041E+02  0.42825924513E+01 -0.22138830326E+02  0.28198924668E+02  0.00000000000E+00 0.  1.
</event>
<event>
 7    1  0.1283194E-013  0.7246159E+02  0.7816164E-02  0.1226708E+00
        -11   -1    0    0    0    0  0.00000000000E+00  0.00000000000E+00  0.45593999997E+02  0.45594000000E+02  0.51100000000E-03 0.  1.
         11   -1    0    0    0    0 -0.00000000000E+00 -0.00000000000E+00 -0.45593999997E+02  0.45594000000E+02  0.51100000000E-03 0. -1.
    9900012    2    1    2    0    0  0.15783809121E+02  0.83138589706E+01 -0.56946919346E+01  0.72461590905E+02  0.70000026849E+02 0.  0.
         12    1    1    2    0    0 -0.15783809121E+02 -0.83138589706E+01  0.56946919346E+01  0.18726409095E+02  0.00000000000E+00 0. -1.
         11    1    3    3    0    0  0.13104492720E+02 -0.44722315724E+01 -0.35992690879E+02  0.38564263012E+02  0.51100000000E-03 0. -1.
        -11    1    3    3    0    0  0.42655201337E+01  0.87624748640E+01  0.14158163576E+02  0.17188054685E+02  0.51100000000E-03 0.  1.
         12    1    3    3    0    0 -0.15862037319E+01  0.40236156790E+01  0.16139835369E+02  0.16709273208E+02  0.00000000000E+00 0. -1.
</event>
<event>
 7    1  0.1283194E-013  0.7246166E+02  0.7816164E-02  0.1226708E+00
        -11   -1    0    0    0    0  0.00000000000E+00  0.00000000000E+00  0.45593999997E+02  0.45594000000E+02  0.51100000000E-03 0.  1.
         11   -1    0    0    0    0 -0.00000000000E+00 -0.00000000000E+00 -0.45593999997E+02  0.45594000000E+02  0.51100000000E-03 0. -1.
    9900012    2    1    2    0    0  0.20114292131E+01  0.13205716103E+02  0.13123992409E+02  0.72461655935E+02  0.70000111563E+02 0.  0.
         12    1    1    2    0    0 -0.20114292131E+01 -0.13205716103E+02 -0.13123992409E+02  0.18726344065E+02  0.00000000000E+00 0. -1.
         11    1    3    3    0    0  0.40387270788E+01  0.33024467965E+02  0.33789254347E+01  0.33441649752E+02  0.51100000000E-03 0. -1.
        -11    1    3    3    0    0 -0.51683155439E+01 -0.20726143703E+02 -0.65952599134E+01  0.22355803988E+02  0.51100000000E-03 0.  1.
        -12    1    3    3    0    0  0.31410176782E+01  0.90739184042E+00  0.16340326888E+02  0.16664202195E+02  0.00000000000E+00 0.  1.
</event>
<event>
 7    1  0.1283194E-013  0.7246156E+02  0.7816164E-02  0.1226708E+00
        -11   -1    0    0    0    0  0.00000000000E+00  0.00000000000E+00  0.45593999997E+02  0.45594000000E+02  0.51100000000E-03 0. -1.
         11   -1    0    0    0    0 -0.00000000000E+00 -0.00000000000E+00 -0.45593999997E+02  0.45594000000E+02  0.51100000000E-03 0.  1.
    9900012    2    1    2    0    0 -0.73160569895E+01 -0.29381657795E+01 -0.16985932895E+02  0.72461563491E+02  0.69999991137E+02 0.  0.
         12    1    1    2    0    0  0.73160569895E+01  0.29381657795E+01  0.16985932895E+02  0.18726436509E+02  0.00000000000E+00 0. -1.
         11    1    3    3    0    0  0.24843326813E+02  0.12721282011E+00 -0.55722738990E+01  0.25460897606E+02  0.51100000000E-03 0. -1.
        -11    1    3    3    0    0 -0.18492095601E+02 -0.82963933078E+01  0.87584361470E+01  0.22079355644E+02  0.51100000000E-03 0.  1.
         12    1    3    3    0    0 -0.13667288202E+02  0.52310147081E+01 -0.20172095143E+02  0.24921310241E+02  0.00000000000E+00 0. -1.
</event>
<event>
 7    1  0.1283194E-013  0.7246160E+02  0.7816164E-02  0.1226708E+00
        -11   -1    0    0    0    0  0.00000000000E+00  0.00000000000E+00  0.45593999997E+02  0.45594000000E+02  0.51100000000E-03 0. -1.
         11   -1    0    0    0    0 -0.00000000000E+00 -0.00000000000E+00 -0.45593999997E+02  0.45594000000E+02  0.51100000000E-03 0.  1.
    9900012    2    1    2    0    0 -0.11074768763E+02 -0.92982272514E+01 -0.11898341676E+02  0.72461599710E+02  0.70000038320E+02 0.  0.
         12    1    1    2    0    0  0.11074768763E+02  0.92982272514E+01  0.11898341676E+02  0.18726400290E+02  0.00000000000E+00 0. -1.
         11    1    3    3    0    0 -0.27312662168E+02  0.12681747418E+01  0.12913291114E+02  0.30238102942E+02  0.51100000000E-03 0. -1.
        -11    1    3    3    0    0  0.93034701755E+01  0.17664912631E+01 -0.26341826408E+02  0.27992264421E+02  0.51100000000E-03 0.  1.
        -12    1    3    3    0    0  0.69344232295E+01 -0.12332893256E+02  0.15301936177E+01  0.14231232347E+02  0.00000000000E+00 0.  1.
</event>
<event>
 7    1  0.1283194E-013  0.7246150E+02  0.7816164E-02  0.1226708E+00
        -11   -1    0    0    0    0  0.00000000000E+00  0.00000000000E+00  0.45593999997E+02  0.45594000000E+02  0.51100000000E-03 0.  1.
         11   -1    0    0    0    0 -0.00000000000E+00 -0.00000000000E+00 -0.45593999997E+02  0.45594000000E+02  0.51100000000E-03 0. -1.
    9900012    2    1    2    0    0  0.11532938266E+02 -0.14166768985E+02  0.41201608214E+01  0.72461501830E+02  0.69999910812E+02 0.  0.
         12    1    1    2    0    0 -0.11532938266E+02  0.14166768985E+02 -0.41201608214E+01  0.18726498170E+02  0.00000000000E+00 0. -1.
         11    1    3    3    0    0  0.13581667292E+02 -0.68339660768E+01 -0.17619350562E+02  0.23272436342E+02  0.51100000000E-03 0. -1.
        -11    1    3    3    0    0 -0.19633696700E+02 -0.14727019110E+02  0.85197971966E+01  0.25979878416E+02  0.51100000000E-03 0.  1.
        -12    1    3    3    0    0  0.17584967674E+02  0.73942162021E+01  0.13219714187E+02  0.23209187072E+02  0.00000000000E+00 0.  1.
</event>
<event>
 7    1  0.1283194E-013  0.7246168E+02  0.7816164E-02  0.1226708E+00
        -11   -1    0    0    0    0  0.00000000000E+00  0.00000000000E+00  0.45593999997E+02  0.45594000000E+02  0.51100000000E-03 0. -1.
         11   -1    0    0    0    0 -0.00000000000E+00 -0.00000000000E+00 -0.45593999997E+02  0.45594000000E+02  0.51100000000E-03 0.  1.
    9900012    2    1    2    0    0 -0.50585221226E+01 -0.18029422777E+02  0.16274428041E+00  0.72461675816E+02  0.70000137462E+02 0.  0.
         12    1    1    2    0    0  0.50585221226E+01  0.18029422777E+02 -0.16274428041E+00  0.18726324184E+02  0.00000000000E+00 0. -1.
         11    1    3    3    0    0  0.21477427655E+02 -0.53333983160E+01 -0.22360793529E+02  0.31459976539E+02  0.51100000000E-03 0.  1.
        -11    1    3    3    0    0 -0.19548330085E+02 -0.13787923402E+02  0.23879453686E+02  0.33800478539E+02  0.51100000000E-03 0. -1.
         12    1    3    3    0    0 -0.69876196926E+01  0.10918989412E+01 -0.13559158758E+01  0.72012207388E+01  0.00000000000E+00 0. -1.
</event>
<event>
 7    1  0.1283194E-013  0.7246077E+02  0.7816164E-02  0.1226710E+00
        -11   -1    0    0    0    0  0.00000000000E+00  0.00000000000E+00  0.45593999997E+02  0.45594000000E+02  0.51100000000E-03 0.  1.
         11   -1    0    0    0    0 -0.00000000000E+00 -0.00000000000E+00 -0.45593999997E+02  0.45594000000E+02  0.51100000000E-03 0. -1.
    9900012    2    1    2    0    0 -0.54467069153E+00  0.10781687353E+02  0.15302543902E+02  0.72460765869E+02  0.69998952078E+02 0.  0.
         12    1    1    2    0    0  0.54467069153E+00 -0.10781687353E+02 -0.15302543902E+02  0.18727234131E+02  0.00000000000E+00 0. -1.
         11    1    3    3    0    0  0.20470475735E+02  0.90922827079E+01  0.14253459985E+01  0.22444188405E+02  0.51100000000E-03 0. -1.
        -11    1    3    3    0    0 -0.24347934252E+02  0.37477184105E+01  0.26865597903E+02  0.36450344944E+02  0.51100000000E-03 0.  1.
        -12    1    3    3    0    0  0.33327878258E+01 -0.20583137657E+01 -0.12988399999E+02  0.13566232520E+02  0.00000000000E+00 0.  1.
</event>
<event>
 7    1  0.1283194E-013  0.7246156E+02  0.7816164E-02  0.1226708E+00
        -11   -1    0    0    0    0  0.00000000000E+00  0.00000000000E+00  0.45593999997E+02  0.45594000000E+02  0.51100000000E-03 0. -1.
         11   -1    0    0    0    0 -0.00000000000E+00 -0.00000000000E+00 -0.45593999997E+02  0.45594000000E+02  0.51100000000E-03 0.  1.
    9900012    2    1    2    0    0 -0.18215243773E+02 -0.12265211194E+00 -0.43439018646E+01  0.72461557929E+02  0.69999983892E+02 0.  0.
         12    1    1    2    0    0  0.18215243773E+02  0.12265211194E+00  0.43439018646E+01  0.18726442071E+02  0.00000000000E+00 0. -1.
         11    1    3    3    0    0  0.92844342595E+01 -0.14249046486E+02 -0.12571217771E+02  0.21148795752E+02  0.51100000000E-03 0. -1.
        -11    1    3    3    0    0  0.87438791252E+00  0.20401573907E+02 -0.19716998967E+01  0.20515271699E+02  0.51100000000E-03 0.  1.
        -12    1    3    3    0    0 -0.28374065945E+02 -0.62751795338E+01  0.10199015803E+02  0.30797490478E+02  0.00000000000E+00 0.  1.
</event>
<event>
 7    1  0.1283194E-013  0.7246158E+02  0.7816164E-02  0.1226708E+00
        -11   -1    0    0    0    0  0.00000000000E+00  0.00000000000E+00  0.45593999997E+02  0.45594000000E+02  0.51100000000E-03 0. -1.
         11   -1    0    0    0    0 -0.00000000000E+00 -0.00000000000E+00 -0.45593999997E+02  0.45594000000E+02  0.51100000000E-03 0.  1.
    9900012    2    1    2    0    0 -0.38788901252E+01 -0.17235290538E+02  0.62111115490E+01  0.72461576551E+02  0.70000008150E+02 0.  0.
         12    1    1    2    0    0  0.38788901252E+01  0.17235290538E+02 -0.62111115490E+01  0.18726423449E+02  0.00000000000E+00 0. -1.
         11    1    3    3    0    0 -0.10379537427E+02 -0.31070889510E+01  0.28624520769E+02  0.30606404370E+02  0.51100000000E-03 0. -1.
        -11    1    3    3    0    0  0.15018496524E+02 -0.18889482639E+01 -0.24562386477E+00  0.15138814179E+02  0.51100000000E-03 0.  1.
         12    1    3    3    0    0 -0.85178492226E+01 -0.12239253323E+02 -0.22167785355E+02  0.26716358001E+02  0.00000000000E+00 0. -1.
</event>
<event>
 7    1  0.1283194E-013  0.7246150E+02  0.7816164E-02  0.1226708E+00
        -11   -1    0    0    0    0  0.00000000000E+00  0.00000000000E+00  0.45593999997E+02  0.45594000000E+02  0.51100000000E-03 0. -1.
         11   -1    0    0    0    0 -0.00000000000E+00 -0.00000000000E+00 -0.45593999997E+02  0.45594000000E+02  0.51100000000E-03 0.  1.
    9900012    2    1    2    0    0 -0.29504202751E+01  0.60083380871E+01  0.17489330443E+02  0.72461500441E+02  0.69999909003E+02 0.  0.
         12    1    1    2    0    0  0.29504202751E+01 -0.60083380871E+01 -0.17489330443E+02  0.18726499559E+02  0.00000000000E+00 0. -1.
         11    1    3    3    0    0  0.13136918058E+02 -0.89701320370E+01  0.11909489221E+02  0.19871532870E+02  0.51100000000E-03 0. -1.
        -11    1    3    3    0    0 -0.19947599873E+02  0.28144489212E+02  0.13152143934E+02  0.36918801498E+02  0.51100000000E-03 0.  1.
        -12    1    3    3    0    0  0.38602615402E+01 -0.13166019087E+02 -0.75723027113E+01  0.15671166074E+02  0.00000000000E+00 0.  1.
</event>
<event>
 7    1  0.1283194E-013  0.7246156E+02  0.7816164E-02  0.1226708E+00
        -11   -1    0    0    0    0  0.00000000000E+00  0.00000000000E+00  0.45593999997E+02  0.45594000000E+02  0.51100000000E-03 0.  1.
         11   -1    0    0    0    0 -0.00000000000E+00 -0.00000000000E+00 -0.45593999997E+02  0.45594000000E+02  0.51100000000E-03 0. -1.
    9900012    2    1    2    0    0 -0.14845820313E+02 -0.11070222134E+02 -0.27805535663E+01  0.72461556745E+02  0.69999982349E+02 0.  0.
         12    1    1    2    0    0  0.14845820313E+02  0.11070222134E+02  0.27805535663E+01  0.18726443255E+02  0.00000000000E+00 0. -1.
         11    1    3    3    0    0 -0.30142790436E+02  0.55829904650E+01 -0.52889978585E+00  0.30660028262E+02  0.51100000000E-03 0. -1.
        -11    1    3    3    0    0  0.16249996427E+02  0.47731333879E+01 -0.91778222895E+01  0.19263374794E+02  0.51100000000E-03 0.  1.
        -12    1    3    3    0    0 -0.95302630406E+00 -0.21426345987E+02  0.69261685090E+01  0.22538153689E+02  0.00000000000E+00 0.  1.
</event>
<event>
 7    1  0.1283194E-013  0.7246155E+02  0.7816164E-02  0.1226708E+00
        -11   -1    0    0    0    0  0.00000000000E+00  0.00000000000E+00  0.45593999997E+02  0.45594000000E+02  0.51100000000E-03 0.  1.
         11   -1    0    0    0    0 -0.00000000000E+00 -0.00000000000E+00 -0.45593999997E+02  0.45594000000E+02  0.51100000000E-03 0. -1.
    9900012    2    1    2    0    0 -0.85581018689E+01  0.13531349795E+02 -0.97129539691E+01  0.72461547862E+02  0.69999970778E+02 0.  0.
         12    1    1    2    0    0  0.85581018689E+01 -0.13531349795E+02  0.97129539691E+01  0.18726452138E+02  0.00000000000E+00 0. -1.
         11    1    3    3    0    0  0.12998182298E+02  0.29542300677E+02 -0.59970508692E+01  0.32827806684E+02  0.51100000000E-03 0. -1.
        -11    1    3    3    0    0 -0.21270698785E+02 -0.21142745061E+02 -0.99091239607E+01  0.31585582684E+02  0.51100000000E-03 0.  1.
         12    1    3    3    0    0 -0.28558538165E+00  0.51317941795E+01  0.61932208607E+01  0.80481584938E+01  0.00000000000E+00 0. -1.
</event>
<event>
 7    1  0.1283194E-013  0.7246149E+02  0.7816164E-02  0.1226708E+00
        -11   -1    0    0    0    0  0.00000000000E+00  0.00000000000E+00  0.45593999997E+02  0.45594000000E+02  0.51100000000E-03 0.  1.
         11   -1    0    0    0    0 -0.00000000000E+00 -0.00000000000E+00 -0.45593999997E+02  0.45594000000E+02  0.51100000000E-03 0. -1.
    9900012    2    1    2    0    0 -0.78128005872E+01 -0.15163564301E+02 -0.77271378628E+01  0.72461489517E+02  0.69999894772E+02 0.  0.
         12    1    1    2    0    0  0.78128005872E+01  0.15163564301E+02  0.77271378628E+01  0.18726510483E+02  0.00000000000E+00 0. -1.
         11    1    3    3    0    0 -0.26874609698E+01 -0.27645379697E+02  0.56899738633E+01  0.28352517840E+02  0.51100000000E-03 0. -1.
        -11    1    3    3    0    0 -0.11773203014E+02  0.14844868698E+02  0.87328916142E+01  0.20862450289E+02  0.51100000000E-03 0.  1.
        -12    1    3    3    0    0  0.66478633965E+01 -0.23630533023E+01 -0.22150003340E+02  0.23246521388E+02  0.00000000000E+00 0.  1.
</event>
<event>
 7    1  0.1283194E-013  0.7246153E+02  0.7816164E-02  0.1226708E+00
        -11   -1    0    0    0    0  0.00000000000E+00  0.00000000000E+00  0.45593999997E+02  0.45594000000E+02  0.51100000000E-03 0. -1.
         11   -1    0    0    0    0 -0.00000000000E+00 -0.00000000000E+00 -0.45593999997E+02  0.45594000000E+02  0.51100000000E-03 0.  1.
    9900012    2    1    2    0    0 -0.17688166278E+02  0.39745493538E+01 -0.46917581974E+01  0.72461525056E+02  0.69999941069E+02 0.  0.
         12    1    1    2    0    0  0.17688166278E+02 -0.39745493538E+01  0.46917581974E+01  0.18726474944E+02  0.00000000000E+00 0. -1.
         11    1    3    3    0    0 -0.10071882097E+01 -0.10223748188E+02  0.19441814163E+02  0.21989169909E+02  0.51100000000E-03 0. -1.
        -11    1    3    3    0    0 -0.24800715228E+02  0.80509360265E+01 -0.20520149063E+01  0.26155378264E+02  0.51100000000E-03 0.  1.
         12    1    3    3    0    0  0.81197371596E+01  0.61473615152E+01 -0.22081557454E+02  0.24316976883E+02  0.00000000000E+00 0. -1.
</event>
<event>
 7    1  0.1283194E-013  0.7246162E+02  0.7816164E-02  0.1226708E+00
        -11   -1    0    0    0    0  0.00000000000E+00  0.00000000000E+00  0.45593999997E+02  0.45594000000E+02  0.51100000000E-03 0. -1.
         11   -1    0    0    0    0 -0.00000000000E+00 -0.00000000000E+00 -0.45593999997E+02  0.45594000000E+02  0.51100000000E-03 0.  1.
    9900012    2    1    2    0    0 -0.30124100586E+01 -0.64725041801E+01 -0.17312118717E+02  0.72461618096E+02  0.70000062271E+02 0.  0.
         12    1    1    2    0    0  0.30124100586E+01  0.64725041801E+01  0.17312118717E+02  0.18726381904E+02  0.00000000000E+00 0. -1.
         11    1    3    3    0    0 -0.26363363719E+01 -0.12428740521E+02  0.21883296675E+02  0.25304199928E+02  0.51100000000E-03 0. -1.
        -11    1    3    3    0    0  0.89458381819E+01 -0.59190427993E+01 -0.20412319097E+02  0.23059181677E+02  0.51100000000E-03 0.  1.
         12    1    3    3    0    0 -0.93219118686E+01  0.11875279140E+02 -0.18783096295E+02  0.24098236491E+02  0.00000000000E+00 0. -1.
</event>
<event>
 7    1  0.1283194E-013  0.7246169E+02  0.7816164E-02  0.1226708E+00
        -11   -1    0    0    0    0  0.00000000000E+00  0.00000000000E+00  0.45593999997E+02  0.45594000000E+02  0.51100000000E-03 0. -1.
         11   -1    0    0    0    0 -0.00000000000E+00 -0.00000000000E+00 -0.45593999997E+02  0.45594000000E+02  0.51100000000E-03 0.  1.
    9900012    2    1    2    0    0  0.15037597772E+02  0.10986859680E+02 -0.19581586460E+01  0.72461686490E+02  0.70000151366E+02 0.  0.
         12    1    1    2    0    0 -0.15037597772E+02 -0.10986859680E+02  0.19581586460E+01  0.18726313510E+02  0.00000000000E+00 0. -1.
         11    1    3    3    0    0  0.12617875685E+01 -0.66239731944E+01  0.12273281092E+02  0.14003662299E+02  0.51100000000E-03 0. -1.
        -11    1    3    3    0    0  0.85864420913E+01  0.32214242787E+02 -0.23139495247E+02  0.40582270349E+02  0.51100000000E-03 0.  1.
        -12    1    3    3    0    0  0.51893681127E+01 -0.14603409913E+02  0.89080555090E+01  0.17875753842E+02  0.00000000000E+00 0.  1.
</event>
<event>
 7    1  0.1283194E-013  0.7246157E+02  0.7816164E-02  0.1226708E+00
        -11   -1    0    0    0    0  0.00000000000E+00  0.00000000000E+00  0.45593999997E+02  0.45594000000E+02  0.51100000000E-03 0.  1.
         11   -1    0    0    0    0 -0.00000000000E+00 -0.00000000000E+00 -0.45593999997E+02  0.45594000000E+02  0.51100000000E-03 0. -1.
    9900012    2    1    2    0    0 -0.90729043405E+01 -0.96873755917E+00  0.16353073156E+02  0.72461573558E+02  0.70000004252E+02 0.  0.
         12    1    1    2    0    0  0.90729043405E+01  0.96873755917E+00 -0.16353073156E+02  0.18726426442E+02  0.00000000000E+00 0. -1.
         11    1    3    3    0    0  0.15572850751E+02 -0.14941099477E+02 -0.13399503417E+02  0.25402693285E+02  0.51100000000E-03 0. -1.
        -11    1    3    3    0    0 -0.15182095421E+02 -0.23095326121E+01  0.21683096565E+02  0.26570409089E+02  0.51100000000E-03 0.  1.
         12    1    3    3    0    0 -0.94636596703E+01  0.16281894530E+02  0.80694800075E+01  0.20488471183E+02  0.00000000000E+00 0. -1.
</event>
<event>
 7    1  0.1283194E-013  0.7246183E+02  0.7816164E-02  0.1226707E+00
        -11   -1    0    0    0    0  0.00000000000E+00  0.00000000000E+00  0.45593999997E+02  0.45594000000E+02  0.51100000000E-03 0.  1.
         11   -1    0    0    0    0 -0.00000000000E+00 -0.00000000000E+00 -0.45593999997E+02  0.45594000000E+02  0.51100000000E-03 0. -1.
    9900012    2    1    2    0    0 -0.11960962507E+02 -0.13539286322E+02 -0.49287581660E+01  0.72461826999E+02  0.70000334405E+02 0.  0.
         12    1    1    2    0    0  0.11960962507E+02  0.13539286322E+02  0.49287581660E+01  0.18726173001E+02  0.00000000000E+00 0. -1.
         11    1    3    3    0    0  0.14167966365E+01 -0.79564533137E+01 -0.14138757811E+02  0.16285482331E+02  0.51100000000E-03 0. -1.
        -11    1    3    3    0    0 -0.34055895822E+02 -0.60072086587E+01  0.37438072810E+01  0.34783712989E+02  0.51100000000E-03 0.  1.
        -12    1    3    3    0    0  0.20678136679E+02  0.42437565023E+00  0.54661923639E+01  0.21392631679E+02  0.00000000000E+00 0.  1.
</event>
<event>
 7    1  0.1283194E-013  0.7246157E+02  0.7816164E-02  0.1226708E+00
        -11   -1    0    0    0    0  0.00000000000E+00  0.00000000000E+00  0.45593999997E+02  0.45594000000E+02  0.51100000000E-03 0.  1.
         11   -1    0    0    0    0 -0.00000000000E+00 -0.00000000000E+00 -0.45593999997E+02  0.45594000000E+02  0.51100000000E-03 0. -1.
    9900012    2    1    2    0    0 -0.10483920928E+02  0.82560018195E+01  0.13137925858E+02  0.72461567881E+02  0.69999996856E+02 0.  0.
         12    1    1    2    0    0  0.10483920928E+02 -0.82560018195E+01 -0.13137925858E+02  0.18726432119E+02  0.00000000000E+00 0. -1.
         11    1    3    3    0    0  0.18445656045E+02  0.62437149829E+01 -0.14164135192E+02  0.24080052527E+02  0.51100000000E-03 0. -1.
        -11    1    3    3    0    0 -0.20510556263E+00  0.17002158312E+01  0.18152970424E+02  0.18233571719E+02  0.51100000000E-03 0.  1.
         12    1    3    3    0    0 -0.28724471410E+02  0.31207100538E+00  0.91490906257E+01  0.30147943634E+02  0.00000000000E+00 0. -1.
</event>
<event>
 7    1  0.1283194E-013  0.7246159E+02  0.7816164E-02  0.1226708E+00
        -11   -1    0    0    0    0  0.00000000000E+00  0.00000000000E+00  0.45593999997E+02  0.45594000000E+02  0.51100000000E-03 0. -1.
         11   -1    0    0    0    0 -0.00000000000E+00 -0.00000000000E+00 -0.45593999997E+02  0.45594000000E+02  0.51100000000E-03 0.  1.
    9900012    2    1    2    0    0  0.69386260195E+01  0.16936083713E+02  0.39626980678E+01  0.72461589811E+02  0.70000025425E+02 0.  0.
         12    1    1    2    0    0 -0.69386260195E+01 -0.16936083713E+02 -0.39626980678E+01  0.18726410189E+02  0.00000000000E+00 0. -1.
         11    1    3    3    0    0 -0.83190723476E+01  0.39864819066E+01  0.19202474616E+02  0.21303380820E+02  0.51100000000E-03 0. -1.
        -11    1    3    3    0    0 -0.38043456230E+00 -0.69389645246E+01 -0.23529608450E+02  0.24534392864E+02  0.51100000000E-03 0.  1.
        -12    1    3    3    0    0  0.15638132929E+02  0.19888566331E+02  0.82898319017E+01  0.26623816127E+02  0.00000000000E+00 0.  1.
</event>
<event>
 7    1  0.1283194E-013  0.7246154E+02  0.7816164E-02  0.1226708E+00
        -11   -1    0    0    0    0  0.00000000000E+00  0.00000000000E+00  0.45593999997E+02  0.45594000000E+02  0.51100000000E-03 0.  1.
         11   -1    0    0    0    0 -0.00000000000E+00 -0.00000000000E+00 -0.45593999997E+02  0.45594000000E+02  0.51100000000E-03 0. -1.
    9900012    2    1    2    0    0 -0.14618988432E+01  0.18290614246E+02  0.37412108460E+01  0.72461538072E+02  0.69999958025E+02 0.  0.
         12    1    1    2    0    0  0.14618988432E+01 -0.18290614246E+02 -0.37412108460E+01  0.18726461928E+02  0.00000000000E+00 0. -1.
         11    1    3    3    0    0 -0.14899131960E+01 -0.16803772484E+02 -0.48126276140E+01  0.17542747671E+02  0.51100000000E-03 0. -1.
        -11    1    3    3    0    0  0.75403689683E+01  0.35086035284E+02  0.20108409215E+02  0.41136785941E+02  0.51100000000E-03 0.  1.
        -12    1    3    3    0    0 -0.75123546155E+01  0.83514471787E-02 -0.11554570755E+02  0.13782004461E+02  0.00000000000E+00 0.  1.
</event>
<event>
 7    1  0.1283194E-013  0.7246158E+02  0.7816164E-02  0.1226708E+00
        -11   -1    0    0    0    0  0.00000000000E+00  0.00000000000E+00  0.45593999997E+02  0.45594000000E+02  0.51100000000E-03 0. -1.
         11   -1    0    0    0    0 -0.00000000000E+00 -0.00000000000E+00 -0.45593999997E+02  0.45594000000E+02  0.51100000000E-03 0.  1.
    9900012    2    1    2    0    0 -0.13996962688E+02 -0.16673747160E+01 -0.12328172494E+02  0.72461576423E+02  0.70000007984E+02 0.  0.
         12    1    1    2    0    0  0.13996962688E+02  0.16673747160E+01  0.12328172494E+02  0.18726423577E+02  0.00000000000E+00 0. -1.
         11    1    3    3    0    0 -0.27872807071E+02  0.13300599958E+02  0.11044213797E+02  0.32798993764E+02  0.51100000000E-03 0. -1.
        -11    1    3    3    0    0  0.13753773280E+02 -0.11981895261E+01 -0.15962506122E+01  0.13897839899E+02  0.51100000000E-03 0.  1.
         12    1    3    3    0    0  0.12207110194E+00 -0.13769785148E+02 -0.21776135679E+02  0.25764742760E+02  0.00000000000E+00 0. -1.
</event>
<event>
 7    1  0.1283194E-013  0.7246157E+02  0.7816164E-02  0.1226708E+00
        -11   -1    0    0    0    0  0.00000000000E+00  0.00000000000E+00  0.45593999997E+02  0.45594000000E+02  0.51100000000E-03 0. -1.
         11   -1    0    0    0    0 -0.00000000000E+00 -0.00000000000E+00 -0.45593999997E+02  0.45594000000E+02  0.51100000000E-03 0.  1.
    9900012    2    1    2    0    0  0.13994049719E+02 -0.17416390238E+01 -0.12321221209E+02  0.72461568783E+02  0.69999998031E+02 0.  0.
         12    1    1    2    0    0 -0.13994049719E+02  0.17416390238E+01  0.12321221209E+02  0.18726431217E+02  0.00000000000E+00 0. -1.
         11    1    3    3    0    0  0.31331330601E+01  0.16209700675E+02  0.11331428218E+02  0.20024289862E+02  0.51100000000E-03 0. -1.
        -11    1    3    3    0    0 -0.83589270562E+01 -0.90456138919E+01 -0.28199555900E+02  0.30771898632E+02  0.51100000000E-03 0.  1.
         12    1    3    3    0    0  0.19219843716E+02 -0.89057258070E+01  0.45469064729E+01  0.21665380289E+02  0.00000000000E+00 0. -1.
</event>
<event>
 7    1  0.1283194E-013  0.7246155E+02  0.7816164E-02  0.1226708E+00
        -11   -1    0    0    0    0  0.00000000000E+00  0.00000000000E+00  0.45593999997E+02  0.45594000000E+02  0.51100000000E-03 0. -1.
         11   -1    0    0    0    0 -0.00000000000E+00 -0.00000000000E+00 -0.45593999997E+02  0.45594000000E+02  0.51100000000E-03 0.  1.
    9900012    2    1    2    0    0 -0.20601351477E+01 -0.16945286116E+02 -0.77002025992E+01  0.72461548162E+02  0.69999971168E+02 0.  0.
         12    1    1    2    0    0  0.20601351477E+01  0.16945286116E+02  0.77002025992E+01  0.18726451838E+02  0.00000000000E+00 0. -1.
         11    1    3    3    0    0 -0.47294639234E+01  0.13122676575E+02 -0.15941135102E+02  0.21182357237E+02  0.51100000000E-03 0.  1.
        -11    1    3    3    0    0  0.21486912633E+02 -0.15192920727E+02  0.14775334576E+01  0.26357074195E+02  0.51100000000E-03 0. -1.
         12    1    3    3    0    0 -0.18817583858E+02 -0.14875041964E+02  0.67633990454E+01  0.24922116731E+02  0.00000000000E+00 0. -1.
</event>
<event>
 7    1  0.1283194E-013  0.7246150E+02  0.7816164E-02  0.1226708E+00
        -11   -1    0    0    0    0  0.00000000000E+00  0.00000000000E+00  0.45593999997E+02  0.45594000000E+02  0.51100000000E-03 0. -1.
         11   -1    0    0    0    0 -0.00000000000E+00 -0.00000000000E+00 -0.45593999997E+02  0.45594000000E+02  0.51100000000E-03 0.  1.
    9900012    2    1    2    0    0 -0.14511180052E+02  0.46620606709E+01 -0.10879922997E+02  0.72461497907E+02  0.69999905702E+02 0.  0.
         12    1    1    2    0    0  0.14511180052E+02 -0.46620606709E+01  0.10879922997E+02  0.18726502093E+02  0.00000000000E+00 0. -1.
         11    1    3    3    0    0  0.67134771013E+01 -0.78305477286E+01  0.14211005517E+02  0.17559639250E+02  0.51100000000E-03 0. -1.
        -11    1    3    3    0    0 -0.11223361528E+02 -0.14575823217E+02 -0.16710133389E+02  0.24852505398E+02  0.51100000000E-03 0.  1.
        -12    1    3    3    0    0 -0.10001295626E+02  0.27068431616E+02 -0.83807951255E+01  0.30049353259E+02  0.00000000000E+00 0.  1.
</event>
<event>
 7    1  0.1283194E-013  0.7246144E+02  0.7816164E-02  0.1226708E+00
        -11   -1    0    0    0    0  0.00000000000E+00  0.00000000000E+00  0.45593999997E+02  0.45594000000E+02  0.51100000000E-03 0.  1.
         11   -1    0    0    0    0 -0.00000000000E+00 -0.00000000000E+00 -0.45593999997E+02  0.45594000000E+02  0.51100000000E-03 0. -1.
    9900012    2    1    2    0    0  0.11796991202E+02  0.12442444049E+01  0.14490239033E+02  0.72461436706E+02  0.69999825977E+02 0.  0.
         12    1    1    2    0    0 -0.11796991202E+02 -0.12442444049E+01 -0.14490239033E+02  0.18726563294E+02  0.00000000000E+00 0. -1.
         11    1    3    3    0    0 -0.15064088663E+02  0.18032240235E+02  0.19083678976E+02  0.30270038960E+02  0.51100000000E-03 0. -1.
        -11    1    3    3    0    0  0.30716746281E+02 -0.11292755705E+02  0.19922464651E+01  0.32787404285E+02  0.51100000000E-03 0.  1.
         12    1    3    3    0    0 -0.38556664158E+01 -0.54952401255E+01 -0.65856864084E+01  0.94039934611E+01  0.00000000000E+00 0. -1.
</event>
<event>
 7    1  0.1283194E-013  0.7246153E+02  0.7816164E-02  0.1226708E+00
        -11   -1    0    0    0    0  0.00000000000E+00  0.00000000000E+00  0.45593999997E+02  0.45594000000E+02  0.51100000000E-03 0. -1.
         11   -1    0    0    0    0 -0.00000000000E+00 -0.00000000000E+00 -0.45593999997E+02  0.45594000000E+02  0.51100000000E-03 0.  1.
    9900012    2    1    2    0    0 -0.13313257969E+02  0.12141662092E+02 -0.51007605430E+01  0.72461533323E+02  0.69999951838E+02 0.  0.
         12    1    1    2    0    0  0.13313257969E+02 -0.12141662092E+02  0.51007605430E+01  0.18726466677E+02  0.00000000000E+00 0. -1.
         11    1    3    3    0    0 -0.13964875553E+02 -0.12684151576E+02  0.10275531297E+02  0.21482364724E+02  0.51100000000E-03 0. -1.
        -11    1    3    3    0    0  0.30257599071E+01  0.17989854729E+02 -0.29743622479E+02  0.34892308245E+02  0.51100000000E-03 0.  1.
         12    1    3    3    0    0 -0.23741423222E+01  0.68359589389E+01  0.14367330639E+02  0.16086860354E+02  0.00000000000E+00 0. -1.
</event>
<event>
 7    1  0.1283194E-013  0.7246156E+02  0.7816164E-02  0.1226708E+00
        -11   -1    0    0    0    0  0.00000000000E+00  0.00000000000E+00  0.45593999997E+02  0.45594000000E+02  0.51100000000E-03 0.  1.
         11   -1    0    0    0    0 -0.00000000000E+00 -0.00000000000E+00 -0.45593999997E+02  0.45594000000E+02  0.51100000000E-03 0. -1.
    9900012    2    1    2    0    0  0.15464732423E+02  0.10202269048E+02  0.27267904736E+01  0.72461558028E+02  0.69999984021E+02 0.  0.
         12    1    1    2    0    0 -0.15464732423E+02 -0.10202269048E+02 -0.27267904736E+01  0.18726441972E+02  0.00000000000E+00 0. -1.
         11    1    3    3    0    0 -0.10554499360E+02 -0.75005204104E+01 -0.72999168806E+01  0.14864186822E+02  0.51100000000E-03 0. -1.
        -11    1    3    3    0    0  0.38160687678E+02  0.15609963142E+02  0.15590077403E+02  0.44079014814E+02  0.51100000000E-03 0.  1.
        -12    1    3    3    0    0 -0.12141455894E+02  0.20928263157E+01 -0.55633700486E+01  0.13518356391E+02  0.00000000000E+00 0.  1.
</event>
<event>
 7    1  0.1283194E-013  0.7246155E+02  0.7816164E-02  0.1226708E+00
        -11   -1    0    0    0    0  0.00000000000E+00  0.00000000000E+00  0.45593999997E+02  0.45594000000E+02  0.51100000000E-03 0. -1.
         11   -1    0    0    0    0 -0.00000000000E+00 -0.00000000000E+00 -0.45593999997E+02  0.45594000000E+02  0.51100000000E-03 0.  1.
    9900012    2    1    2    0    0  0.51628646632E+01 -0.17896178562E+02 -0.19368565389E+01  0.72461553676E+02  0.69999978352E+02 0.  0.
         12    1    1    2    0    0 -0.51628646632E+01  0.17896178562E+02  0.19368565389E+01  0.18726446324E+02  0.00000000000E+00 0. -1.
         11    1    3    3    0    0  0.49222692935E+00 -0.12625839096E+02  0.14398107335E+02  0.19156189478E+02  0.51100000000E-03 0. -1.
        -11    1    3    3    0    0 -0.25279575742E+01  0.12771368549E+02 -0.27836689327E+02  0.30730761413E+02  0.51100000000E-03 0.  1.
        -12    1    3    3    0    0  0.71985953080E+01 -0.18041708016E+02  0.11501725453E+02  0.22574602785E+02  0.00000000000E+00 0.  1.
</event>
<event>
 7    1  0.1283194E-013  0.7246163E+02  0.7816164E-02  0.1226708E+00
        -11   -1    0    0    0    0  0.00000000000E+00  0.00000000000E+00  0.45593999997E+02  0.45594000000E+02  0.51100000000E-03 0.  1.
         11   -1    0    0    0    0 -0.00000000000E+00 -0.00000000000E+00 -0.45593999997E+02  0.45594000000E+02  0.51100000000E-03 0. -1.
    9900012    2    1    2    0    0  0.74239463736E+01 -0.14403122350E+02  0.93868067591E+01  0.72461626771E+02  0.70000073571E+02 0.  0.
         12    1    1    2    0    0 -0.74239463736E+01  0.14403122350E+02 -0.93868067591E+01  0.18726373229E+02  0.00000000000E+00 0. -1.
         11    1    3    3    0    0 -0.13123410441E+02 -0.82470855468E+01 -0.15655244578E+02  0.22030093161E+02  0.51100000000E-03 0. -1.
        -11    1    3    3    0    0  0.28126349961E+01  0.15502908392E+02  0.81974530901E+01  0.17760893043E+02  0.51100000000E-03 0.  1.
        -12    1    3    3    0    0  0.17734721819E+02 -0.21658945196E+02  0.16844598247E+02  0.32670640567E+02  0.00000000000E+00 0.  1.
</event>
<event>
 7    1  0.1283194E-013  0.7246163E+02  0.7816164E-02  0.1226708E+00
        -11   -1    0    0    0    0  0.00000000000E+00  0.00000000000E+00  0.45593999997E+02  0.45594000000E+02  0.51100000000E-03 0.  1.
         11   -1    0    0    0    0 -0.00000000000E+00 -0.00000000000E+00 -0.45593999997E+02  0.45594000000E+02  0.51100000000E-03 0. -1.
    9900012    2    1    2    0    0 -0.65612515548E+01 -0.11841618813E+02  0.12938433231E+02  0.72461627886E+02  0.70000075024E+02 0.  0.
         12    1    1    2    0    0  0.65612515548E+01  0.11841618813E+02 -0.12938433231E+02  0.18726372114E+02  0.00000000000E+00 0. -1.
         11    1    3    3    0    0  0.13236783304E+02 -0.13692666180E+02  0.95675643512E+01  0.21312902834E+02  0.51100000000E-03 0. -1.
        -11    1    3    3    0    0 -0.17577417518E+02  0.17891853584E+02  0.16735460753E+02  0.30152274842E+02  0.51100000000E-03 0.  1.
        -12    1    3    3    0    0 -0.22206173409E+01 -0.16040806218E+02 -0.13364591874E+02  0.20996450210E+02  0.00000000000E+00 0.  1.
</event>
<event>
 7    1  0.1283194E-013  0.7246166E+02  0.7816164E-02  0.1226708E+00
        -11   -1    0    0    0    0  0.00000000000E+00  0.00000000000E+00  0.45593999997E+02  0.45594000000E+02  0.51100000000E-03 0. -1.
         11   -1    0    0    0    0 -0.00000000000E+00 -0.00000000000E+00 -0.45593999997E+02  0.45594000000E+02  0.51100000000E-03 0.  1.
    9900012    2    1    2    0    0 -0.52796519529E+00  0.12854639195E+02 -0.13607181945E+02  0.72461657683E+02  0.70000113840E+02 0.  0.
         12    1    1    2    0    0  0.52796519529E+00 -0.12854639195E+02  0.13607181945E+02  0.18726342317E+02  0.00000000000E+00 0. -1.
         11    1    3    3    0    0  0.11728728094E+01  0.17429117145E+02  0.19798530588E+02  0.26403249209E+02  0.51100000000E-03 0. -1.
        -11    1    3    3    0    0  0.13905507185E+02  0.31946132947E+01 -0.15538849317E+02  0.21095604342E+02  0.51100000000E-03 0.  1.
         12    1    3    3    0    0 -0.15606345190E+02 -0.77690912449E+01 -0.17866863216E+02  0.24962804132E+02  0.00000000000E+00 0. -1.
</event>
<event>
 7    1  0.1283194E-013  0.7246148E+02  0.7816164E-02  0.1226708E+00
        -11   -1    0    0    0    0  0.00000000000E+00  0.00000000000E+00  0.45593999997E+02  0.45594000000E+02  0.51100000000E-03 0.  1.
         11   -1    0    0    0    0 -0.00000000000E+00 -0.00000000000E+00 -0.45593999997E+02  0.45594000000E+02  0.51100000000E-03 0. -1.
    9900012    2    1    2    0    0  0.17079854258E+02 -0.57124049961E+01  0.51312158108E+01  0.72461484894E+02  0.69999888751E+02 0.  0.
         12    1    1    2    0    0 -0.17079854258E+02  0.57124049961E+01 -0.51312158108E+01  0.18726515106E+02  0.00000000000E+00 0. -1.
         11    1    3    3    0    0  0.79193038025E+01 -0.12766328842E+02  0.21358440473E+01  0.15174200304E+02  0.51100000000E-03 0.  1.
        -11    1    3    3    0    0  0.19478619153E+01 -0.29235558549E+01 -0.25764579671E+02  0.26002978882E+02  0.51100000000E-03 0. -1.
        -12    1    3    3    0    0  0.72126885399E+01  0.99774797005E+01  0.28759951434E+02  0.31284305708E+02  0.00000000000E+00 0.  1.
</event>
<event>
 7    1  0.1283194E-013  0.7246153E+02  0.7816164E-02  0.1226708E+00
        -11   -1    0    0    0    0  0.00000000000E+00  0.00000000000E+00  0.45593999997E+02  0.45594000000E+02  0.51100000000E-03 0.  1.
         11   -1    0    0    0    0 -0.00000000000E+00 -0.00000000000E+00 -0.45593999997E+02  0.45594000000E+02  0.51100000000E-03 0. -1.
    9900012    2    1    2    0    0  0.17328147058E+02 -0.14436070687E+01  0.69521203982E+01  0.72461530502E+02  0.69999948163E+02 0.  0.
         12    1    1    2    0    0 -0.17328147058E+02  0.14436070687E+01 -0.69521203982E+01  0.18726469498E+02  0.00000000000E+00 0. -1.
         11    1    3    3    0    0  0.27292937496E+02 -0.22528122785E+00 -0.13999503384E+02  0.30674766243E+02  0.51100000000E-03 0. -1.
        -11    1    3    3    0    0 -0.31113148581E+01 -0.97817827031E+01  0.27263646651E+02  0.29131940923E+02  0.51100000000E-03 0.  1.
         12    1    3    3    0    0 -0.68534755799E+01  0.85634568622E+01 -0.63120228687E+01  0.12654823335E+02  0.00000000000E+00 0. -1.
</event>
<event>
 7    1  0.1283194E-013  0.7246154E+02  0.7816164E-02  0.1226708E+00
        -11   -1    0    0    0    0  0.00000000000E+00  0.00000000000E+00  0.45593999997E+02  0.45594000000E+02  0.51100000000E-03 0. -1.
         11   -1    0    0    0    0 -0.00000000000E+00 -0.00000000000E+00 -0.45593999997E+02  0.45594000000E+02  0.51100000000E-03 0.  1.
    9900012    2    1    2    0    0 -0.15282308223E+02 -0.38683216873E+01 -0.10107799150E+02  0.72461535813E+02  0.69999955081E+02 0.  0.
         12    1    1    2    0    0  0.15282308223E+02  0.38683216873E+01  0.10107799150E+02  0.18726464187E+02  0.00000000000E+00 0. -1.
         11    1    3    3    0    0 -0.13646427270E+02 -0.25985595342E+02  0.18091396633E+02  0.34478613298E+02  0.51100000000E-03 0. -1.
        -11    1    3    3    0    0 -0.51929035747E+01  0.11340271692E+02 -0.80118501286E+01  0.14824228558E+02  0.51100000000E-03 0.  1.
         12    1    3    3    0    0  0.35570226214E+01  0.10777001963E+02 -0.20187345655E+02  0.23158693958E+02  0.00000000000E+00 0. -1.
</event>
<event>
 7    1  0.1283194E-013  0.7246170E+02  0.7816164E-02  0.1226708E+00
        -11   -1    0    0    0    0  0.00000000000E+00  0.00000000000E+00  0.45593999997E+02  0.45594000000E+02  0.51100000000E-03 0. -1.
         11   -1    0    0    0    0 -0.00000000000E+00 -0.00000000000E+00 -0.45593999997E+02  0.45594000000E+02  0.51100000000E-03 0.  1.
    9900012    2    1    2    0    0 -0.15459405323E+02  0.14075449747E+01 -0.10473777352E+02  0.72461697433E+02  0.70000165622E+02 0.  0.
         12    1    1    2    0    0  0.15459405323E+02 -0.14075449747E+01  0.10473777352E+02  0.18726302567E+02  0.00000000000E+00 0. -1.
         11    1    3    3    0    0 -0.11030632670E+01  0.22175810090E+02 -0.41444808041E+01  0.22586722275E+02  0.51100000000E-03 0. -1.
        -11    1    3    3    0    0 -0.90582325083E+00 -0.31899500587E+02 -0.56049569531E+01  0.32400836350E+02  0.51100000000E-03 0.  1.
        -12    1    3    3    0    0 -0.13450518805E+02  0.11131235472E+02 -0.72433959522E+00  0.17474138809E+02  0.00000000000E+00 0.  1.
</event>
<event>
 7    1  0.1283194E-013  0.7246159E+02  0.7816164E-02  0.1226708E+00
        -11   -1    0    0    0    0  0.00000000000E+00  0.00000000000E+00  0.45593999997E+02  0.45594000000E+02  0.51100000000E-03 0.  1.
         11   -1    0    0    0    0 -0.00000000000E+00 -0.00000000000E+00 -0.45593999997E+02  0.45594000000E+02  0.51100000000E-03 0. -1.
    9900012    2    1    2    0    0  0.13268842557E+02 -0.66671026596E+00  0.13197408965E+02  0.72461593811E+02  0.70000030634E+02 0.  0.
         12    1    1    2    0    0 -0.13268842557E+02  0.66671026596E+00 -0.13197408965E+02  0.18726406189E+02  0.00000000000E+00 0. -1.
         11    1    3    3    0    0  0.27880651018E+02  0.56134353884E+01 -0.13930988968E+02  0.31668814502E+02  0.51100000000E-03 0. -1.
        -11    1    3    3    0    0  0.49647159080E+01 -0.48872051229E+01  0.17695696136E+02  0.19017645489E+02  0.51100000000E-03 0.  1.
         12    1    3    3    0    0 -0.19576524368E+02 -0.13929405315E+01  0.94327017972E+01  0.21775133820E+02  0.00000000000E+00 0. -1.
</event>
<event>
 7    1  0.1283194E-013  0.7246133E+02  0.7816164E-02  0.1226709E+00
        -11   -1    0    0    0    0  0.00000000000E+00  0.00000000000E+00  0.45593999997E+02  0.45594000000E+02  0.51100000000E-03 0.  1.
         11   -1    0    0    0    0 -0.00000000000E+00 -0.00000000000E+00 -0.45593999997E+02  0.45594000000E+02  0.51100000000E-03 0. -1.
    9900012    2    1    2    0    0  0.18063126985E+02 -0.49404897760E+01  0.54687764988E-01  0.72461334882E+02  0.69999693330E+02 0.  0.
         12    1    1    2    0    0 -0.18063126985E+02  0.49404897760E+01 -0.54687764988E-01  0.18726665118E+02  0.00000000000E+00 0. -1.
         11    1    3    3    0    0  0.26163258002E+02  0.24829630228E+02  0.47421627935E+01  0.36380141764E+02  0.51100000000E-03 0. -1.
        -11    1    3    3    0    0  0.55304962498E+01 -0.47825867541E+01 -0.10185817975E+01  0.73822106424E+01  0.51100000000E-03 0.  1.
         12    1    3    3    0    0 -0.13630627267E+02 -0.24987533249E+02 -0.36688932310E+01  0.28698982475E+02  0.00000000000E+00 0. -1.
</event>
<event>
 7    1  0.1283194E-013  0.7246159E+02  0.7816164E-02  0.1226708E+00
        -11   -1    0    0    0    0  0.00000000000E+00  0.00000000000E+00  0.45593999997E+02  0.45594000000E+02  0.51100000000E-03 0. -1.
         11   -1    0    0    0    0 -0.00000000000E+00 -0.00000000000E+00 -0.45593999997E+02  0.45594000000E+02  0.51100000000E-03 0.  1.
    9900012    2    1    2    0    0 -0.12661359718E+02  0.50325909424E+01 -0.12846840509E+02  0.72461593175E+02  0.70000029806E+02 0.  0.
         12    1    1    2    0    0  0.12661359718E+02 -0.50325909424E+01  0.12846840509E+02  0.18726406825E+02  0.00000000000E+00 0. -1.
         11    1    3    3    0    0  0.74054358664E+01  0.88216818862E+01  0.35037051745E+01  0.12039040738E+02  0.51100000000E-03 0. -1.
        -11    1    3    3    0    0 -0.37463206985E+02 -0.14174441002E+01 -0.19998158945E+02  0.42490321096E+02  0.51100000000E-03 0.  1.
        -12    1    3    3    0    0  0.17396411401E+02 -0.23716468436E+01  0.36476132609E+01  0.17932231341E+02  0.00000000000E+00 0.  1.
</event>
<event>
 7    1  0.1283194E-013  0.7246177E+02  0.7816164E-02  0.1226707E+00
        -11   -1    0    0    0    0  0.00000000000E+00  0.00000000000E+00  0.45593999997E+02  0.45594000000E+02  0.51100000000E-03 0. -1.
         11   -1    0    0    0    0 -0.00000000000E+00 -0.00000000000E+00 -0.45593999997E+02  0.45594000000E+02  0.51100000000E-03 0.  1.
    9900012    2    1    2    0    0  0.13043855414E+02  0.12878282392E+02 -0.38313730529E+01  0.72461768641E+02  0.70000258383E+02 0.  0.
         12    1    1    2    0    0 -0.13043855414E+02 -0.12878282392E+02  0.38313730529E+01  0.18726231359E+02  0.00000000000E+00 0. -1.
         11    1    3    3    0    0 -0.13494288080E+02 -0.13438570058E+02  0.80160480151E+01  0.20662720102E+02  0.51100000000E-03 0. -1.
        -11    1    3    3    0    0  0.17625745598E+02  0.27111044928E+02  0.50017169465E+01  0.32721443086E+02  0.51100000000E-03 0.  1.
        -12    1    3    3    0    0  0.89123978965E+01 -0.79419247807E+00 -0.16849138015E+02  0.19077605452E+02  0.00000000000E+00 0.  1.
</event>
<event>
 7    1  0.1283194E-013  0.7246157E+02  0.7816164E-02  0.1226708E+00
        -11   -1    0    0    0    0  0.00000000000E+00  0.00000000000E+00  0.45593999997E+02  0.45594000000E+02  0.51100000000E-03 0.  1.
         11   -1    0    0    0    0 -0.00000000000E+00 -0.00000000000E+00 -0.45593999997E+02  0.45594000000E+02  0.51100000000E-03 0. -1.
    9900012    2    1    2    0    0 -0.53087507811E+01 -0.16395147224E+02  0.73277294807E+01  0.72461566632E+02  0.69999995229E+02 0.  0.
         12    1    1    2    0    0  0.53087507811E+01  0.16395147224E+02 -0.73277294807E+01  0.18726433368E+02  0.00000000000E+00 0. -1.
         11    1    3    3    0    0 -0.44382423151E+01 -0.19633162819E+02 -0.18974224204E+02  0.27661891865E+02  0.51100000000E-03 0. -1.
        -11    1    3    3    0    0 -0.53434484927E+01 -0.12171561332E+02  0.25472830391E+02  0.28732637112E+02  0.51100000000E-03 0.  1.
         12    1    3    3    0    0  0.44729400267E+01  0.15409576927E+02  0.82912329469E+00  0.16067037654E+02  0.00000000000E+00 0. -1.
</event>
<event>
 7    1  0.1283194E-013  0.7246163E+02  0.7816164E-02  0.1226708E+00
        -11   -1    0    0    0    0  0.00000000000E+00  0.00000000000E+00  0.45593999997E+02  0.45594000000E+02  0.51100000000E-03 0.  1.
         11   -1    0    0    0    0 -0.00000000000E+00 -0.00000000000E+00 -0.45593999997E+02  0.45594000000E+02  0.51100000000E-03 0. -1.
    9900012    2    1    2    0    0 -0.60851978730E+01 -0.12747940292E+02  0.12293792739E+02  0.72461629429E+02  0.70000077034E+02 0.  0.
         12    1    1    2    0    0  0.60851978730E+01  0.12747940292E+02 -0.12293792739E+02  0.18726370571E+02  0.00000000000E+00 0. -1.
         11    1    3    3    0    0  0.48976613429E+01 -0.25510013917E+01 -0.19378395301E+02  0.20149861028E+02  0.51100000000E-03 0. -1.
        -11    1    3    3    0    0 -0.10546395402E+02  0.69086596349E+01  0.32823812334E+02  0.35161892588E+02  0.51100000000E-03 0.  1.
        -12    1    3    3    0    0 -0.43646381429E+00 -0.17105598535E+02 -0.11516242940E+01  0.17149875814E+02  0.00000000000E+00 0.  1.
</event>
<event>
 7    1  0.1283194E-013  0.7246154E+02  0.7816164E-02  0.1226708E+00
        -11   -1    0    0    0    0  0.00000000000E+00  0.00000000000E+00  0.45593999997E+02  0.45594000000E+02  0.51100000000E-03 0.  1.
         11   -1    0    0    0    0 -0.00000000000E+00 -0.00000000000E+00 -0.45593999997E+02  0.45594000000E+02  0.51100000000E-03 0. -1.
    9900012    2    1    2    0    0 -0.10865397016E+02 -0.15227292624E+02  0.86771854984E+00  0.72461542021E+02  0.69999963168E+02 0.  0.
         12    1    1    2    0    0  0.10865397016E+02  0.15227292624E+02 -0.86771854984E+00  0.18726457979E+02  0.00000000000E+00 0. -1.
         11    1    3    3    0    0  0.88412757826E+01 -0.26333524170E+02 -0.49063369160E+01  0.28208062586E+02  0.51100000000E-03 0. -1.
        -11    1    3    3    0    0 -0.24334237087E+02  0.12788355280E+02 -0.88048148773E+01  0.28865583152E+02  0.51100000000E-03 0.  1.
        -12    1    3    3    0    0  0.46275642891E+01 -0.16821237345E+01  0.14578870343E+02  0.15387896282E+02  0.00000000000E+00 0.  1.
</event>
<event>
 7    1  0.1283194E-013  0.7246157E+02  0.7816164E-02  0.1226708E+00
        -11   -1    0    0    0    0  0.00000000000E+00  0.00000000000E+00  0.45593999997E+02  0.45594000000E+02  0.51100000000E-03 0.  1.
         11   -1    0    0    0    0 -0.00000000000E+00 -0.00000000000E+00 -0.45593999997E+02  0.45594000000E+02  0.51100000000E-03 0. -1.
    9900012    2    1    2    0    0 -0.56540151452E+01  0.48551729503E+01  0.17179602072E+02  0.72461566303E+02  0.69999994801E+02 0.  0.
         12    1    1    2    0    0  0.56540151452E+01 -0.48551729503E+01 -0.17179602072E+02  0.18726433697E+02  0.00000000000E+00 0. -1.
         11    1    3    3    0    0 -0.15190085215E+02  0.76451454068E+01 -0.20447285349E+02  0.26594706532E+02  0.51100000000E-03 0. -1.
        -11    1    3    3    0    0  0.49630879199E+01 -0.13184709095E+02  0.26253960082E+02  0.29794952859E+02  0.51100000000E-03 0.  1.
        -12    1    3    3    0    0  0.45729821497E+01  0.10394736639E+02  0.11372927339E+02  0.16071906912E+02  0.00000000000E+00 0.  1.
</event>
<event>
 7    1  0.1283194E-013  0.7246156E+02  0.7816164E-02  0.1226708E+00
        -11   -1    0    0    0    0  0.00000000000E+00  0.00000000000E+00  0.45593999997E+02  0.45594000000E+02  0.51100000000E-03 0.  1.
         11   -1    0    0    0    0 -0.00000000000E+00 -0.00000000000E+00 -0.45593999997E+02  0.45594000000E+02  0.51100000000E-03 0. -1.
    9900012    2    1    2    0    0  0.92725724334E+01 -0.92559474383E+01  0.13380071531E+02  0.72461562093E+02  0.69999989317E+02 0.  0.
         12    1    1    2    0    0 -0.92725724334E+01  0.92559474383E+01 -0.13380071531E+02  0.18726437907E+02  0.00000000000E+00 0. -1.
         11    1    3    3    0    0 -0.12376582264E+02  0.48205408563E+01 -0.23687039038E+02  0.27156826423E+02  0.51100000000E-03 0. -1.
        -11    1    3    3    0    0  0.17011209131E+01 -0.19641593247E+01  0.51185195928E+01  0.57402941821E+01  0.51100000000E-03 0.  1.
         12    1    3    3    0    0  0.19948033784E+02 -0.12112328970E+02  0.31948590976E+02  0.39564441488E+02  0.00000000000E+00 0. -1.
</event>
<event>
 7    1  0.1283194E-013  0.7246147E+02  0.7816164E-02  0.1226708E+00
        -11   -1    0    0    0    0  0.00000000000E+00  0.00000000000E+00  0.45593999997E+02  0.45594000000E+02  0.51100000000E-03 0.  1.
         11   -1    0    0    0    0 -0.00000000000E+00 -0.00000000000E+00 -0.45593999997E+02  0.45594000000E+02  0.51100000000E-03 0. -1.
    9900012    2    1    2    0    0 -0.17263335986E+02  0.53318801048E+01 -0.49225353663E+01  0.72461466171E+02  0.69999864359E+02 0.  0.
         12    1    1    2    0    0  0.17263335986E+02 -0.53318801048E+01  0.49225353663E+01  0.18726533829E+02  0.00000000000E+00 0. -1.
         11    1    3    3    0    0 -0.12332083668E+02 -0.14705734243E+02  0.23531773158E+01  0.19335882471E+02  0.51100000000E-03 0.  1.
        -11    1    3    3    0    0  0.13894588650E+02  0.25975957520E+02  0.49997303979E+01  0.29879880642E+02  0.51100000000E-03 0. -1.
        -12    1    3    3    0    0 -0.18825840969E+02 -0.59383431726E+01 -0.12275443080E+02  0.23245703057E+02  0.00000000000E+00 0.  1.
</event>
<event>
 7    1  0.1283194E-013  0.7246158E+02  0.7816164E-02  0.1226708E+00
        -11   -1    0    0    0    0  0.00000000000E+00  0.00000000000E+00  0.45593999997E+02  0.45594000000E+02  0.51100000000E-03 0.  1.
         11   -1    0    0    0    0 -0.00000000000E+00 -0.00000000000E+00 -0.45593999997E+02  0.45594000000E+02  0.51100000000E-03 0. -1.
    9900012    2    1    2    0    0 -0.12506782038E+02 -0.12996409307E+02  0.50351484197E+01  0.72461575583E+02  0.70000006889E+02 0.  0.
         12    1    1    2    0    0  0.12506782038E+02  0.12996409307E+02 -0.50351484197E+01  0.18726424417E+02  0.00000000000E+00 0. -1.
         11    1    3    3    0    0 -0.67576573870E+01 -0.37078056536E+02  0.17973440820E+01  0.37731666487E+02  0.51100000000E-03 0. -1.
        -11    1    3    3    0    0  0.46000324949E+01  0.15850418109E+02  0.10580484905E+02  0.19604660524E+02  0.51100000000E-03 0.  1.
         12    1    3    3    0    0 -0.10349157146E+02  0.82312291196E+01 -0.73426805671E+01  0.15125248572E+02  0.00000000000E+00 0. -1.
</event>
<event>
 7    1  0.1283194E-013  0.7246118E+02  0.7816164E-02  0.1226709E+00
        -11   -1    0    0    0    0  0.00000000000E+00  0.00000000000E+00  0.45593999997E+02  0.45594000000E+02  0.51100000000E-03 0. -1.
         11   -1    0    0    0    0 -0.00000000000E+00 -0.00000000000E+00 -0.45593999997E+02  0.45594000000E+02  0.51100000000E-03 0.  1.
    9900012    2    1    2    0    0 -0.72140228473E+01  0.13580195009E+02 -0.10687840293E+02  0.72461180936E+02  0.69999492787E+02 0.  0.
         12    1    1    2    0    0  0.72140228473E+01 -0.13580195009E+02  0.10687840293E+02  0.18726819064E+02  0.00000000000E+00 0. -1.
         11    1    3    3    0    0  0.48623156564E+01  0.98003250857E+01 -0.33614073604E+02  0.35349602966E+02  0.51100000000E-03 0.  1.
        -11    1    3    3    0    0 -0.19762553430E+02  0.13233899796E+01  0.10839621764E+02  0.22578912271E+02  0.51100000000E-03 0. -1.
         12    1    3    3    0    0  0.76862149261E+01  0.24564799436E+01  0.12086611548E+02  0.14532665699E+02  0.00000000000E+00 0. -1.
</event>
<event>
 7    1  0.1283194E-013  0.7246151E+02  0.7816164E-02  0.1226708E+00
        -11   -1    0    0    0    0  0.00000000000E+00  0.00000000000E+00  0.45593999997E+02  0.45594000000E+02  0.51100000000E-03 0.  1.
         11   -1    0    0    0    0 -0.00000000000E+00 -0.00000000000E+00 -0.45593999997E+02  0.45594000000E+02  0.51100000000E-03 0. -1.
    9900012    2    1    2    0    0 -0.19294430237E+01  0.17206156510E+02 -0.71349097410E+01  0.72461507824E+02  0.69999918620E+02 0.  0.
         12    1    1    2    0    0  0.19294430237E+01 -0.17206156510E+02  0.71349097410E+01  0.18726492176E+02  0.00000000000E+00 0. -1.
         11    1    3    3    0    0 -0.23852919373E+02  0.47749233793E+01 -0.28763050266E+01  0.24495607500E+02  0.51100000000E-03 0. -1.
        -11    1    3    3    0    0  0.27924127309E+02  0.47338264489E-01 -0.13871440766E+02  0.31179736946E+02  0.51100000000E-03 0.  1.
        -12    1    3    3    0    0 -0.60006509589E+01  0.12383894866E+02  0.96128360519E+01  0.16786163378E+02  0.00000000000E+00 0.  1.
</event>
<event>
 7    1  0.1283194E-013  0.7246158E+02  0.7816164E-02  0.1226708E+00
        -11   -1    0    0    0    0  0.00000000000E+00  0.00000000000E+00  0.45593999997E+02  0.45594000000E+02  0.51100000000E-03 0.  1.
         11   -1    0    0    0    0 -0.00000000000E+00 -0.00000000000E+00 -0.45593999997E+02  0.45594000000E+02  0.51100000000E-03 0. -1.
    9900012    2    1    2    0    0  0.87388794234E+01 -0.15548254868E+02 -0.57063766476E+01  0.72461575422E+02  0.70000006680E+02 0.  0.
         12    1    1    2    0    0 -0.87388794234E+01  0.15548254868E+02  0.57063766476E+01  0.18726424578E+02  0.00000000000E+00 0. -1.
         11    1    3    3    0    0  0.98952058338E+01  0.11110174233E+01 -0.64026244226E+01  0.11838203325E+02  0.51100000000E-03 0. -1.
        -11    1    3    3    0    0 -0.66606759891E+01  0.14495872238E+01  0.27207949465E+02  0.28048857769E+02  0.51100000000E-03 0.  1.
        -12    1    3    3    0    0  0.55043495787E+01 -0.18108859515E+02 -0.26511701690E+02  0.32574514329E+02  0.00000000000E+00 0.  1.
</event>
<event>
 7    1  0.1283194E-013  0.7246157E+02  0.7816164E-02  0.1226708E+00
        -11   -1    0    0    0    0  0.00000000000E+00  0.00000000000E+00  0.45593999997E+02  0.45594000000E+02  0.51100000000E-03 0.  1.
         11   -1    0    0    0    0 -0.00000000000E+00 -0.00000000000E+00 -0.45593999997E+02  0.45594000000E+02  0.51100000000E-03 0. -1.
    9900012    2    1    2    0    0 -0.36248778344E+01  0.65648124704E+01  0.17159334928E+02  0.72461567418E+02  0.69999996253E+02 0.  0.
         12    1    1    2    0    0  0.36248778344E+01 -0.65648124704E+01 -0.17159334928E+02  0.18726432582E+02  0.00000000000E+00 0. -1.
         11    1    3    3    0    0  0.12447840155E+02 -0.19843783793E+02  0.47316435429E+01  0.23897969173E+02  0.51100000000E-03 0. -1.
        -11    1    3    3    0    0 -0.99056676198E+01  0.18843812553E+02  0.24878242718E+02  0.32743525826E+02  0.51100000000E-03 0.  1.
        -12    1    3    3    0    0 -0.61670503693E+01  0.75647837096E+01 -0.12450551333E+02  0.15820072419E+02  0.00000000000E+00 0.  1.
</event>
<event>
 7    1  0.1283194E-013  0.7246150E+02  0.7816164E-02  0.1226708E+00
        -11   -1    0    0    0    0  0.00000000000E+00  0.00000000000E+00  0.45593999997E+02  0.45594000000E+02  0.51100000000E-03 0.  1.
         11   -1    0    0    0    0 -0.00000000000E+00 -0.00000000000E+00 -0.45593999997E+02  0.45594000000E+02  0.51100000000E-03 0. -1.
    9900012    2    1    2    0    0 -0.25437103814E+01  0.18551923146E+02 -0.19405410704E+00  0.72461495470E+02  0.69999902527E+02 0.  0.
         12    1    1    2    0    0  0.25437103814E+01 -0.18551923146E+02  0.19405410704E+00  0.18726504530E+02  0.00000000000E+00 0. -1.
         11    1    3    3    0    0  0.29239526330E+01  0.44822974157E+01  0.27775774629E+01  0.60295460813E+01  0.51100000000E-03 0. -1.
        -11    1    3    3    0    0 -0.14839230495E+02  0.21124026413E+01 -0.31066059397E+02  0.34492971071E+02  0.51100000000E-03 0.  1.
        -12    1    3    3    0    0  0.93715674810E+01  0.11957223089E+02  0.28094427827E+02  0.31938978317E+02  0.00000000000E+00 0.  1.
</event>
<event>
 7    1  0.1283194E-013  0.7246165E+02  0.7816164E-02  0.1226708E+00
        -11   -1    0    0    0    0  0.00000000000E+00  0.00000000000E+00  0.45593999997E+02  0.45594000000E+02  0.51100000000E-03 0. -1.
         11   -1    0    0    0    0 -0.00000000000E+00 -0.00000000000E+00 -0.45593999997E+02  0.45594000000E+02  0.51100000000E-03 0.  1.
    9900012    2    1    2    0    0  0.14963982457E+02  0.89964818842E+01 -0.67689576916E+01  0.72461648367E+02  0.70000101704E+02 0.  0.
         12    1    1    2    0    0 -0.14963982457E+02 -0.89964818842E+01  0.67689576916E+01  0.18726351633E+02  0.00000000000E+00 0. -1.
         11    1    3    3    0    0  0.86414739129E+00 -0.16623676988E+02 -0.19488008390E+02  0.25629589513E+02  0.51100000000E-03 0.  1.
        -11    1    3    3    0    0  0.11841355247E+02  0.27312170907E+02 -0.38570300945E+01  0.30017479160E+02  0.51100000000E-03 0. -1.
         12    1    3    3    0    0  0.22584798184E+01 -0.16920120342E+01  0.16576080793E+02  0.16814579694E+02  0.00000000000E+00 0. -1.
</event>
<event>
 7    1  0.1283194E-013  0.7246154E+02  0.7816164E-02  0.1226708E+00
        -11   -1    0    0    0    0  0.00000000000E+00  0.00000000000E+00  0.45593999997E+02  0.45594000000E+02  0.51100000000E-03 0. -1.
         11   -1    0    0    0    0 -0.00000000000E+00 -0.00000000000E+00 -0.45593999997E+02  0.45594000000E+02  0.51100000000E-03 0.  1.
    9900012    2    1    2    0    0 -0.82335899250E+01  0.24086116565E+01  0.16645924338E+02  0.72461542507E+02  0.69999963802E+02 0.  0.
         12    1    1    2    0    0  0.82335899250E+01 -0.24086116565E+01 -0.16645924338E+02  0.18726457493E+02  0.00000000000E+00 0. -1.
         11    1    3    3    0    0  0.12849640464E+00  0.22673139140E+02  0.40696566105E+01  0.23035838491E+02  0.51100000000E-03 0. -1.
        -11    1    3    3    0    0  0.13958623501E+02 -0.18566795303E+02 -0.99144730134E+00  0.23249774749E+02  0.51100000000E-03 0.  1.
        -12    1    3    3    0    0 -0.22320709831E+02 -0.16977321808E+01  0.13567715028E+02  0.26175929267E+02  0.00000000000E+00 0.  1.
</event>
<event>
 7    1  0.1283194E-013  0.7246175E+02  0.7816164E-02  0.1226708E+00
        -11   -1    0    0    0    0  0.00000000000E+00  0.00000000000E+00  0.45593999997E+02  0.45594000000E+02  0.51100000000E-03 0.  1.
         11   -1    0    0    0    0 -0.00000000000E+00 -0.00000000000E+00 -0.45593999997E+02  0.45594000000E+02  0.51100000000E-03 0. -1.
    9900012    2    1    2    0    0 -0.15461522350E+02 -0.82499740308E+00  0.10532488688E+02  0.72461745381E+02  0.70000228082E+02 0.  0.
         12    1    1    2    0    0  0.15461522350E+02  0.82499740308E+00 -0.10532488688E+02  0.18726254619E+02  0.00000000000E+00 0. -1.
         11    1    3    3    0    0 -0.18587793943E+02 -0.71150053540E+01 -0.20450360275E+02  0.28536759110E+02  0.51100000000E-03 0. -1.
        -11    1    3    3    0    0 -0.10678442283E+02  0.11050008750E+02  0.99017850517E+01  0.18280513408E+02  0.51100000000E-03 0.  1.
         12    1    3    3    0    0  0.13804713876E+02 -0.47600007991E+01  0.21081063911E+02  0.25644472863E+02  0.00000000000E+00 0. -1.
</event>
<event>
 7    1  0.1283194E-013  0.7246111E+02  0.7816164E-02  0.1226709E+00
        -11   -1    0    0    0    0  0.00000000000E+00  0.00000000000E+00  0.45593999997E+02  0.45594000000E+02  0.51100000000E-03 0.  1.
         11   -1    0    0    0    0 -0.00000000000E+00 -0.00000000000E+00 -0.45593999997E+02  0.45594000000E+02  0.51100000000E-03 0. -1.
    9900012    2    1    2    0    0 -0.18219968286E+02 -0.40108410487E+01 -0.16254830443E+01  0.72461113302E+02  0.69999404680E+02 0.  0.
         12    1    1    2    0    0  0.18219968286E+02  0.40108410487E+01  0.16254830443E+01  0.18726886698E+02  0.00000000000E+00 0. -1.
         11    1    3    3    0    0 -0.34591572568E+02  0.15538612312E+02 -0.14290594453E+02  0.40524640102E+02  0.51100000000E-03 0. -1.
        -11    1    3    3    0    0  0.13301242142E+02 -0.66752393039E+01  0.21586535737E+01  0.15038006776E+02  0.51100000000E-03 0.  1.
         12    1    3    3    0    0  0.30703621398E+01 -0.12874214057E+02  0.10506457835E+02  0.16898466424E+02  0.00000000000E+00 0. -1.
</event>
<event>
 7    1  0.1283194E-013  0.7246150E+02  0.7816164E-02  0.1226708E+00
        -11   -1    0    0    0    0  0.00000000000E+00  0.00000000000E+00  0.45593999997E+02  0.45594000000E+02  0.51100000000E-03 0. -1.
         11   -1    0    0    0    0 -0.00000000000E+00 -0.00000000000E+00 -0.45593999997E+02  0.45594000000E+02  0.51100000000E-03 0.  1.
    9900012    2    1    2    0    0 -0.87374537789E+01 -0.10895479135E+02 -0.12475069491E+02  0.72461496778E+02  0.69999904231E+02 0.  0.
         12    1    1    2    0    0  0.87374537789E+01  0.10895479135E+02  0.12475069491E+02  0.18726503222E+02  0.00000000000E+00 0. -1.
         11    1    3    3    0    0 -0.15195187520E+02 -0.11574912256E+02  0.12879787045E+01  0.19145004751E+02  0.51100000000E-03 0. -1.
        -11    1    3    3    0    0  0.17209484450E+01  0.72059844900E+01 -0.32280224135E+02  0.33119491942E+02  0.51100000000E-03 0.  1.
        -12    1    3    3    0    0  0.47367852960E+01 -0.65265513683E+01  0.18517175939E+02  0.20197000086E+02  0.00000000000E+00 0.  1.
</event>
<event>
 7    1  0.1283194E-013  0.7246160E+02  0.7816164E-02  0.1226708E+00
        -11   -1    0    0    0    0  0.00000000000E+00  0.00000000000E+00  0.45593999997E+02  0.45594000000E+02  0.51100000000E-03 0.  1.
         11   -1    0    0    0    0 -0.00000000000E+00 -0.00000000000E+00 -0.45593999997E+02  0.45594000000E+02  0.51100000000E-03 0. -1.
    9900012    2    1    2    0    0  0.12902918928E+02  0.33125382260E+01  0.13161299503E+02  0.72461600694E+02  0.70000039602E+02 0.  0.
         12    1    1    2    0    0 -0.12902918928E+02 -0.33125382260E+01 -0.13161299503E+02  0.18726399306E+02  0.00000000000E+00 0. -1.
         11    1    3    3    0    0  0.17938510063E+02 -0.12077778835E+02  0.17631396733E+01  0.21697270489E+02  0.51100000000E-03 0. -1.
        -11    1    3    3    0    0  0.85092315930E+01  0.16544967552E+02  0.25244923720E+02  0.31359992785E+02  0.51100000000E-03 0.  1.
        -12    1    3    3    0    0 -0.13544822729E+02 -0.11546504908E+01 -0.13846763890E+02  0.19404337421E+02  0.00000000000E+00 0.  1.
</event>
<event>
 7    1  0.1283194E-013  0.7246157E+02  0.7816164E-02  0.1226708E+00
        -11   -1    0    0    0    0  0.00000000000E+00  0.00000000000E+00  0.45593999997E+02  0.45594000000E+02  0.51100000000E-03 0.  1.
         11   -1    0    0    0    0 -0.00000000000E+00 -0.00000000000E+00 -0.45593999997E+02  0.45594000000E+02  0.51100000000E-03 0. -1.
    9900012    2    1    2    0    0  0.17378950760E+02 -0.68497362202E+01  0.13162512088E+01  0.72461565928E+02  0.69999994313E+02 0.  0.
         12    1    1    2    0    0 -0.17378950760E+02  0.68497362202E+01 -0.13162512088E+01  0.18726434072E+02  0.00000000000E+00 0. -1.
         11    1    3    3    0    0 -0.19837499660E+01  0.24140855845E+02  0.74693218868E+01  0.25347720895E+02  0.51100000000E-03 0. -1.
        -11    1    3    3    0    0  0.45227250878E+01 -0.30219813857E+02  0.11043733904E+01  0.30576327978E+02  0.51100000000E-03 0.  1.
         12    1    3    3    0    0  0.14839975638E+02 -0.77077820816E+00 -0.72574440684E+01  0.16537517056E+02  0.00000000000E+00 0. -1.
</event>
<event>
 7    1  0.1283194E-013  0.7246157E+02  0.7816164E-02  0.1226708E+00
        -11   -1    0    0    0    0  0.00000000000E+00  0.00000000000E+00  0.45593999997E+02  0.45594000000E+02  0.51100000000E-03 0.  1.
         11   -1    0    0    0    0 -0.00000000000E+00 -0.00000000000E+00 -0.45593999997E+02  0.45594000000E+02  0.51100000000E-03 0. -1.
    9900012    2    1    2    0    0 -0.46379601778E+01  0.11038021655E+01  0.18109395010E+02  0.72461568373E+02  0.69999997497E+02 0.  0.
         12    1    1    2    0    0  0.46379601778E+01 -0.11038021655E+01 -0.18109395010E+02  0.18726431627E+02  0.00000000000E+00 0. -1.
         11    1    3    3    0    0  0.10790805260E+02 -0.22306032072E+01 -0.11237289682E+02  0.15738289249E+02  0.51100000000E-03 0. -1.
        -11    1    3    3    0    0 -0.58903394372E+01  0.24183593379E+02  0.20132904895E+02  0.32013686873E+02  0.51100000000E-03 0.  1.
        -12    1    3    3    0    0 -0.95384260001E+01 -0.20849188007E+02  0.92137797972E+01  0.24709592252E+02  0.00000000000E+00 0.  1.
</event>
<event>
 7    1  0.1283194E-013  0.7246155E+02  0.7816164E-02  0.1226708E+00
        -11   -1    0    0    0    0  0.00000000000E+00  0.00000000000E+00  0.45593999997E+02  0.45594000000E+02  0.51100000000E-03 0. -1.
         11   -1    0    0    0    0 -0.00000000000E+00 -0.00000000000E+00 -0.45593999997E+02  0.45594000000E+02  0.51100000000E-03 0.  1.
    9900012    2    1    2    0    0 -0.23581465342E+01  0.12393450543E+02 -0.13839121696E+02  0.72461554508E+02  0.69999979435E+02 0.  0.
         12    1    1    2    0    0  0.23581465342E+01 -0.12393450543E+02  0.13839121696E+02  0.18726445492E+02  0.00000000000E+00 0. -1.
         11    1    3    3    0    0 -0.10018856551E+02  0.10500479600E+02 -0.44193420481E+01  0.15171293380E+02  0.51100000000E-03 0. -1.
        -11    1    3    3    0    0  0.90979282332E+01 -0.20786616983E+02 -0.21753790134E+02  0.31433789609E+02  0.51100000000E-03 0.  1.
        -12    1    3    3    0    0 -0.14372182161E+01  0.22679587927E+02  0.12334010486E+02  0.25856471519E+02  0.00000000000E+00 0.  1.
</event>
<event>
 7    1  0.1283194E-013  0.7246157E+02  0.7816164E-02  0.1226708E+00
        -11   -1    0    0    0    0  0.00000000000E+00  0.00000000000E+00  0.45593999997E+02  0.45594000000E+02  0.51100000000E-03 0. -1.
         11   -1    0    0    0    0 -0.00000000000E+00 -0.00000000000E+00 -0.45593999997E+02  0.45594000000E+02  0.51100000000E-03 0.  1.
    9900012    2    1    2    0    0  0.77679810021E+00 -0.16994120154E+02 -0.78278809412E+01  0.72461568008E+02  0.69999997022E+02 0.  0.
         12    1    1    2    0    0 -0.77679810021E+00  0.16994120154E+02  0.78278809412E+01  0.18726431992E+02  0.00000000000E+00 0. -1.
         11    1    3    3    0    0  0.95550710941E+01 -0.30778584537E+02  0.19424651840E+02  0.37628948286E+02  0.51100000000E-03 0. -1.
        -11    1    3    3    0    0 -0.36944578846E+01  0.15262108517E+02 -0.16113482058E+02  0.22499450654E+02  0.51100000000E-03 0.  1.
         12    1    3    3    0    0 -0.50838151092E+01 -0.14776441341E+01 -0.11139050724E+02  0.12333169069E+02  0.00000000000E+00 0. -1.
</event>
<event>
 7    1  0.1283194E-013  0.7246153E+02  0.7816164E-02  0.1226708E+00
        -11   -1    0    0    0    0  0.00000000000E+00  0.00000000000E+00  0.45593999997E+02  0.45594000000E+02  0.51100000000E-03 0. -1.
         11   -1    0    0    0    0 -0.00000000000E+00 -0.00000000000E+00 -0.45593999997E+02  0.45594000000E+02  0.51100000000E-03 0.  1.
    9900012    2    1    2    0    0  0.15726388506E+02 -0.86694326514E+01 -0.53105931143E+01  0.72461527904E+02  0.69999944778E+02 0.  0.
         12    1    1    2    0    0 -0.15726388506E+02  0.86694326514E+01  0.53105931143E+01  0.18726472096E+02  0.00000000000E+00 0. -1.
         11    1    3    3    0    0  0.21271901183E+02 -0.17253578848E+02  0.67022603057E+00  0.27397608768E+02  0.51100000000E-03 0. -1.
        -11    1    3    3    0    0 -0.48237383848E+01  0.25558983944E+02 -0.95407387107E+01  0.27704797557E+02  0.51100000000E-03 0.  1.
         12    1    3    3    0    0 -0.72177429134E+00 -0.16974837747E+02  0.35599195658E+01  0.17359121579E+02  0.00000000000E+00 0. -1.
</event>
<event>
 7    1  0.1283194E-013  0.7246163E+02  0.7816164E-02  0.1226708E+00
        -11   -1    0    0    0    0  0.00000000000E+00  0.00000000000E+00  0.45593999997E+02  0.45594000000E+02  0.51100000000E-03 0.  1.
         11   -1    0    0    0    0 -0.00000000000E+00 -0.00000000000E+00 -0.45593999997E+02  0.45594000000E+02  0.51100000000E-03 0. -1.
    9900012    2    1    2    0    0 -0.11270322747E+02  0.14953832859E+02  0.19923893796E+00  0.72461628537E+02  0.70000075872E+02 0.  0.
         12    1    1    2    0    0  0.11270322747E+02 -0.14953832859E+02 -0.19923893796E+00  0.18726371463E+02  0.00000000000E+00 0. -1.
         11    1    3    3    0    0 -0.77079622415E+01 -0.54814159761E+01 -0.27689921983E+02  0.29260731069E+02  0.51100000000E-03 0. -1.
        -11    1    3    3    0    0 -0.67039616026E+01  0.57455887435E+01  0.26711591178E+02  0.28132969887E+02  0.51100000000E-03 0.  1.
         12    1    3    3    0    0  0.31416010970E+01  0.14689660092E+02  0.11775697432E+01  0.15067927580E+02  0.00000000000E+00 0. -1.
</event>
<event>
 7    1  0.1283194E-013  0.7246170E+02  0.7816164E-02  0.1226708E+00
        -11   -1    0    0    0    0  0.00000000000E+00  0.00000000000E+00  0.45593999997E+02  0.45594000000E+02  0.51100000000E-03 0.  1.
         11   -1    0    0    0    0 -0.00000000000E+00 -0.00000000000E+00 -0.45593999997E+02  0.45594000000E+02  0.51100000000E-03 0. -1.
    9900012    2    1    2    0    0  0.15821721821E+02  0.10009821082E+02  0.38865295126E+00  0.72461696291E+02  0.70000164134E+02 0.  0.
         12    1    1    2    0    0 -0.15821721821E+02 -0.10009821082E+02 -0.38865295126E+00  0.18726303709E+02  0.00000000000E+00 0. -1.
         11    1    3    3    0    0  0.18238161196E+02 -0.90579354001E+01 -0.21182498099E+02  0.29383242563E+02  0.51100000000E-03 0. -1.
        -11    1    3    3    0    0  0.95284803950E+01  0.22840522674E+02  0.13768683157E+02  0.28320629421E+02  0.51100000000E-03 0.  1.
         12    1    3    3    0    0 -0.11944919771E+02 -0.37727661913E+01  0.78024678937E+01  0.14757824308E+02  0.00000000000E+00 0. -1.
</event>
<event>
 7    1  0.1283194E-013  0.7246156E+02  0.7816164E-02  0.1226708E+00
        -11   -1    0    0    0    0  0.00000000000E+00  0.00000000000E+00  0.45593999997E+02  0.45594000000E+02  0.51100000000E-03 0.  1.
         11   -1    0    0    0    0 -0.00000000000E+00 -0.00000000000E+00 -0.45593999997E+02  0.45594000000E+02  0.51100000000E-03 0. -1.
    9900012    2    1    2    0    0  0.84664950004E+01  0.37570274841E+01  0.16275223385E+02  0.72461556415E+02  0.69999981919E+02 0.  0.
         12    1    1    2    0    0 -0.84664950004E+01 -0.37570274841E+01 -0.16275223385E+02  0.18726443585E+02  0.00000000000E+00 0. -1.
         11    1    3    3    0    0 -0.88930990620E+01 -0.84924607005E+01  0.23792862944E+02  0.26782632937E+02  0.51100000000E-03 0. -1.
        -11    1    3    3    0    0  0.27699717750E+02 -0.98397141025E+00 -0.80942830585E+01  0.28874902279E+02  0.51100000000E-03 0.  1.
         12    1    3    3    0    0 -0.10340123687E+02  0.13233459595E+02  0.57664349957E+00  0.16804021199E+02  0.00000000000E+00 0. -1.
</event>
<event>
 7    1  0.1283194E-013  0.7246157E+02  0.7816164E-02  0.1226708E+00
        -11   -1    0    0    0    0  0.00000000000E+00  0.00000000000E+00  0.45593999997E+02  0.45594000000E+02  0.51100000000E-03 0.  1.
         11   -1    0    0    0    0 -0.00000000000E+00 -0.00000000000E+00 -0.45593999997E+02  0.45594000000E+02  0.51100000000E-03 0. -1.
    9900012    2    1    2    0    0  0.34361545646E-01 -0.12457480936E+02 -0.13981744084E+02  0.72461570025E+02  0.69999999649E+02 0.  0.
         12    1    1    2    0    0 -0.34361545646E-01  0.12457480936E+02  0.13981744084E+02  0.18726429975E+02  0.00000000000E+00 0. -1.
         11    1    3    3    0    0  0.66105773934E+01 -0.18332748458E+02  0.20554840556E+02  0.28324739541E+02  0.51100000000E-03 0.  1.
        -11    1    3    3    0    0 -0.10189533985E+01  0.13015055958E+02 -0.32268439452E+02  0.34809224819E+02  0.51100000000E-03 0. -1.
         12    1    3    3    0    0 -0.55572624492E+01 -0.71397884362E+01 -0.22681451888E+01  0.93276056650E+01  0.00000000000E+00 0. -1.
</event>
<event>
 7    1  0.1283194E-013  0.7246154E+02  0.7816164E-02  0.1226708E+00
        -11   -1    0    0    0    0  0.00000000000E+00  0.00000000000E+00  0.45593999997E+02  0.45594000000E+02  0.51100000000E-03 0.  1.
         11   -1    0    0    0    0 -0.00000000000E+00 -0.00000000000E+00 -0.45593999997E+02  0.45594000000E+02  0.51100000000E-03 0. -1.
    9900012    2    1    2    0    0  0.61257217019E+01  0.50942153447E+01  0.16947118150E+02  0.72461539845E+02  0.69999960334E+02 0.  0.
         12    1    1    2    0    0 -0.61257217019E+01 -0.50942153447E+01 -0.16947118150E+02  0.18726460155E+02  0.00000000000E+00 0. -1.
         11    1    3    3    0    0  0.45622031432E+01  0.15900296533E+02 -0.99793836656E+01  0.19318934390E+02  0.51100000000E-03 0. -1.
        -11    1    3    3    0    0  0.19567701701E+02 -0.14946642285E+02  0.24098257731E+02  0.34453201467E+02  0.51100000000E-03 0.  1.
        -12    1    3    3    0    0 -0.18004183142E+02  0.41405610959E+01  0.28282440852E+01  0.18689403987E+02  0.00000000000E+00 0.  1.
</event>
<event>
 7    1  0.1283194E-013  0.7246158E+02  0.7816164E-02  0.1226708E+00
        -11   -1    0    0    0    0  0.00000000000E+00  0.00000000000E+00  0.45593999997E+02  0.45594000000E+02  0.51100000000E-03 0.  1.
         11   -1    0    0    0    0 -0.00000000000E+00 -0.00000000000E+00 -0.45593999997E+02  0.45594000000E+02  0.51100000000E-03 0. -1.
    9900012    2    1    2    0    0 -0.11036948532E+01  0.13757499226E+02  0.12656694310E+02  0.72461579143E+02  0.70000011527E+02 0.  0.
         12    1    1    2    0    0  0.11036948532E+01 -0.13757499226E+02 -0.12656694310E+02  0.18726420857E+02  0.00000000000E+00 0. -1.
         11    1    3    3    0    0  0.15226593929E+02  0.16801983169E+02  0.27582814228E+01  0.22842152214E+02  0.51100000000E-03 0. -1.
        -11    1    3    3    0    0 -0.29214056759E+02  0.93664537994E+01  0.73781795537E+01  0.31553590967E+02  0.51100000000E-03 0.  1.
        -12    1    3    3    0    0  0.12883767977E+02 -0.12410937743E+02  0.25202333331E+01  0.18065835962E+02  0.00000000000E+00 0.  1.
</event>
<event>
 7    1  0.1283194E-013  0.7246148E+02  0.7816164E-02  0.1226708E+00
        -11   -1    0    0    0    0  0.00000000000E+00  0.00000000000E+00  0.45593999997E+02  0.45594000000E+02  0.51100000000E-03 0.  1.
         11   -1    0    0    0    0 -0.00000000000E+00 -0.00000000000E+00 -0.45593999997E+02  0.45594000000E+02  0.51100000000E-03 0. -1.
    9900012    2    1    2    0    0  0.11505757559E+01  0.81020299030E+01  0.16843863918E+02  0.72461482310E+02  0.69999885384E+02 0.  0.
         12    1    1    2    0    0 -0.11505757559E+01 -0.81020299030E+01 -0.16843863918E+02  0.18726517690E+02  0.00000000000E+00 0. -1.
         11    1    3    3    0    0 -0.19745053669E+02 -0.59371118367E+01 -0.11687877858E+02  0.23700694725E+02  0.51100000000E-03 0. -1.
        -11    1    3    3    0    0  0.22907843580E+02  0.56516505136E+00  0.26422937669E+02  0.34975138947E+02  0.51100000000E-03 0.  1.
        -12    1    3    3    0    0 -0.20122141556E+01  0.13473976688E+02  0.21088041070E+01  0.13785648638E+02  0.00000000000E+00 0.  1.
</event>
<event>
 7    1  0.1283194E-013  0.7246149E+02  0.7816164E-02  0.1226708E+00
        -11   -1    0    0    0    0  0.00000000000E+00  0.00000000000E+00  0.45593999997E+02  0.45594000000E+02  0.51100000000E-03 0.  1.
         11   -1    0    0    0    0 -0.00000000000E+00 -0.00000000000E+00 -0.45593999997E+02  0.45594000000E+02  0.51100000000E-03 0. -1.
    9900012    2    1    2    0    0 -0.24187890645E+01  0.68206681625E+01  0.17271658737E+02  0.72461488039E+02  0.69999892846E+02 0.  0.
         12    1    1    2    0    0  0.24187890645E+01 -0.68206681625E+01 -0.17271658737E+02  0.18726511961E+02  0.00000000000E+00 0. -1.
         11    1    3    3    0    0 -0.22071733383E+01 -0.18632976893E+02 -0.16949579281E+02  0.25285325390E+02  0.51100000000E-03 0. -1.
        -11    1    3    3    0    0  0.87376912534E+01  0.73210967330E+01  0.17753160618E+02  0.21097877097E+02  0.51100000000E-03 0.  1.
         12    1    3    3    0    0 -0.89493069796E+01  0.18132548322E+02  0.16468077400E+02  0.26078285551E+02  0.00000000000E+00 0. -1.
</event>
<event>
 7    1  0.1283194E-013  0.7246143E+02  0.7816164E-02  0.1226708E+00
        -11   -1    0    0    0    0  0.00000000000E+00  0.00000000000E+00  0.45593999997E+02  0.45594000000E+02  0.51100000000E-03 0. -1.
         11   -1    0    0    0    0 -0.00000000000E+00 -0.00000000000E+00 -0.45593999997E+02  0.45594000000E+02  0.51100000000E-03 0.  1.
    9900012    2    1    2    0    0 -0.76384975819E+01 -0.16926139566E+02 -0.24173335145E+01  0.72461432049E+02  0.69999819909E+02 0.  0.
         12    1    1    2    0    0  0.76384975819E+01  0.16926139566E+02  0.24173335145E+01  0.18726567951E+02  0.00000000000E+00 0. -1.
         11    1    3    3    0    0  0.17827909142E+02  0.10715040221E+02  0.12056132927E+02  0.24041563441E+02  0.51100000000E-03 0. -1.
        -11    1    3    3    0    0 -0.24752937681E+02 -0.72688098794E+01 -0.88442481177E+01  0.27272041470E+02  0.51100000000E-03 0.  1.
        -12    1    3    3    0    0 -0.71346904284E+00 -0.20372369907E+02 -0.56292183236E+01  0.21147827138E+02  0.00000000000E+00 0.  1.
</event>
<event>
 7    1  0.1283194E-013  0.7246156E+02  0.7816164E-02  0.1226708E+00
        -11   -1    0    0    0    0  0.00000000000E+00  0.00000000000E+00  0.45593999997E+02  0.45594000000E+02  0.51100000000E-03 0. -1.
         11   -1    0    0    0    0 -0.00000000000E+00 -0.00000000000E+00 -0.45593999997E+02  0.45594000000E+02  0.51100000000E-03 0.  1.
    9900012    2    1    2    0    0 -0.52945246079E+01  0.63213973800E+01 -0.16813310262E+02  0.72461562602E+02  0.69999989980E+02 0.  0.
         12    1    1    2    0    0  0.52945246079E+01 -0.63213973800E+01  0.16813310262E+02  0.18726437398E+02  0.00000000000E+00 0. -1.
         11    1    3    3    0    0  0.10774677986E+02 -0.58134900808E+01 -0.33677859760E+02  0.35834181879E+02  0.51100000000E-03 0.  1.
        -11    1    3    3    0    0 -0.10194583423E+02  0.19701697191E+02  0.80172338757E+01  0.23587336490E+02  0.51100000000E-03 0. -1.
        -12    1    3    3    0    0 -0.58746191706E+01 -0.75668097305E+01  0.88473156228E+01  0.13040044234E+02  0.00000000000E+00 0.  1.
</event>
<event>
 7    1  0.1283194E-013  0.7246160E+02  0.7816164E-02  0.1226708E+00
        -11   -1    0    0    0    0  0.00000000000E+00  0.00000000000E+00  0.45593999997E+02  0.45594000000E+02  0.51100000000E-03 0. -1.
         11   -1    0    0    0    0 -0.00000000000E+00 -0.00000000000E+00 -0.45593999997E+02  0.45594000000E+02  0.51100000000E-03 0.  1.
    9900012    2    1    2    0    0  0.15178155470E+02 -0.10619183989E+02  0.27449079176E+01  0.72461601747E+02  0.70000040972E+02 0.  0.
         12    1    1    2    0    0 -0.15178155470E+02  0.10619183989E+02 -0.27449079176E+01  0.18726398253E+02  0.00000000000E+00 0. -1.
         11    1    3    3    0    0  0.11954003824E+02 -0.26350911556E+02  0.21808142168E+02  0.36233462605E+02  0.51100000000E-03 0. -1.
        -11    1    3    3    0    0 -0.61947980442E+01  0.19462743779E+02 -0.10514876960E+02  0.22972517406E+02  0.51100000000E-03 0.  1.
         12    1    3    3    0    0  0.94189496903E+01 -0.37310162113E+01 -0.85483572902E+01  0.13255621736E+02  0.00000000000E+00 0. -1.
</event>
<event>
 7    1  0.1283194E-013  0.7246163E+02  0.7816164E-02  0.1226708E+00
        -11   -1    0    0    0    0  0.00000000000E+00  0.00000000000E+00  0.45593999997E+02  0.45594000000E+02  0.51100000000E-03 0. -1.
         11   -1    0    0    0    0 -0.00000000000E+00 -0.00000000000E+00 -0.45593999997E+02  0.45594000000E+02  0.51100000000E-03 0.  1.
    9900012    2    1    2    0    0  0.65349635774E+01  0.16264660697E+01 -0.17473572112E+02  0.72461631874E+02  0.70000080219E+02 0.  0.
         12    1    1    2    0    0 -0.65349635774E+01 -0.16264660697E+01  0.17473572112E+02  0.18726368126E+02  0.00000000000E+00 0. -1.
         11    1    3    3    0    0 -0.86399189188E+01  0.13204699058E+02 -0.40374143236E+00  0.15785286933E+02  0.51100000000E-03 0. -1.
        -11    1    3    3    0    0  0.12075969423E+02 -0.31569661287E+02 -0.10052539901E+02  0.35263665578E+02  0.51100000000E-03 0.  1.
        -12    1    3    3    0    0  0.30989130731E+01  0.19991428299E+02 -0.70172907782E+01  0.21412679363E+02  0.00000000000E+00 0.  1.
</event>
<event>
 7    1  0.1283194E-013  0.7246161E+02  0.7816164E-02  0.1226708E+00
        -11   -1    0    0    0    0  0.00000000000E+00  0.00000000000E+00  0.45593999997E+02  0.45594000000E+02  0.51100000000E-03 0. -1.
         11   -1    0    0    0    0 -0.00000000000E+00 -0.00000000000E+00 -0.45593999997E+02  0.45594000000E+02  0.51100000000E-03 0.  1.
    9900012    2    1    2    0    0 -0.79877156849E+01  0.20332081338E+01 -0.16814881937E+02  0.72461607081E+02  0.70000047922E+02 0.  0.
         12    1    1    2    0    0  0.79877156849E+01 -0.20332081338E+01  0.16814881937E+02  0.18726392919E+02  0.00000000000E+00 0. -1.
         11    1    3    3    0    0  0.34839368686E+01 -0.36220909851E-01  0.19834530361E+02  0.20138215486E+02  0.51100000000E-03 0. -1.
        -11    1    3    3    0    0  0.90276875478E+01 -0.63435847519E+01 -0.24916637600E+02  0.27250303475E+02  0.51100000000E-03 0.  1.
         12    1    3    3    0    0 -0.20499340101E+02  0.84130137955E+01 -0.11732774699E+02  0.25073088120E+02  0.00000000000E+00 0. -1.
</event>
<event>
 7    1  0.1283194E-013  0.7246160E+02  0.7816164E-02  0.1226708E+00
        -11   -1    0    0    0    0  0.00000000000E+00  0.00000000000E+00  0.45593999997E+02  0.45594000000E+02  0.51100000000E-03 0.  1.
         11   -1    0    0    0    0 -0.00000000000E+00 -0.00000000000E+00 -0.45593999997E+02  0.45594000000E+02  0.51100000000E-03 0. -1.
    9900012    2    1    2    0    0  0.17096746347E+02 -0.58053721159E+01  0.49675738924E+01  0.72461604954E+02  0.70000045151E+02 0.  0.
         12    1    1    2    0    0 -0.17096746347E+02  0.58053721159E+01 -0.49675738924E+01  0.18726395046E+02  0.00000000000E+00 0. -1.
         11    1    3    3    0    0 -0.12183690861E+02 -0.69998745041E+00 -0.66212054858E+01  0.13884259713E+02  0.51100000000E-03 0. -1.
        -11    1    3    3    0    0  0.19035390905E+02  0.50894469791E+00  0.30730603972E+02  0.36152111313E+02  0.51100000000E-03 0.  1.
        -12    1    3    3    0    0  0.10245046303E+02 -0.56143293634E+01 -0.19141824594E+02  0.22425233928E+02  0.00000000000E+00 0.  1.
</event>
<event>
 7    1  0.1283194E-013  0.7246155E+02  0.7816164E-02  0.1226708E+00
        -11   -1    0    0    0    0  0.00000000000E+00  0.00000000000E+00  0.45593999997E+02  0.45594000000E+02  0.51100000000E-03 0.  1.
         11   -1    0    0    0    0 -0.00000000000E+00 -0.00000000000E+00 -0.45593999997E+02  0.45594000000E+02  0.51100000000E-03 0. -1.
    9900012    2    1    2    0    0  0.85371112900E+01  0.13085252162E+02  0.10323465685E+02  0.72461547130E+02  0.69999969825E+02 0.  0.
         12    1    1    2    0    0 -0.85371112900E+01 -0.13085252162E+02 -0.10323465685E+02  0.18726452870E+02  0.00000000000E+00 0. -1.
         11    1    3    3    0    0  0.61979614827E+01 -0.81949507406E+01 -0.13305407959E+01  0.10360612108E+02  0.51100000000E-03 0. -1.
        -11    1    3    3    0    0 -0.29106292490E+01  0.26782727367E+02 -0.17398085410E+02  0.32069917742E+02  0.51100000000E-03 0.  1.
        -12    1    3    3    0    0  0.52497790563E+01 -0.55025244641E+01  0.29052091891E+02  0.30031017280E+02  0.00000000000E+00 0.  1.
</event>
<event>
 7    1  0.1283194E-013  0.7246150E+02  0.7816164E-02  0.1226708E+00
        -11   -1    0    0    0    0  0.00000000000E+00  0.00000000000E+00  0.45593999997E+02  0.45594000000E+02  0.51100000000E-03 0. -1.
         11   -1    0    0    0    0 -0.00000000000E+00 -0.00000000000E+00 -0.45593999997E+02  0.45594000000E+02  0.51100000000E-03 0.  1.
    9900012    2    1    2    0    0 -0.15611196145E+02 -0.73013156559E+01 -0.73255139401E+01  0.72461499796E+02  0.69999908163E+02 0.  0.
         12    1    1    2    0    0  0.15611196145E+02  0.73013156559E+01  0.73255139401E+01  0.18726500204E+02  0.00000000000E+00 0. -1.
         11    1    3    3    0    0  0.90696136504E+01  0.13633568849E+02  0.74521199606E+01  0.17990724930E+02  0.51100000000E-03 0. -1.
        -11    1    3    3    0    0 -0.21193499988E+02 -0.84661341886E+01 -0.27894113287E+02  0.36040552523E+02  0.51100000000E-03 0.  1.
        -12    1    3    3    0    0 -0.34873098071E+01 -0.12468750316E+02  0.13116479386E+02  0.18430222343E+02  0.00000000000E+00 0.  1.
</event>
<event>
 7    1  0.1283194E-013  0.7246159E+02  0.7816164E-02  0.1226708E+00
        -11   -1    0    0    0    0  0.00000000000E+00  0.00000000000E+00  0.45593999997E+02  0.45594000000E+02  0.51100000000E-03 0.  1.
         11   -1    0    0    0    0 -0.00000000000E+00 -0.00000000000E+00 -0.45593999997E+02  0.45594000000E+02  0.51100000000E-03 0. -1.
    9900012    2    1    2    0    0 -0.43884972169E+01  0.27722934612E+01  0.17992607289E+02  0.72461589882E+02  0.70000025516E+02 0.  0.
         12    1    1    2    0    0  0.43884972169E+01 -0.27722934612E+01 -0.17992607289E+02  0.18726410118E+02  0.00000000000E+00 0. -1.
         11    1    3    3    0    0  0.18451247193E+02 -0.46934132523E+01  0.14683505493E+02  0.24043335558E+02  0.51100000000E-03 0. -1.
        -11    1    3    3    0    0 -0.55047063347E+01  0.14015336871E+02 -0.15781648548E+02  0.21812654368E+02  0.51100000000E-03 0.  1.
        -12    1    3    3    0    0 -0.17335038075E+02 -0.65496301571E+01  0.19090750344E+02  0.26605599955E+02  0.00000000000E+00 0.  1.
</event>
<event>
 7    1  0.1283194E-013  0.7246154E+02  0.7816164E-02  0.1226708E+00
        -11   -1    0    0    0    0  0.00000000000E+00  0.00000000000E+00  0.45593999997E+02  0.45594000000E+02  0.51100000000E-03 0.  1.
         11   -1    0    0    0    0 -0.00000000000E+00 -0.00000000000E+00 -0.45593999997E+02  0.45594000000E+02  0.51100000000E-03 0. -1.
    9900012    2    1    2    0    0 -0.31264043067E+01  0.17209466396E+02  0.66888097054E+01  0.72461539769E+02  0.69999960235E+02 0.  0.
         12    1    1    2    0    0  0.31264043067E+01 -0.17209466396E+02 -0.66888097054E+01  0.18726460231E+02  0.00000000000E+00 0. -1.
         11    1    3    3    0    0  0.38172925970E+01 -0.16222535174E+01 -0.83104903412E+01  0.92880395789E+01  0.51100000000E-03 0. -1.
        -11    1    3    3    0    0 -0.27717878839E+02  0.15875918635E+02 -0.70756927056E+01  0.32716830949E+02  0.51100000000E-03 0.  1.
        -12    1    3    3    0    0  0.20774181935E+02  0.29558012778E+01  0.22074992752E+02  0.30456669241E+02  0.00000000000E+00 0.  1.
</event>
<event>
 7    1  0.1283194E-013  0.7246156E+02  0.7816164E-02  0.1226708E+00
        -11   -1    0    0    0    0  0.00000000000E+00  0.00000000000E+00  0.45593999997E+02  0.45594000000E+02  0.51100000000E-03 0. -1.
         11   -1    0    0    0    0 -0.00000000000E+00 -0.00000000000E+00 -0.45593999997E+02  0.45594000000E+02  0.51100000000E-03 0.  1.
    9900012    2    1    2    0    0  0.67757339844E+01 -0.93002736156E+01 -0.14774090288E+02  0.72461564029E+02  0.69999991838E+02 0.  0.
         12    1    1    2    0    0 -0.67757339844E+01  0.93002736156E+01  0.14774090288E+02  0.18726435971E+02  0.00000000000E+00 0. -1.
         11    1    3    3    0    0 -0.21770617596E+02 -0.20047544600E+02 -0.13512998790E+01  0.29625830733E+02  0.51100000000E-03 0. -1.
        -11    1    3    3    0    0  0.10729377107E+02  0.18211133798E+02 -0.47658618098E+01  0.21667449466E+02  0.51100000000E-03 0.  1.
        -12    1    3    3    0    0  0.17816974474E+02 -0.74638628141E+01 -0.86569285992E+01  0.21168283830E+02  0.00000000000E+00 0.  1.
</event>
<event>
 7    1  0.1283194E-013  0.7246161E+02  0.7816164E-02  0.1226708E+00
        -11   -1    0    0    0    0  0.00000000000E+00  0.00000000000E+00  0.45593999997E+02  0.45594000000E+02  0.51100000000E-03 0. -1.
         11   -1    0    0    0    0 -0.00000000000E+00 -0.00000000000E+00 -0.45593999997E+02  0.45594000000E+02  0.51100000000E-03 0.  1.
    9900012    2    1    2    0    0 -0.87325422022E+01  0.49362250907E+00 -0.16558283150E+02  0.72461609601E+02  0.70000051204E+02 0.  0.
         12    1    1    2    0    0  0.87325422022E+01 -0.49362250907E+00  0.16558283150E+02  0.18726390399E+02  0.00000000000E+00 0. -1.
         11    1    3    3    0    0 -0.45977200116E+01  0.18019018366E+02  0.21636189570E+02  0.28529787093E+02  0.51100000000E-03 0. -1.
        -11    1    3    3    0    0 -0.50211802339E+01 -0.13432311713E+02 -0.16605578514E+02  0.21940475996E+02  0.51100000000E-03 0.  1.
         12    1    3    3    0    0  0.88635804328E+00 -0.40930841438E+01 -0.21588894206E+02  0.21991346512E+02  0.00000000000E+00 0. -1.
</event>
<event>
 7    1  0.1283194E-013  0.7246153E+02  0.7816164E-02  0.1226708E+00
        -11   -1    0    0    0    0  0.00000000000E+00  0.00000000000E+00  0.45593999997E+02  0.45594000000E+02  0.51100000000E-03 0. -1.
         11   -1    0    0    0    0 -0.00000000000E+00 -0.00000000000E+00 -0.45593999997E+02  0.45594000000E+02  0.51100000000E-03 0.  1.
    9900012    2    1    2    0    0  0.10437301515E+02 -0.81108862354E+00 -0.15526934676E+02  0.72461526010E+02  0.69999942312E+02 0.  0.
         12    1    1    2    0    0 -0.10437301515E+02  0.81108862354E+00  0.15526934676E+02  0.18726473990E+02  0.00000000000E+00 0. -1.
         11    1    3    3    0    0  0.49505634179E+01 -0.18339425550E+02 -0.99349126365E+00  0.19021819914E+02  0.51100000000E-03 0. -1.
        -11    1    3    3    0    0 -0.19291470219E+02  0.10422151606E+02 -0.16713904349E+02  0.27570576094E+02  0.51100000000E-03 0.  1.
        -12    1    3    3    0    0  0.24778208316E+02  0.71061853209E+01  0.21804609373E+01  0.25869130002E+02  0.00000000000E+00 0.  1.
</event>
<event>
 7    1  0.1283194E-013  0.7246164E+02  0.7816164E-02  0.1226708E+00
        -11   -1    0    0    0    0  0.00000000000E+00  0.00000000000E+00  0.45593999997E+02  0.45594000000E+02  0.51100000000E-03 0. -1.
         11   -1    0    0    0    0 -0.00000000000E+00 -0.00000000000E+00 -0.45593999997E+02  0.45594000000E+02  0.51100000000E-03 0.  1.
    9900012    2    1    2    0    0  0.11400393785E+02 -0.14845107308E+02 -0.57476197816E+00  0.72461640483E+02  0.70000091434E+02 0.  0.
         12    1    1    2    0    0 -0.11400393785E+02  0.14845107308E+02  0.57476197816E+00  0.18726359517E+02  0.00000000000E+00 0. -1.
         11    1    3    3    0    0 -0.23391314035E+01 -0.10076642373E+02  0.83362308730E+01  0.13285443262E+02  0.51100000000E-03 0. -1.
        -11    1    3    3    0    0 -0.25423824803E+01  0.17680090782E+02  0.14403905075E+02  0.22946062852E+02  0.51100000000E-03 0.  1.
        -12    1    3    3    0    0  0.16281907668E+02 -0.22448555717E+02 -0.23314897926E+02  0.36230134369E+02  0.00000000000E+00 0.  1.
</event>
<event>
 7    1  0.1283194E-013  0.7246159E+02  0.7816164E-02  0.1226708E+00
        -11   -1    0    0    0    0  0.00000000000E+00  0.00000000000E+00  0.45593999997E+02  0.45594000000E+02  0.51100000000E-03 0. -1.
         11   -1    0    0    0    0 -0.00000000000E+00 -0.00000000000E+00 -0.45593999997E+02  0.45594000000E+02  0.51100000000E-03 0.  1.
    9900012    2    1    2    0    0  0.14589281491E+02  0.82693814364E+01 -0.83335827219E+01  0.72461590714E+02  0.70000026600E+02 0.  0.
         12    1    1    2    0    0 -0.14589281491E+02 -0.82693814364E+01  0.83335827219E+01  0.18726409286E+02  0.00000000000E+00 0. -1.
         11    1    3    3    0    0 -0.15640177454E+02 -0.62138355186E+01 -0.12189358876E+02  0.20779975282E+02  0.51100000000E-03 0. -1.
        -11    1    3    3    0    0  0.17565647438E+02 -0.11187733500E+02 -0.55474285120E+01  0.21552060554E+02  0.51100000000E-03 0.  1.
        -12    1    3    3    0    0  0.12663811507E+02  0.25670950455E+02  0.94032046665E+01  0.30129554878E+02  0.00000000000E+00 0.  1.
</event>
<event>
 7    1  0.1283194E-013  0.7246176E+02  0.7816164E-02  0.1226708E+00
        -11   -1    0    0    0    0  0.00000000000E+00  0.00000000000E+00  0.45593999997E+02  0.45594000000E+02  0.51100000000E-03 0. -1.
         11   -1    0    0    0    0 -0.00000000000E+00 -0.00000000000E+00 -0.45593999997E+02  0.45594000000E+02  0.51100000000E-03 0.  1.
    9900012    2    1    2    0    0 -0.18335136033E+02 -0.93470123503E+00 -0.36907117664E+01  0.72461755499E+02  0.70000241263E+02 0.  0.
         12    1    1    2    0    0  0.18335136033E+02  0.93470123503E+00  0.36907117664E+01  0.18726244501E+02  0.00000000000E+00 0. -1.
         11    1    3    3    0    0 -0.15720623068E+01  0.24742946977E+02  0.13360321900E+02  0.28163504869E+02  0.51100000000E-03 0. -1.
        -11    1    3    3    0    0 -0.21928526344E+02 -0.18832558946E+02 -0.47347773932E+01  0.29290675330E+02  0.51100000000E-03 0.  1.
         12    1    3    3    0    0  0.51654526173E+01 -0.68450892664E+01 -0.12316256273E+02  0.15007575300E+02  0.00000000000E+00 0. -1.
</event>
<event>
 7    1  0.1283194E-013  0.7246157E+02  0.7816164E-02  0.1226708E+00
        -11   -1    0    0    0    0  0.00000000000E+00  0.00000000000E+00  0.45593999997E+02  0.45594000000E+02  0.51100000000E-03 0.  1.
         11   -1    0    0    0    0 -0.00000000000E+00 -0.00000000000E+00 -0.45593999997E+02  0.45594000000E+02  0.51100000000E-03 0. -1.
    9900012    2    1    2    0    0  0.13321786009E+02 -0.86025423877E+01  0.99601959232E+01  0.72461568925E+02  0.69999998216E+02 0.  0.
         12    1    1    2    0    0 -0.13321786009E+02  0.86025423877E+01 -0.99601959232E+01  0.18726431075E+02  0.00000000000E+00 0. -1.
         11    1    3    3    0    0  0.14571890965E+02  0.24332621571E+02  0.14191832679E+01  0.28397721039E+02  0.51100000000E-03 0. -1.
        -11    1    3    3    0    0 -0.89940251326E+01 -0.20366157105E+02 -0.62924756596E+01  0.23135861633E+02  0.51100000000E-03 0.  1.
        -12    1    3    3    0    0  0.77439201767E+01 -0.12569006854E+02  0.14833488315E+02  0.20927986253E+02  0.00000000000E+00 0.  1.
</event>
<event>
 7    1  0.1283194E-013  0.7246159E+02  0.7816164E-02  0.1226708E+00
        -11   -1    0    0    0    0  0.00000000000E+00  0.00000000000E+00  0.45593999997E+02  0.45594000000E+02  0.51100000000E-03 0.  1.
         11   -1    0    0    0    0 -0.00000000000E+00 -0.00000000000E+00 -0.45593999997E+02  0.45594000000E+02  0.51100000000E-03 0. -1.
    9900012    2    1    2    0    0  0.14869534637E+02 -0.14648055945E+01  0.11288480648E+02  0.72461587875E+02  0.70000022902E+02 0.  0.
         12    1    1    2    0    0 -0.14869534637E+02  0.14648055945E+01 -0.11288480648E+02  0.18726412125E+02  0.00000000000E+00 0. -1.
         11    1    3    3    0    0 -0.12303641259E+02  0.21975246772E+02  0.38558877505E+01  0.25478597480E+02  0.51100000000E-03 0. -1.
        -11    1    3    3    0    0  0.23701773653E+02 -0.14534667513E+02 -0.79099928746E+01  0.28906722774E+02  0.51100000000E-03 0.  1.
        -12    1    3    3    0    0  0.34714022427E+01 -0.89053848539E+01  0.15342585772E+02  0.18076267621E+02  0.00000000000E+00 0.  1.
</event>
<event>
 7    1  0.1283194E-013  0.7246154E+02  0.7816164E-02  0.1226708E+00
        -11   -1    0    0    0    0  0.00000000000E+00  0.00000000000E+00  0.45593999997E+02  0.45594000000E+02  0.51100000000E-03 0.  1.
         11   -1    0    0    0    0 -0.00000000000E+00 -0.00000000000E+00 -0.45593999997E+02  0.45594000000E+02  0.51100000000E-03 0. -1.
    9900012    2    1    2    0    0  0.51433622248E+00  0.53276046413E+01  0.17945265833E+02  0.72461535337E+02  0.69999954462E+02 0.  0.
         12    1    1    2    0    0 -0.51433622248E+00 -0.53276046413E+01 -0.17945265833E+02  0.18726464663E+02  0.00000000000E+00 0. -1.
         11    1    3    3    0    0  0.93694654812E+01 -0.28093955229E+02  0.15817585952E+02  0.33574592022E+02  0.51100000000E-03 0. -1.
        -11    1    3    3    0    0 -0.13514087828E+02  0.19027233811E+02 -0.12990356333E+01  0.23374209936E+02  0.51100000000E-03 0.  1.
         12    1    3    3    0    0  0.46589585692E+01  0.14394326060E+02  0.34267155140E+01  0.15512733379E+02  0.00000000000E+00 0. -1.
</event>
<event>
 7    1  0.1283194E-013  0.7246156E+02  0.7816164E-02  0.1226708E+00
        -11   -1    0    0    0    0  0.00000000000E+00  0.00000000000E+00  0.45593999997E+02  0.45594000000E+02  0.51100000000E-03 0.  1.
         11   -1    0    0    0    0 -0.00000000000E+00 -0.00000000000E+00 -0.45593999997E+02  0.45594000000E+02  0.51100000000E-03 0. -1.
    9900012    2    1    2    0    0  0.79513080002E+01  0.64483714258E+01  0.15680395295E+02  0.72461559079E+02  0.69999985390E+02 0.  0.
         12    1    1    2    0    0 -0.79513080002E+01 -0.64483714258E+01 -0.15680395295E+02  0.18726440921E+02  0.00000000000E+00 0. -1.
         11    1    3    3    0    0 -0.19534591985E+02 -0.34169409206E+01 -0.12068873931E+02  0.23214941040E+02  0.51100000000E-03 0. -1.
        -11    1    3    3    0    0  0.20971447861E+02  0.13922210754E+02  0.31809417846E+02  0.40564376509E+02  0.51100000000E-03 0.  1.
         12    1    3    3    0    0  0.65144521241E+01 -0.40568984074E+01 -0.40601486195E+01  0.86822415296E+01  0.00000000000E+00 0. -1.
</event>
<event>
 7    1  0.1283194E-013  0.7246158E+02  0.7816164E-02  0.1226708E+00
        -11   -1    0    0    0    0  0.00000000000E+00  0.00000000000E+00  0.45593999997E+02  0.45594000000E+02  0.51100000000E-03 0.  1.
         11   -1    0    0    0    0 -0.00000000000E+00 -0.00000000000E+00 -0.45593999997E+02  0.45594000000E+02  0.51100000000E-03 0. -1.
    9900012    2    1    2    0    0  0.10692167385E+02 -0.34740876423E+01  0.14976216111E+02  0.72461580766E+02  0.70000013641E+02 0.  0.
         12    1    1    2    0    0 -0.10692167385E+02  0.34740876423E+01 -0.14976216111E+02  0.18726419234E+02  0.00000000000E+00 0. -1.
         11    1    3    3    0    0 -0.14261897038E+02 -0.26828926270E+01 -0.57954140657E+01  0.15626466153E+02  0.51100000000E-03 0. -1.
        -11    1    3    3    0    0  0.12661558108E+02 -0.21283857882E+01  0.35414387776E+02  0.37669934186E+02  0.51100000000E-03 0.  1.
        -12    1    3    3    0    0  0.12292506315E+02  0.13371907729E+01 -0.14642757599E+02  0.19165180426E+02  0.00000000000E+00 0.  1.
</event>
<event>
 7    1  0.1283194E-013  0.7246156E+02  0.7816164E-02  0.1226708E+00
        -11   -1    0    0    0    0  0.00000000000E+00  0.00000000000E+00  0.45593999997E+02  0.45594000000E+02  0.51100000000E-03 0. -1.
         11   -1    0    0    0    0 -0.00000000000E+00 -0.00000000000E+00 -0.45593999997E+02  0.45594000000E+02  0.51100000000E-03 0.  1.
    9900012    2    1    2    0    0  0.80754354518E+01  0.40303023094E+01 -0.16408033095E+02  0.72461560283E+02  0.69999986958E+02 0.  0.
         12    1    1    2    0    0 -0.80754354518E+01 -0.40303023094E+01  0.16408033095E+02  0.18726439717E+02  0.00000000000E+00 0. -1.
         11    1    3    3    0    0  0.89489055373E+01  0.29797959816E+01 -0.54200679065E+01  0.10878383647E+02  0.51100000000E-03 0. -1.
        -11    1    3    3    0    0  0.84800544497E+01 -0.52147745995E+01  0.23383783978E+02  0.25414691637E+02  0.51100000000E-03 0.  1.
        -12    1    3    3    0    0 -0.93535245353E+01  0.62652809274E+01 -0.34371749166E+02  0.36168484999E+02  0.00000000000E+00 0.  1.
</event>
<event>
 7    1  0.1283194E-013  0.7246163E+02  0.7816164E-02  0.1226708E+00
        -11   -1    0    0    0    0  0.00000000000E+00  0.00000000000E+00  0.45593999997E+02  0.45594000000E+02  0.51100000000E-03 0. -1.
         11   -1    0    0    0    0 -0.00000000000E+00 -0.00000000000E+00 -0.45593999997E+02  0.45594000000E+02  0.51100000000E-03 0.  1.
    9900012    2    1    2    0    0  0.23218428598E+01  0.17541717553E+02 -0.61297734042E+01  0.72461630065E+02  0.70000077862E+02 0.  0.
         12    1    1    2    0    0 -0.23218428598E+01 -0.17541717553E+02  0.61297734042E+01  0.18726369935E+02  0.00000000000E+00 0. -1.
         11    1    3    3    0    0  0.14515034849E+02  0.28610952979E+01  0.84755100327E+01  0.17050113594E+02  0.51100000000E-03 0. -1.
        -11    1    3    3    0    0 -0.99716914233E+01 -0.18061231387E+02 -0.59600400631E+01  0.21474747656E+02  0.51100000000E-03 0.  1.
        -12    1    3    3    0    0 -0.22215005661E+01  0.32741853642E+02 -0.86452433739E+01  0.33936768816E+02  0.00000000000E+00 0.  1.
</event>
<event>
 7    1  0.1283194E-013  0.7246158E+02  0.7816164E-02  0.1226708E+00
        -11   -1    0    0    0    0  0.00000000000E+00  0.00000000000E+00  0.45593999997E+02  0.45594000000E+02  0.51100000000E-03 0.  1.
         11   -1    0    0    0    0 -0.00000000000E+00 -0.00000000000E+00 -0.45593999997E+02  0.45594000000E+02  0.51100000000E-03 0. -1.
    9900012    2    1    2    0    0  0.11761046214E+02 -0.14572228620E+02 -0.81224495530E-01  0.72461584101E+02  0.70000017986E+02 0.  0.
         12    1    1    2    0    0 -0.11761046214E+02  0.14572228620E+02  0.81224495530E-01  0.18726415899E+02  0.00000000000E+00 0. -1.
         11    1    3    3    0    0  0.13656348476E+02 -0.19426848075E+02 -0.27476480197E+02  0.36316046647E+02  0.51100000000E-03 0. -1.
        -11    1    3    3    0    0  0.61538434264E+01  0.11197110839E+02  0.19008344448E+02  0.22903323754E+02  0.51100000000E-03 0.  1.
        -12    1    3    3    0    0 -0.80491456885E+01 -0.63424913853E+01  0.83869112540E+01  0.13242213700E+02  0.00000000000E+00 0.  1.
</event>
<event>
 8    1  0.1283194E-013  0.7246155E+02  0.7816164E-02  0.1226708E+00
        -11   -1    0    0    0    0  0.00000000000E+00  0.00000000000E+00  0.45593999997E+02  0.45594000000E+02  0.51100000000E-03 0.  1.
         11   -1    0    0    0    0 -0.00000000000E+00 -0.00000000000E+00 -0.45593999997E+02  0.45594000000E+02  0.51100000000E-03 0. -1.
    9900012    2    1    2    0    0  0.48474303497E+01  0.13783513373E+02  0.11713109839E+02  0.72461554422E+02  0.69999979323E+02 0.  0.
         24    2    3    3    0    0 -0.79482579202E+01  0.26046765548E+01  0.19618889464E+02  0.53721293413E+02  0.49306362655E+02 0.  0.
         12    1    1    2    0    0 -0.48474303497E+01 -0.13783513373E+02 -0.11713109839E+02  0.18726445578E+02  0.00000000000E+00 0. -1.
         11    1    3    3    0    0  0.12795688270E+02  0.11178836818E+02 -0.79057796255E+01  0.18740261008E+02  0.51100000000E-03 0. -1.
        -11    1    4    4    0    0 -0.16511616224E+02 -0.48044501533E+01  0.32378397590E+02  0.36661653569E+02  0.51100000000E-03 0.  1.
         12    1    4    4    0    0  0.85633583035E+01  0.74091267081E+01 -0.12759508126E+02  0.17059639845E+02  0.00000000000E+00 0. -1.
</event>
<event>
 7    1  0.1283194E-013  0.7246143E+02  0.7816164E-02  0.1226708E+00
        -11   -1    0    0    0    0  0.00000000000E+00  0.00000000000E+00  0.45593999997E+02  0.45594000000E+02  0.51100000000E-03 0.  1.
         11   -1    0    0    0    0 -0.00000000000E+00 -0.00000000000E+00 -0.45593999997E+02  0.45594000000E+02  0.51100000000E-03 0. -1.
    9900012    2    1    2    0    0 -0.18637794135E+02  0.68428842376E+00  0.16878799596E+01  0.72461426378E+02  0.69999812521E+02 0.  0.
         12    1    1    2    0    0  0.18637794135E+02 -0.68428842376E+00 -0.16878799596E+01  0.18726573622E+02  0.00000000000E+00 0. -1.
         11    1    3    3    0    0 -0.89445539346E+01  0.25727913730E+02 -0.15400826185E+01  0.27281906911E+02  0.51100000000E-03 0.  1.
        -11    1    3    3    0    0 -0.56034800659E+00 -0.27553000275E+02  0.13937520112E+02  0.30882621022E+02  0.51100000000E-03 0. -1.
         12    1    3    3    0    0 -0.91328921942E+01  0.25093749692E+01 -0.10709557534E+02  0.14296898445E+02  0.00000000000E+00 0. -1.
</event>
<event>
 7    1  0.1283194E-013  0.7246160E+02  0.7816164E-02  0.1226708E+00
        -11   -1    0    0    0    0  0.00000000000E+00  0.00000000000E+00  0.45593999997E+02  0.45594000000E+02  0.51100000000E-03 0.  1.
         11   -1    0    0    0    0 -0.00000000000E+00 -0.00000000000E+00 -0.45593999997E+02  0.45594000000E+02  0.51100000000E-03 0. -1.
    9900012    2    1    2    0    0 -0.16178754868E+02 -0.93557573599E+01  0.11813579293E+01  0.72461603886E+02  0.70000043760E+02 0.  0.
         12    1    1    2    0    0  0.16178754868E+02  0.93557573599E+01 -0.11813579293E+01  0.18726396114E+02  0.00000000000E+00 0. -1.
         11    1    3    3    0    0  0.16986462231E+02  0.90738656293E+01  0.11732021583E+02  0.22550283086E+02  0.51100000000E-03 0. -1.
        -11    1    3    3    0    0 -0.23076452352E+01 -0.10800660028E+02 -0.14118394212E+02  0.17925081282E+02  0.51100000000E-03 0.  1.
         12    1    3    3    0    0 -0.30857571864E+02 -0.76289629612E+01  0.35677305587E+01  0.31986239518E+02  0.00000000000E+00 0. -1.
</event>
<event>
 7    1  0.1283194E-013  0.7246157E+02  0.7816164E-02  0.1226708E+00
        -11   -1    0    0    0    0  0.00000000000E+00  0.00000000000E+00  0.45593999997E+02  0.45594000000E+02  0.51100000000E-03 0.  1.
         11   -1    0    0    0    0 -0.00000000000E+00 -0.00000000000E+00 -0.45593999997E+02  0.45594000000E+02  0.51100000000E-03 0. -1.
    9900012    2    1    2    0    0 -0.11865486539E+02 -0.13453145497E+02  0.53760880654E+01  0.72461569014E+02  0.69999998333E+02 0.  0.
         12    1    1    2    0    0  0.11865486539E+02  0.13453145497E+02 -0.53760880654E+01  0.18726430986E+02  0.00000000000E+00 0. -1.
         11    1    3    3    0    0 -0.28947519868E+02  0.11618596521E+02 -0.10449066811E+02  0.32895800478E+02  0.51100000000E-03 0. -1.
        -11    1    3    3    0    0  0.15818356277E+02 -0.61803987706E+01  0.47659191445E+01  0.17638925982E+02  0.51100000000E-03 0.  1.
        -12    1    3    3    0    0  0.12636770525E+01 -0.18891343248E+02  0.11059235731E+02  0.21926842553E+02  0.00000000000E+00 0.  1.
</event>
<event>
 7    1  0.1283194E-013  0.7246117E+02  0.7816164E-02  0.1226709E+00
        -11   -1    0    0    0    0  0.00000000000E+00  0.00000000000E+00  0.45593999997E+02  0.45594000000E+02  0.51100000000E-03 0.  1.
         11   -1    0    0    0    0 -0.00000000000E+00 -0.00000000000E+00 -0.45593999997E+02  0.45594000000E+02  0.51100000000E-03 0. -1.
    9900012    2    1    2    0    0 -0.10244921531E+02 -0.13009094857E+02  0.87463818956E+01  0.72461169984E+02  0.69999478520E+02 0.  0.
         12    1    1    2    0    0  0.10244921531E+02  0.13009094857E+02 -0.87463818956E+01  0.18726830016E+02  0.00000000000E+00 0. -1.
         11    1    3    3    0    0 -0.83365775985E+00 -0.16958006910E+02 -0.12228875870E+02  0.20924014646E+02  0.51100000000E-03 0. -1.
        -11    1    3    3    0    0 -0.19525882489E+02  0.17064814383E+02  0.23237685685E+02  0.34820367792E+02  0.51100000000E-03 0.  1.
        -12    1    3    3    0    0  0.10114618718E+02 -0.13115902331E+02 -0.22624279189E+01  0.16716787546E+02  0.00000000000E+00 0.  1.
</event>
<event>
 7    1  0.1283194E-013  0.7246148E+02  0.7816164E-02  0.1226708E+00
        -11   -1    0    0    0    0  0.00000000000E+00  0.00000000000E+00  0.45593999997E+02  0.45594000000E+02  0.51100000000E-03 0. -1.
         11   -1    0    0    0    0 -0.00000000000E+00 -0.00000000000E+00 -0.45593999997E+02  0.45594000000E+02  0.51100000000E-03 0.  1.
    9900012    2    1    2    0    0 -0.80027430578E+01 -0.98457611675E+01  0.13773152845E+02  0.72461477399E+02  0.69999878987E+02 0.  0.
         12    1    1    2    0    0  0.80027430578E+01  0.98457611675E+01 -0.13773152845E+02  0.18726522601E+02  0.00000000000E+00 0. -1.
         11    1    3    3    0    0  0.17786655652E+02 -0.19795282254E+02  0.18750483346E+02  0.32554553365E+02  0.51100000000E-03 0. -1.
        -11    1    3    3    0    0 -0.22737100298E+02  0.16500859237E+01 -0.14416362798E+02  0.26972764598E+02  0.51100000000E-03 0.  1.
         12    1    3    3    0    0 -0.30522984126E+01  0.82994351626E+01  0.94390322971E+01  0.12934159436E+02  0.00000000000E+00 0. -1.
</event>
<event>
 7    1  0.1283194E-013  0.7246155E+02  0.7816164E-02  0.1226708E+00
        -11   -1    0    0    0    0  0.00000000000E+00  0.00000000000E+00  0.45593999997E+02  0.45594000000E+02  0.51100000000E-03 0. -1.
         11   -1    0    0    0    0 -0.00000000000E+00 -0.00000000000E+00 -0.45593999997E+02  0.45594000000E+02  0.51100000000E-03 0.  1.
    9900012    2    1    2    0    0 -0.99916133215E+01 -0.15290187444E+02  0.41301019517E+01  0.72461550498E+02  0.69999974211E+02 0.  0.
         12    1    1    2    0    0  0.99916133215E+01  0.15290187444E+02 -0.41301019517E+01  0.18726449502E+02  0.00000000000E+00 0. -1.
         11    1    3    3    0    0 -0.22141099652E+02  0.49339131891E+01  0.23265083386E+02  0.32493628581E+02  0.51100000000E-03 0. -1.
        -11    1    3    3    0    0  0.58634343775E+01 -0.25806962481E+02 -0.16366230735E+02  0.31116437520E+02  0.51100000000E-03 0.  1.
         12    1    3    3    0    0  0.62860519533E+01  0.55828618487E+01 -0.27687506989E+01  0.88514843961E+01  0.00000000000E+00 0. -1.
</event>
<event>
 7    1  0.1283194E-013  0.7246159E+02  0.7816164E-02  0.1226708E+00
        -11   -1    0    0    0    0  0.00000000000E+00  0.00000000000E+00  0.45593999997E+02  0.45594000000E+02  0.51100000000E-03 0.  1.
         11   -1    0    0    0    0 -0.00000000000E+00 -0.00000000000E+00 -0.45593999997E+02  0.45594000000E+02  0.51100000000E-03 0. -1.
    9900012    2    1    2    0    0  0.58707506000E+01  0.17584338760E+02  0.26464322934E+01  0.72461593881E+02  0.70000030726E+02 0.  0.
         12    1    1    2    0    0 -0.58707506000E+01 -0.17584338760E+02 -0.26464322934E+01  0.18726406119E+02  0.00000000000E+00 0. -1.
         11    1    3    3    0    0 -0.12945415778E+02 -0.16149866948E+02 -0.65537051152E+01  0.21710666574E+02  0.51100000000E-03 0. -1.
        -11    1    3    3    0    0  0.23625320043E+02  0.18555461823E+02 -0.36875000267E+01  0.30266459445E+02  0.51100000000E-03 0.  1.
        -12    1    3    3    0    0 -0.48091536655E+01  0.15178743886E+02  0.12887637435E+02  0.20484467862E+02  0.00000000000E+00 0.  1.
</event>
<event>
 7    1  0.1283194E-013  0.7246162E+02  0.7816164E-02  0.1226708E+00
        -11   -1    0    0    0    0  0.00000000000E+00  0.00000000000E+00  0.45593999997E+02  0.45594000000E+02  0.51100000000E-03 0. -1.
         11   -1    0    0    0    0 -0.00000000000E+00 -0.00000000000E+00 -0.45593999997E+02  0.45594000000E+02  0.51100000000E-03 0.  1.
    9900012    2    1    2    0    0 -0.17984023488E+02 -0.54669046867E+00 -0.51916766530E+01  0.72461615465E+02  0.70000058844E+02 0.  0.
         12    1    1    2    0    0  0.17984023488E+02  0.54669046867E+00  0.51916766530E+01  0.18726384535E+02  0.00000000000E+00 0. -1.
         11    1    3    3    0    0 -0.19952910388E+02  0.49316358522E+01  0.21192656004E+02  0.29522336186E+02  0.51100000000E-03 0. -1.
        -11    1    3    3    0    0  0.57134556822E+01 -0.12188215214E+00 -0.33087476073E+02  0.33577365952E+02  0.51100000000E-03 0.  1.
        -12    1    3    3    0    0 -0.37445687821E+01 -0.53564441687E+01  0.67031434162E+01  0.93619133277E+01  0.00000000000E+00 0.  1.
</event>
<event>
 7    1  0.1283194E-013  0.7246158E+02  0.7816164E-02  0.1226708E+00
        -11   -1    0    0    0    0  0.00000000000E+00  0.00000000000E+00  0.45593999997E+02  0.45594000000E+02  0.51100000000E-03 0.  1.
         11   -1    0    0    0    0 -0.00000000000E+00 -0.00000000000E+00 -0.45593999997E+02  0.45594000000E+02  0.51100000000E-03 0. -1.
    9900012    2    1    2    0    0 -0.12015341824E+01 -0.18613861881E+02 -0.16610482701E+01  0.72461584971E+02  0.70000019118E+02 0.  0.
         12    1    1    2    0    0  0.12015341824E+01  0.18613861881E+02  0.16610482701E+01  0.18726415029E+02  0.00000000000E+00 0. -1.
         11    1    3    3    0    0  0.23267150999E+01 -0.34638008748E+02 -0.14656921521E+02  0.37683293406E+02  0.51100000000E-03 0. -1.
        -11    1    3    3    0    0 -0.42820730250E+01  0.41703993237E+00  0.17893458159E+02  0.18403421335E+02  0.51100000000E-03 0.  1.
         12    1    3    3    0    0  0.75382374273E+00  0.15607106935E+02 -0.48975849080E+01  0.16374870230E+02  0.00000000000E+00 0. -1.
</event>
<event>
 7    1  0.1283194E-013  0.7246152E+02  0.7816164E-02  0.1226708E+00
        -11   -1    0    0    0    0  0.00000000000E+00  0.00000000000E+00  0.45593999997E+02  0.45594000000E+02  0.51100000000E-03 0.  1.
         11   -1    0    0    0    0 -0.00000000000E+00 -0.00000000000E+00 -0.45593999997E+02  0.45594000000E+02  0.51100000000E-03 0. -1.
    9900012    2    1    2    0    0  0.17557467723E+02  0.42985786105E+01  0.48927211034E+01  0.72461516863E+02  0.69999930395E+02 0.  0.
         12    1    1    2    0    0 -0.17557467723E+02 -0.42985786105E+01 -0.48927211034E+01  0.18726483137E+02  0.00000000000E+00 0. -1.
         11    1    3    3    0    0 -0.92522029422E+01  0.97777990247E+01 -0.10298789639E+02  0.16949149871E+02  0.51100000000E-03 0. -1.
        -11    1    3    3    0    0  0.25931575672E+02  0.11253271414E+02  0.23545653110E+02  0.36789679463E+02  0.51100000000E-03 0.  1.
         12    1    3    3    0    0  0.87809499252E+00 -0.16732491828E+02 -0.83541423675E+01  0.18722687528E+02  0.00000000000E+00 0. -1.
</event>
<event>
 7    1  0.1283194E-013  0.7246164E+02  0.7816164E-02  0.1226708E+00
        -11   -1    0    0    0    0  0.00000000000E+00  0.00000000000E+00  0.45593999997E+02  0.45594000000E+02  0.51100000000E-03 0. -1.
         11   -1    0    0    0    0 -0.00000000000E+00 -0.00000000000E+00 -0.45593999997E+02  0.45594000000E+02  0.51100000000E-03 0.  1.
    9900012    2    1    2    0    0  0.15751198173E+02 -0.48845335374E+01 -0.88723045675E+01  0.72461636229E+02  0.70000085892E+02 0.  0.
         12    1    1    2    0    0 -0.15751198173E+02  0.48845335374E+01  0.88723045675E+01  0.18726363771E+02  0.00000000000E+00 0. -1.
         11    1    3    3    0    0 -0.12304825664E+02 -0.15335533147E+02 -0.10533297283E+02  0.22305552300E+02  0.51100000000E-03 0. -1.
        -11    1    3    3    0    0  0.14563223587E+02  0.23264055782E+02  0.10713970318E+02  0.29463416857E+02  0.51100000000E-03 0.  1.
        -12    1    3    3    0    0  0.13492800249E+02 -0.12813056172E+02 -0.90529776025E+01  0.20692667071E+02  0.00000000000E+00 0.  1.
</event>
<event>
 7    1  0.1283194E-013  0.7246158E+02  0.7816164E-02  0.1226708E+00
        -11   -1    0    0    0    0  0.00000000000E+00  0.00000000000E+00  0.45593999997E+02  0.45594000000E+02  0.51100000000E-03 0.  1.
         11   -1    0    0    0    0 -0.00000000000E+00 -0.00000000000E+00 -0.45593999997E+02  0.45594000000E+02  0.51100000000E-03 0. -1.
    9900012    2    1    2    0    0  0.57520319207E+00 -0.11411679012E+02  0.14836492205E+02  0.72461580760E+02  0.70000013634E+02 0.  0.
         12    1    1    2    0    0 -0.57520319207E+00  0.11411679012E+02 -0.14836492205E+02  0.18726419240E+02  0.00000000000E+00 0. -1.
         11    1    3    3    0    0  0.44147966319E+01 -0.11142999783E+00  0.30283259847E+02  0.30603572882E+02  0.51100000000E-03 0.  1.
        -11    1    3    3    0    0  0.86065406195E+00 -0.21576482123E+02 -0.20227866643E+02  0.29588036356E+02  0.51100000000E-03 0. -1.
         12    1    3    3    0    0 -0.47002475018E+01  0.10276233109E+02  0.47810990012E+01  0.12269971522E+02  0.00000000000E+00 0. -1.
</event>
<event>
 7    1  0.1283194E-013  0.7246117E+02  0.7816164E-02  0.1226709E+00
        -11   -1    0    0    0    0  0.00000000000E+00  0.00000000000E+00  0.45593999997E+02  0.45594000000E+02  0.51100000000E-03 0. -1.
         11   -1    0    0    0    0 -0.00000000000E+00 -0.00000000000E+00 -0.45593999997E+02  0.45594000000E+02  0.51100000000E-03 0.  1.
    9900012    2    1    2    0    0 -0.16456220440E+02 -0.74666488072E+01 -0.49128542351E+01  0.72461169721E+02  0.69999478176E+02 0.  0.
         12    1    1    2    0    0  0.16456220440E+02  0.74666488072E+01  0.49128542351E+01  0.18726830279E+02  0.00000000000E+00 0. -1.
         11    1    3    3    0    0 -0.26541050561E+02  0.74448024334E+01 -0.55040932701E+01  0.28109562272E+02  0.51100000000E-03 0. -1.
        -11    1    3    3    0    0  0.24860118375E+02 -0.77547574060E+01  0.66074214211E+01  0.26866703670E+02  0.51100000000E-03 0.  1.
        -12    1    3    3    0    0 -0.14775288254E+02 -0.71566938347E+01 -0.60161823861E+01  0.17484903778E+02  0.00000000000E+00 0.  1.
</event>
<event>
 7    1  0.1283194E-013  0.7246160E+02  0.7816164E-02  0.1226708E+00
        -11   -1    0    0    0    0  0.00000000000E+00  0.00000000000E+00  0.45593999997E+02  0.45594000000E+02  0.51100000000E-03 0. -1.
         11   -1    0    0    0    0 -0.00000000000E+00 -0.00000000000E+00 -0.45593999997E+02  0.45594000000E+02  0.51100000000E-03 0.  1.
    9900012    2    1    2    0    0 -0.11966008761E+02 -0.85464181624E+01 -0.11595321165E+02  0.72461598797E+02  0.70000037131E+02 0.  0.
         12    1    1    2    0    0  0.11966008761E+02  0.85464181624E+01  0.11595321165E+02  0.18726401203E+02  0.00000000000E+00 0. -1.
         11    1    3    3    0    0  0.13679306584E+02 -0.35650597418E+01  0.56220287212E+01  0.15213161630E+02  0.51100000000E-03 0. -1.
        -11    1    3    3    0    0 -0.27991094117E+02  0.16036317031E+02 -0.16142975650E+02  0.36072988189E+02  0.51100000000E-03 0.  1.
        -12    1    3    3    0    0  0.23457787717E+01 -0.21017675452E+02 -0.10743742360E+01  0.21175448979E+02  0.00000000000E+00 0.  1.
</event>
<event>
 7    1  0.1283194E-013  0.7246159E+02  0.7816164E-02  0.1226708E+00
        -11   -1    0    0    0    0  0.00000000000E+00  0.00000000000E+00  0.45593999997E+02  0.45594000000E+02  0.51100000000E-03 0. -1.
         11   -1    0    0    0    0 -0.00000000000E+00 -0.00000000000E+00 -0.45593999997E+02  0.45594000000E+02  0.51100000000E-03 0.  1.
    9900012    2    1    2    0    0 -0.10515162606E+02  0.15191904763E+02 -0.30521667815E+01  0.72461592523E+02  0.70000028956E+02 0.  0.
         12    1    1    2    0    0  0.10515162606E+02 -0.15191904763E+02  0.30521667815E+01  0.18726407477E+02  0.00000000000E+00 0. -1.
         11    1    3    3    0    0  0.12848482453E+02 -0.83820649798E+00  0.17355773399E+02  0.21610390140E+02  0.51100000000E-03 0. -1.
        -11    1    3    3    0    0 -0.78549768925E+00  0.13764139986E+01 -0.23683107580E+02  0.23736071853E+02  0.51100000000E-03 0.  1.
        -12    1    3    3    0    0 -0.22578147370E+02  0.14653697262E+02  0.32751673996E+01  0.27115130529E+02  0.00000000000E+00 0.  1.
</event>
<event>
 7    1  0.1283194E-013  0.7246160E+02  0.7816164E-02  0.1226708E+00
        -11   -1    0    0    0    0  0.00000000000E+00  0.00000000000E+00  0.45593999997E+02  0.45594000000E+02  0.51100000000E-03 0.  1.
         11   -1    0    0    0    0 -0.00000000000E+00 -0.00000000000E+00 -0.45593999997E+02  0.45594000000E+02  0.51100000000E-03 0. -1.
    9900012    2    1    2    0    0  0.11787814743E+02 -0.52873673966E+01  0.13556149512E+02  0.72461600987E+02  0.70000039983E+02 0.  0.
         12    1    1    2    0    0 -0.11787814743E+02  0.52873673966E+01 -0.13556149512E+02  0.18726399013E+02  0.00000000000E+00 0. -1.
         11    1    3    3    0    0  0.25918049196E+02  0.63681125324E+01 -0.11266067171E+02  0.28969335531E+02  0.51100000000E-03 0. -1.
        -11    1    3    3    0    0 -0.13399640603E+02 -0.19391382201E+02  0.78797094142E+01  0.24852884997E+02  0.51100000000E-03 0.  1.
         12    1    3    3    0    0 -0.73059384970E+00  0.77359022721E+01  0.16942507269E+02  0.18639380459E+02  0.00000000000E+00 0. -1.
</event>
<event>
 7    1  0.1283194E-013  0.7246161E+02  0.7816164E-02  0.1226708E+00
        -11   -1    0    0    0    0  0.00000000000E+00  0.00000000000E+00  0.45593999997E+02  0.45594000000E+02  0.51100000000E-03 0.  1.
         11   -1    0    0    0    0 -0.00000000000E+00 -0.00000000000E+00 -0.45593999997E+02  0.45594000000E+02  0.51100000000E-03 0. -1.
    9900012    2    1    2    0    0 -0.54673372142E+01 -0.14255590426E+02  0.10842691334E+02  0.72461612468E+02  0.70000054939E+02 0.  0.
         12    1    1    2    0    0  0.54673372142E+01  0.14255590426E+02 -0.10842691334E+02  0.18726387532E+02  0.00000000000E+00 0. -1.
         11    1    3    3    0    0  0.68542941569E+01  0.10055569330E+02  0.13339917980E+02  0.18056833468E+02  0.51100000000E-03 0. -1.
        -11    1    3    3    0    0 -0.10984663406E+02 -0.29748409244E+02 -0.19006864859E+02  0.36971497058E+02  0.51100000000E-03 0.  1.
        -12    1    3    3    0    0 -0.13369679654E+01  0.54372494880E+01  0.16509638213E+02  0.17433281942E+02  0.00000000000E+00 0.  1.
</event>
<event>
 7    1  0.1283194E-013  0.7246164E+02  0.7816164E-02  0.1226708E+00
        -11   -1    0    0    0    0  0.00000000000E+00  0.00000000000E+00  0.45593999997E+02  0.45594000000E+02  0.51100000000E-03 0. -1.
         11   -1    0    0    0    0 -0.00000000000E+00 -0.00000000000E+00 -0.45593999997E+02  0.45594000000E+02  0.51100000000E-03 0.  1.
    9900012    2    1    2    0    0  0.13364626008E+02  0.11448463690E+02  0.64028155346E+01  0.72461639008E+02  0.70000089513E+02 0.  0.
         12    1    1    2    0    0 -0.13364626008E+02 -0.11448463690E+02 -0.64028155346E+01  0.18726360992E+02  0.00000000000E+00 0. -1.
         11    1    3    3    0    0  0.15097561294E+02  0.60804051766E+01  0.10715439117E+02  0.19486618996E+02  0.51100000000E-03 0. -1.
        -11    1    3    3    0    0 -0.94624517865E+01  0.21931811844E+02 -0.18191463033E+02  0.30024518183E+02  0.51100000000E-03 0.  1.
        -12    1    3    3    0    0  0.77295165005E+01 -0.16563753330E+02  0.13878839450E+02  0.22950501829E+02  0.00000000000E+00 0.  1.
</event>
<event>
 7    1  0.1283194E-013  0.7246153E+02  0.7816164E-02  0.1226708E+00
        -11   -1    0    0    0    0  0.00000000000E+00  0.00000000000E+00  0.45593999997E+02  0.45594000000E+02  0.51100000000E-03 0.  1.
         11   -1    0    0    0    0 -0.00000000000E+00 -0.00000000000E+00 -0.45593999997E+02  0.45594000000E+02  0.51100000000E-03 0. -1.
    9900012    2    1    2    0    0 -0.15360356543E+02  0.95306622321E+01 -0.48894402953E+01  0.72461529374E+02  0.69999946693E+02 0.  0.
         12    1    1    2    0    0  0.15360356543E+02 -0.95306622321E+01  0.48894402953E+01  0.18726470626E+02  0.00000000000E+00 0. -1.
         11    1    3    3    0    0 -0.26954537822E+02 -0.18469584781E+02 -0.18302606436E+02  0.37452077029E+02  0.51100000000E-03 0. -1.
        -11    1    3    3    0    0  0.75398396750E+01  0.22039939667E+02  0.48098089560E+01  0.23785339714E+02  0.51100000000E-03 0.  1.
         12    1    3    3    0    0  0.40543416040E+01  0.59603073465E+01  0.86033571843E+01  0.11224112631E+02  0.00000000000E+00 0. -1.
</event>
<event>
 7    1  0.1283194E-013  0.7246152E+02  0.7816164E-02  0.1226708E+00
        -11   -1    0    0    0    0  0.00000000000E+00  0.00000000000E+00  0.45593999997E+02  0.45594000000E+02  0.51100000000E-03 0.  1.
         11   -1    0    0    0    0 -0.00000000000E+00 -0.00000000000E+00 -0.45593999997E+02  0.45594000000E+02  0.51100000000E-03 0. -1.
    9900012    2    1    2    0    0 -0.69925175334E+01  0.51455289264E+01  0.16592451329E+02  0.72461515800E+02  0.69999929011E+02 0.  0.
         12    1    1    2    0    0  0.69925175334E+01 -0.51455289264E+01 -0.16592451329E+02  0.18726484200E+02  0.00000000000E+00 0. -1.
         11    1    3    3    0    0 -0.24082178448E+02  0.14556150560E+02  0.96848357255E+01  0.29759517490E+02  0.51100000000E-03 0. -1.
        -11    1    3    3    0    0  0.51717979605E+01 -0.19117024986E+02  0.15449412177E+02  0.25117573038E+02  0.51100000000E-03 0.  1.
        -12    1    3    3    0    0  0.11917862954E+02  0.97064033522E+01 -0.85417965738E+01  0.17584425272E+02  0.00000000000E+00 0.  1.
</event>
<event>
 7    1  0.1283194E-013  0.7246157E+02  0.7816164E-02  0.1226708E+00
        -11   -1    0    0    0    0  0.00000000000E+00  0.00000000000E+00  0.45593999997E+02  0.45594000000E+02  0.51100000000E-03 0. -1.
         11   -1    0    0    0    0 -0.00000000000E+00 -0.00000000000E+00 -0.45593999997E+02  0.45594000000E+02  0.51100000000E-03 0.  1.
    9900012    2    1    2    0    0 -0.64008905669E+00 -0.18348850798E+02 -0.36863308894E+01  0.72461572817E+02  0.70000003287E+02 0.  0.
         12    1    1    2    0    0  0.64008905669E+00  0.18348850798E+02  0.36863308894E+01  0.18726427183E+02  0.00000000000E+00 0. -1.
         11    1    3    3    0    0  0.69413966224E+01  0.12020554460E+02 -0.25735317749E+02  0.29240097409E+02  0.51100000000E-03 0. -1.
        -11    1    3    3    0    0 -0.12672470184E+01 -0.29286714140E+02  0.12838934863E+02  0.32002434107E+02  0.51100000000E-03 0.  1.
         12    1    3    3    0    0 -0.63142386607E+01 -0.10826911178E+01  0.92100519974E+01  0.11219041301E+02  0.00000000000E+00 0. -1.
</event>
<event>
 7    1  0.1283194E-013  0.7246158E+02  0.7816164E-02  0.1226708E+00
        -11   -1    0    0    0    0  0.00000000000E+00  0.00000000000E+00  0.45593999997E+02  0.45594000000E+02  0.51100000000E-03 0. -1.
         11   -1    0    0    0    0 -0.00000000000E+00 -0.00000000000E+00 -0.45593999997E+02  0.45594000000E+02  0.51100000000E-03 0.  1.
    9900012    2    1    2    0    0 -0.44235050065E+01 -0.93007818402E+01 -0.15639911147E+02  0.72461581227E+02  0.70000014242E+02 0.  0.
         12    1    1    2    0    0  0.44235050065E+01  0.93007818402E+01  0.15639911147E+02  0.18726418773E+02  0.00000000000E+00 0. -1.
         11    1    3    3    0    0  0.25926308664E+02 -0.51325643698E+01 -0.31972030258E+01  0.26622148775E+02  0.51100000000E-03 0.  1.
        -11    1    3    3    0    0 -0.30064078893E+02 -0.14291557002E+02 -0.12903683346E+02  0.35701575390E+02  0.51100000000E-03 0. -1.
         12    1    3    3    0    0 -0.28573477817E+00  0.10123339531E+02  0.46097522483E+00  0.10137857061E+02  0.00000000000E+00 0. -1.
</event>
<event>
 7    1  0.1283194E-013  0.7246160E+02  0.7816164E-02  0.1226708E+00
        -11   -1    0    0    0    0  0.00000000000E+00  0.00000000000E+00  0.45593999997E+02  0.45594000000E+02  0.51100000000E-03 0. -1.
         11   -1    0    0    0    0 -0.00000000000E+00 -0.00000000000E+00 -0.45593999997E+02  0.45594000000E+02  0.51100000000E-03 0.  1.
    9900012    2    1    2    0    0 -0.12655277595E+02  0.11380578449E+02  0.78105283977E+01  0.72461602304E+02  0.70000041698E+02 0.  0.
         12    1    1    2    0    0  0.12655277595E+02 -0.11380578449E+02 -0.78105283977E+01  0.18726397696E+02  0.00000000000E+00 0. -1.
         11    1    3    3    0    0 -0.11039347013E+02 -0.11456865190E+02  0.57582871335E+01  0.16919953115E+02  0.51100000000E-03 0. -1.
        -11    1    3    3    0    0  0.98953651081E+01  0.30889857981E+02  0.15628933708E+02  0.36005071113E+02  0.51100000000E-03 0.  1.
        -12    1    3    3    0    0 -0.11511295690E+02 -0.80524143427E+01 -0.13576692444E+02  0.19536578076E+02  0.00000000000E+00 0.  1.
</event>
<event>
 7    1  0.1283194E-013  0.7246157E+02  0.7816164E-02  0.1226708E+00
        -11   -1    0    0    0    0  0.00000000000E+00  0.00000000000E+00  0.45593999997E+02  0.45594000000E+02  0.51100000000E-03 0. -1.
         11   -1    0    0    0    0 -0.00000000000E+00 -0.00000000000E+00 -0.45593999997E+02  0.45594000000E+02  0.51100000000E-03 0.  1.
    9900012    2    1    2    0    0 -0.17342956079E+02 -0.50111838783E+01 -0.49788611570E+01  0.72461570873E+02  0.70000000754E+02 0.  0.
         12    1    1    2    0    0  0.17342956079E+02  0.50111838783E+01  0.49788611570E+01  0.18726429127E+02  0.00000000000E+00 0. -1.
         11    1    3    3    0    0  0.87710470724E+01  0.20789255380E+02  0.17314370497E+02  0.28441375353E+02  0.51100000000E-03 0. -1.
        -11    1    3    3    0    0 -0.16398446174E+02 -0.19187809339E+02 -0.10397553773E+02  0.27298171897E+02  0.51100000000E-03 0.  1.
         12    1    3    3    0    0 -0.97155569775E+01 -0.66126299190E+01 -0.11895677880E+02  0.16722023623E+02  0.00000000000E+00 0. -1.
</event>
<event>
 7    1  0.1283194E-013  0.7246159E+02  0.7816164E-02  0.1226708E+00
        -11   -1    0    0    0    0  0.00000000000E+00  0.00000000000E+00  0.45593999997E+02  0.45594000000E+02  0.51100000000E-03 0.  1.
         11   -1    0    0    0    0 -0.00000000000E+00 -0.00000000000E+00 -0.45593999997E+02  0.45594000000E+02  0.51100000000E-03 0. -1.
    9900012    2    1    2    0    0 -0.18449297505E+02  0.30913989615E+01 -0.86314486982E+00  0.72461592309E+02  0.70000028678E+02 0.  0.
         12    1    1    2    0    0  0.18449297505E+02 -0.30913989615E+01  0.86314486982E+00  0.18726407691E+02  0.00000000000E+00 0. -1.
         11    1    3    3    0    0  0.17782573110E+02  0.81250862611E+01 -0.15318255856E+02  0.24837187762E+02  0.51100000000E-03 0. -1.
        -11    1    3    3    0    0 -0.31339133502E+02  0.61809618403E+01  0.53846959748E+01  0.32393526034E+02  0.51100000000E-03 0.  1.
        -12    1    3    3    0    0 -0.48927371128E+01 -0.11214649140E+02  0.90704150117E+01  0.15230878513E+02  0.00000000000E+00 0.  1.
</event>
<event>
 7    1  0.1283194E-013  0.7246158E+02  0.7816164E-02  0.1226708E+00
        -11   -1    0    0    0    0  0.00000000000E+00  0.00000000000E+00  0.45593999997E+02  0.45594000000E+02  0.51100000000E-03 0.  1.
         11   -1    0    0    0    0 -0.00000000000E+00 -0.00000000000E+00 -0.45593999997E+02  0.45594000000E+02  0.51100000000E-03 0. -1.
    9900012    2    1    2    0    0  0.13936897578E+02 -0.17988373645E+01 -0.12377641865E+02  0.72461576206E+02  0.70000007701E+02 0.  0.
         12    1    1    2    0    0 -0.13936897578E+02  0.17988373645E+01  0.12377641865E+02  0.18726423794E+02  0.00000000000E+00 0. -1.
         11    1    3    3    0    0  0.18852436468E+02 -0.12350309794E+02 -0.17507211138E+02  0.28538517041E+02  0.51100000000E-03 0. -1.
        -11    1    3    3    0    0 -0.17890412042E+02 -0.37048178315E+01  0.13691114722E+02  0.22830662294E+02  0.51100000000E-03 0.  1.
        -12    1    3    3    0    0  0.12974873151E+02  0.14256290261E+02 -0.85615454490E+01  0.21092396871E+02  0.00000000000E+00 0.  1.
</event>
<event>
 7    1  0.1283194E-013  0.7246165E+02  0.7816164E-02  0.1226708E+00
        -11   -1    0    0    0    0  0.00000000000E+00  0.00000000000E+00  0.45593999997E+02  0.45594000000E+02  0.51100000000E-03 0.  1.
         11   -1    0    0    0    0 -0.00000000000E+00 -0.00000000000E+00 -0.45593999997E+02  0.45594000000E+02  0.51100000000E-03 0. -1.
    9900012    2    1    2    0    0  0.17404907953E+02  0.26412696830E+01  0.63850739986E+01  0.72461647008E+02  0.70000099934E+02 0.  0.
         12    1    1    2    0    0 -0.17404907953E+02 -0.26412696830E+01 -0.63850739986E+01  0.18726352992E+02  0.00000000000E+00 0. -1.
         11    1    3    3    0    0  0.19953177273E+02  0.54210750743E+01 -0.24418458989E+02  0.31996538530E+02  0.51100000000E-03 0. -1.
        -11    1    3    3    0    0 -0.43223242669E+01 -0.11365833968E+02  0.48860993607E+01  0.13104908854E+02  0.51100000000E-03 0.  1.
         12    1    3    3    0    0  0.17740549472E+01  0.85860285766E+01  0.25917433627E+02  0.27360199624E+02  0.00000000000E+00 0. -1.
</event>
<event>
 7    1  0.1283194E-013  0.7246158E+02  0.7816164E-02  0.1226708E+00
        -11   -1    0    0    0    0  0.00000000000E+00  0.00000000000E+00  0.45593999997E+02  0.45594000000E+02  0.51100000000E-03 0. -1.
         11   -1    0    0    0    0 -0.00000000000E+00 -0.00000000000E+00 -0.45593999997E+02  0.45594000000E+02  0.51100000000E-03 0.  1.
    9900012    2    1    2    0    0  0.80680070227E+01  0.16854385757E+02  0.12311172639E+01  0.72461582663E+02  0.70000016113E+02 0.  0.
         12    1    1    2    0    0 -0.80680070227E+01 -0.16854385757E+02 -0.12311172639E+01  0.18726417337E+02  0.00000000000E+00 0. -1.
         11    1    3    3    0    0 -0.83629857907E+01 -0.54183839082E+01  0.18070158742E+02  0.20635625814E+02  0.51100000000E-03 0. -1.
        -11    1    3    3    0    0  0.25786409740E+02  0.26518688816E+01 -0.30909244825E+01  0.26106036664E+02  0.51100000000E-03 0.  1.
         12    1    3    3    0    0 -0.93554169269E+01  0.19620900783E+02 -0.13748116996E+02  0.25719920186E+02  0.00000000000E+00 0. -1.
</event>
<event>
 7    1  0.1283194E-013  0.7246148E+02  0.7816164E-02  0.1226708E+00
        -11   -1    0    0    0    0  0.00000000000E+00  0.00000000000E+00  0.45593999997E+02  0.45594000000E+02  0.51100000000E-03 0.  1.
         11   -1    0    0    0    0 -0.00000000000E+00 -0.00000000000E+00 -0.45593999997E+02  0.45594000000E+02  0.51100000000E-03 0. -1.
    9900012    2    1    2    0    0 -0.90877361274E+01  0.10796541935E+02  0.12309758409E+02  0.72461483566E+02  0.69999887020E+02 0.  0.
         12    1    1    2    0    0  0.90877361274E+01 -0.10796541935E+02 -0.12309758409E+02  0.18726516434E+02  0.00000000000E+00 0. -1.
         11    1    3    3    0    0  0.13285654511E+02  0.10593982781E+01  0.10287604728E+02  0.16836441186E+02  0.51100000000E-03 0. -1.
        -11    1    3    3    0    0 -0.29948750566E+02  0.14082982580E+02 -0.15121017681E+02  0.36385481098E+02  0.51100000000E-03 0.  1.
        -12    1    3    3    0    0  0.75753599274E+01 -0.43458389234E+01  0.17143171362E+02  0.19239561282E+02  0.00000000000E+00 0.  1.
</event>
<event>
 7    1  0.1283194E-013  0.7246203E+02  0.7816164E-02  0.1226707E+00
        -11   -1    0    0    0    0  0.00000000000E+00  0.00000000000E+00  0.45593999997E+02  0.45594000000E+02  0.51100000000E-03 0.  1.
         11   -1    0    0    0    0 -0.00000000000E+00 -0.00000000000E+00 -0.45593999997E+02  0.45594000000E+02  0.51100000000E-03 0. -1.
    9900012    2    1    2    0    0 -0.62422468691E+01  0.18216032927E+01  0.17560693365E+02  0.72462033110E+02  0.70000602900E+02 0.  0.
         12    1    1    2    0    0  0.62422468691E+01 -0.18216032927E+01 -0.17560693365E+02  0.18725966890E+02  0.00000000000E+00 0. -1.
         11    1    3    3    0    0 -0.11203211203E+02 -0.96922658020E+01 -0.13885128154E+02  0.20303909519E+02  0.51100000000E-03 0. -1.
        -11    1    3    3    0    0 -0.39944643002E+01  0.24866487423E+02  0.22428151712E+02  0.33724174286E+02  0.51100000000E-03 0.  1.
         12    1    3    3    0    0  0.89554286346E+01 -0.13352618328E+02  0.90176698064E+01  0.18433949305E+02  0.00000000000E+00 0. -1.
</event>
<event>
 7    1  0.1283194E-013  0.7246162E+02  0.7816164E-02  0.1226708E+00
        -11   -1    0    0    0    0  0.00000000000E+00  0.00000000000E+00  0.45593999997E+02  0.45594000000E+02  0.51100000000E-03 0.  1.
         11   -1    0    0    0    0 -0.00000000000E+00 -0.00000000000E+00 -0.45593999997E+02  0.45594000000E+02  0.51100000000E-03 0. -1.
    9900012    2    1    2    0    0 -0.27016674553E+01 -0.13539274630E+02  0.12651726896E+02  0.72461624003E+02  0.70000069965E+02 0.  0.
         12    1    1    2    0    0  0.27016674553E+01  0.13539274630E+02 -0.12651726896E+02  0.18726375997E+02  0.00000000000E+00 0. -1.
         11    1    3    3    0    0 -0.88679152566E+01 -0.37283029233E+02  0.20846820961E+02  0.43626300946E+02  0.51100000000E-03 0. -1.
        -11    1    3    3    0    0 -0.39641172326E+01  0.60024306994E+01 -0.26550173420E+01  0.76676278654E+01  0.51100000000E-03 0.  1.
         12    1    3    3    0    0  0.10130365034E+02  0.17741323904E+02 -0.55400767232E+01  0.21167695191E+02  0.00000000000E+00 0. -1.
</event>
<event>
 7    1  0.1283194E-013  0.7246156E+02  0.7816164E-02  0.1226708E+00
        -11   -1    0    0    0    0  0.00000000000E+00  0.00000000000E+00  0.45593999997E+02  0.45594000000E+02  0.51100000000E-03 0.  1.
         11   -1    0    0    0    0 -0.00000000000E+00 -0.00000000000E+00 -0.45593999997E+02  0.45594000000E+02  0.51100000000E-03 0. -1.
    9900012    2    1    2    0    0  0.63917493848E+01 -0.36705614148E+01  0.17214881346E+02  0.72461558238E+02  0.69999984295E+02 0.  0.
         12    1    1    2    0    0 -0.63917493848E+01  0.36705614148E+01 -0.17214881346E+02  0.18726441762E+02  0.00000000000E+00 0. -1.
         11    1    3    3    0    0  0.25322918235E+01 -0.37516943960E+01 -0.23243517152E+02  0.23680135189E+02  0.51100000000E-03 0. -1.
        -11    1    3    3    0    0  0.45710375144E+01 -0.11308108593E+02  0.32914708893E+02  0.35101933931E+02  0.51100000000E-03 0.  1.
         12    1    3    3    0    0 -0.71157995305E+00  0.11389241575E+02  0.75436896056E+01  0.13679489118E+02  0.00000000000E+00 0. -1.
</event>
<event>
 7    1  0.1283194E-013  0.7246159E+02  0.7816164E-02  0.1226708E+00
        -11   -1    0    0    0    0  0.00000000000E+00  0.00000000000E+00  0.45593999997E+02  0.45594000000E+02  0.51100000000E-03 0. -1.
         11   -1    0    0    0    0 -0.00000000000E+00 -0.00000000000E+00 -0.45593999997E+02  0.45594000000E+02  0.51100000000E-03 0.  1.
    9900012    2    1    2    0    0  0.10560850749E+02  0.83422551095E+01 -0.13021282202E+02  0.72461586060E+02  0.70000020538E+02 0.  0.
         12    1    1    2    0    0 -0.10560850749E+02 -0.83422551095E+01  0.13021282202E+02  0.18726413940E+02  0.00000000000E+00 0. -1.
         11    1    3    3    0    0  0.33409479360E+01  0.10050517759E+02  0.19513533279E+02  0.22202540882E+02  0.51100000000E-03 0. -1.
        -11    1    3    3    0    0  0.21776217826E+02  0.37006898706E+01 -0.14324202695E+02  0.26326442058E+02  0.51100000000E-03 0.  1.
        -12    1    3    3    0    0 -0.14556315013E+02 -0.54089525201E+01 -0.18210612785E+02  0.23932603121E+02  0.00000000000E+00 0.  1.
</event>
<event>
 7    1  0.1283194E-013  0.7246158E+02  0.7816164E-02  0.1226708E+00
        -11   -1    0    0    0    0  0.00000000000E+00  0.00000000000E+00  0.45593999997E+02  0.45594000000E+02  0.51100000000E-03 0.  1.
         11   -1    0    0    0    0 -0.00000000000E+00 -0.00000000000E+00 -0.45593999997E+02  0.45594000000E+02  0.51100000000E-03 0. -1.
    9900012    2    1    2    0    0  0.16004273139E+02  0.70383538150E+01  0.67084752790E+01  0.72461579528E+02  0.70000012028E+02 0.  0.
         12    1    1    2    0    0 -0.16004273139E+02 -0.70383538150E+01 -0.67084752790E+01  0.18726420472E+02  0.00000000000E+00 0. -1.
         11    1    3    3    0    0 -0.54561434628E+01  0.15070160659E+02  0.29258866749E+02  0.33361063045E+02  0.51100000000E-03 0. -1.
        -11    1    3    3    0    0  0.16498231553E+02 -0.14596917119E+02 -0.10239051356E+02  0.24291970004E+02  0.51100000000E-03 0.  1.
         12    1    3    3    0    0  0.49621850494E+01  0.65651102749E+01 -0.12311340115E+02  0.14808546478E+02  0.00000000000E+00 0. -1.
</event>
<event>
 7    1  0.1283194E-013  0.7246156E+02  0.7816164E-02  0.1226708E+00
        -11   -1    0    0    0    0  0.00000000000E+00  0.00000000000E+00  0.45593999997E+02  0.45594000000E+02  0.51100000000E-03 0.  1.
         11   -1    0    0    0    0 -0.00000000000E+00 -0.00000000000E+00 -0.45593999997E+02  0.45594000000E+02  0.51100000000E-03 0. -1.
    9900012    2    1    2    0    0  0.16255677855E+02  0.49484234889E+01  0.78705459085E+01  0.72461562794E+02  0.69999990229E+02 0.  0.
         12    1    1    2    0    0 -0.16255677855E+02 -0.49484234889E+01 -0.78705459085E+01  0.18726437206E+02  0.00000000000E+00 0. -1.
         11    1    3    3    0    0  0.29725738558E+02 -0.12431052633E+02 -0.14612789095E+02  0.35379149336E+02  0.51100000000E-03 0. -1.
        -11    1    3    3    0    0 -0.16482550464E+02  0.19691355553E+02  0.19218519560E+02  0.32074529578E+02  0.51100000000E-03 0.  1.
        -12    1    3    3    0    0  0.30124897611E+01 -0.23118794312E+01  0.32648154437E+01  0.50078838791E+01  0.00000000000E+00 0.  1.
</event>
<event>
 7    1  0.1283194E-013  0.7246157E+02  0.7816164E-02  0.1226708E+00
        -11   -1    0    0    0    0  0.00000000000E+00  0.00000000000E+00  0.45593999997E+02  0.45594000000E+02  0.51100000000E-03 0. -1.
         11   -1    0    0    0    0 -0.00000000000E+00 -0.00000000000E+00 -0.45593999997E+02  0.45594000000E+02  0.51100000000E-03 0.  1.
    9900012    2    1    2    0    0  0.10138509904E+02 -0.39371657029E+01 -0.15244299873E+02  0.72461565864E+02  0.69999994229E+02 0.  0.
         12    1    1    2    0    0 -0.10138509904E+02  0.39371657029E+01  0.15244299873E+02  0.18726434136E+02  0.00000000000E+00 0. -1.
         11    1    3    3    0    0  0.13321781881E+02  0.13528896723E+01  0.21204702631E+01  0.13557159635E+02  0.51100000000E-03 0. -1.
        -11    1    3    3    0    0  0.61262552408E+01  0.91498615752E+01 -0.33543750379E+02  0.35304874449E+02  0.51100000000E-03 0.  1.
        -12    1    3    3    0    0 -0.93095272182E+01 -0.14439916950E+02  0.16178980243E+02  0.23599531781E+02  0.00000000000E+00 0.  1.
</event>
<event>
 8    1  0.1283194E-013  0.7246154E+02  0.7816164E-02  0.1226708E+00
        -11   -1    0    0    0    0  0.00000000000E+00  0.00000000000E+00  0.45593999997E+02  0.45594000000E+02  0.51100000000E-03 0.  1.
         11   -1    0    0    0    0 -0.00000000000E+00 -0.00000000000E+00 -0.45593999997E+02  0.45594000000E+02  0.51100000000E-03 0. -1.
    9900012    2    1    2    0    0  0.63932826328E+01  0.14856608102E+02  0.94386132570E+01  0.72461540449E+02  0.69999961120E+02 0.  0.
         24    2    3    3    0    0  0.15184662829E+01  0.24499491973E+02 -0.39102684125E+01  0.55287674085E+02  0.49385279789E+02 0.  0.
         12    1    1    2    0    0 -0.63932826328E+01 -0.14856608102E+02 -0.94386132570E+01  0.18726459551E+02  0.00000000000E+00 0. -1.
         11    1    3    3    0    0  0.48748163498E+01 -0.96428838716E+01  0.13348881670E+02  0.17173866364E+02  0.51100000000E-03 0.  1.
        -11    1    4    4    0    0 -0.34002035961E+01  0.39034192283E+02  0.94511551984E+00  0.39193402446E+02  0.51100000000E-03 0. -1.
         12    1    4    4    0    0  0.49186698791E+01 -0.14534700309E+02 -0.48553839324E+01  0.16094271639E+02  0.00000000000E+00 0. -1.
</event>
<event>
 7    1  0.1283194E-013  0.7246160E+02  0.7816164E-02  0.1226708E+00
        -11   -1    0    0    0    0  0.00000000000E+00  0.00000000000E+00  0.45593999997E+02  0.45594000000E+02  0.51100000000E-03 0.  1.
         11   -1    0    0    0    0 -0.00000000000E+00 -0.00000000000E+00 -0.45593999997E+02  0.45594000000E+02  0.51100000000E-03 0. -1.
    9900012    2    1    2    0    0 -0.16088086671E+02  0.78235319951E+01 -0.55356876413E+01  0.72461600899E+02  0.70000039869E+02 0.  0.
         12    1    1    2    0    0  0.16088086671E+02 -0.78235319951E+01  0.55356876413E+01  0.18726399101E+02  0.00000000000E+00 0. -1.
         11    1    3    3    0    0  0.77284882649E+01  0.27929470336E+02  0.14299224028E+02  0.32314898300E+02  0.51100000000E-03 0. -1.
        -11    1    3    3    0    0 -0.58016281588E+00 -0.84854438161E+01 -0.76971403367E+01  0.11471064261E+02  0.51100000000E-03 0.  1.
         12    1    3    3    0    0 -0.23236412120E+02 -0.11620494524E+02 -0.12137771332E+02  0.28675638339E+02  0.00000000000E+00 0. -1.
</event>
<event>
 7    1  0.1283194E-013  0.7246152E+02  0.7816164E-02  0.1226708E+00
        -11   -1    0    0    0    0  0.00000000000E+00  0.00000000000E+00  0.45593999997E+02  0.45594000000E+02  0.51100000000E-03 0.  1.
         11   -1    0    0    0    0 -0.00000000000E+00 -0.00000000000E+00 -0.45593999997E+02  0.45594000000E+02  0.51100000000E-03 0. -1.
    9900012    2    1    2    0    0 -0.40983087334E+01 -0.12521716950E+02  0.13307568060E+02  0.72461524156E+02  0.69999939897E+02 0.  0.
         12    1    1    2    0    0  0.40983087334E+01  0.12521716950E+02 -0.13307568060E+02  0.18726475844E+02  0.00000000000E+00 0. -1.
         11    1    3    3    0    0  0.94770128132E+01  0.15543097680E+02  0.23592250959E+02  0.29799261114E+02  0.51100000000E-03 0. -1.
        -11    1    3    3    0    0  0.66281627118E+01 -0.17227507040E+02 -0.52277646707E+01  0.19184604856E+02  0.51100000000E-03 0.  1.
        -12    1    3    3    0    0 -0.20203484258E+02 -0.10837307590E+02 -0.50569182281E+01  0.23477658187E+02  0.00000000000E+00 0.  1.
</event>
<event>
 7    1  0.1283194E-013  0.7246154E+02  0.7816164E-02  0.1226708E+00
        -11   -1    0    0    0    0  0.00000000000E+00  0.00000000000E+00  0.45593999997E+02  0.45594000000E+02  0.51100000000E-03 0. -1.
         11   -1    0    0    0    0 -0.00000000000E+00 -0.00000000000E+00 -0.45593999997E+02  0.45594000000E+02  0.51100000000E-03 0.  1.
    9900012    2    1    2    0    0 -0.50907188032E+00 -0.15415201486E+02 -0.10620395391E+02  0.72461537726E+02  0.69999957573E+02 0.  0.
         12    1    1    2    0    0  0.50907188032E+00  0.15415201486E+02  0.10620395391E+02  0.18726462274E+02  0.00000000000E+00 0. -1.
         11    1    3    3    0    0 -0.21174829231E+02  0.91674954040E+01  0.27140003505E+01  0.23233212501E+02  0.51100000000E-03 0. -1.
        -11    1    3    3    0    0  0.17393646241E+02 -0.24634253786E+02  0.50317309827E+01  0.30572924396E+02  0.51100000000E-03 0.  1.
         12    1    3    3    0    0  0.32721111094E+01  0.51556895579E-01 -0.18366126725E+02  0.18655400829E+02  0.00000000000E+00 0. -1.
</event>
<event>
 7    1  0.1283194E-013  0.7246158E+02  0.7816164E-02  0.1226708E+00
        -11   -1    0    0    0    0  0.00000000000E+00  0.00000000000E+00  0.45593999997E+02  0.45594000000E+02  0.51100000000E-03 0.  1.
         11   -1    0    0    0    0 -0.00000000000E+00 -0.00000000000E+00 -0.45593999997E+02  0.45594000000E+02  0.51100000000E-03 0. -1.
    9900012    2    1    2    0    0  0.33463530643E+01  0.18225354384E+02  0.27050463060E+01  0.72461577577E+02  0.70000009487E+02 0.  0.
         12    1    1    2    0    0 -0.33463530643E+01 -0.18225354384E+02 -0.27050463060E+01  0.18726422423E+02  0.00000000000E+00 0. -1.
         11    1    3    3    0    0 -0.18601605942E+02  0.16236191869E+01 -0.14128138897E+02  0.23414956584E+02  0.51100000000E-03 0. -1.
        -11    1    3    3    0    0 -0.41600991408E+00  0.48548215006E+01  0.22613376838E+02  0.23132383542E+02  0.51100000000E-03 0.  1.
         12    1    3    3    0    0  0.22363968921E+02  0.11746913697E+02 -0.57801916357E+01  0.25914237450E+02  0.00000000000E+00 0. -1.
</event>
<event>
 7    1  0.1283194E-013  0.7246158E+02  0.7816164E-02  0.1226708E+00
        -11   -1    0    0    0    0  0.00000000000E+00  0.00000000000E+00  0.45593999997E+02  0.45594000000E+02  0.51100000000E-03 0.  1.
         11   -1    0    0    0    0 -0.00000000000E+00 -0.00000000000E+00 -0.45593999997E+02  0.45594000000E+02  0.51100000000E-03 0. -1.
    9900012    2    1    2    0    0 -0.13959560888E+01 -0.14074349857E+02  0.12273660116E+02  0.72461581497E+02  0.70000014594E+02 0.  0.
         12    1    1    2    0    0  0.13959560888E+01  0.14074349857E+02 -0.12273660116E+02  0.18726418503E+02  0.00000000000E+00 0. -1.
         11    1    3    3    0    0  0.19490441659E+02 -0.26659020486E+01 -0.22593962625E+02  0.29957828646E+02  0.51100000000E-03 0. -1.
        -11    1    3    3    0    0 -0.15009490860E+02 -0.69024436248E+01  0.27342026671E+02  0.31945499943E+02  0.51100000000E-03 0.  1.
         12    1    3    3    0    0 -0.58769068879E+01 -0.45060041834E+01  0.75255960704E+01  0.10558252909E+02  0.00000000000E+00 0. -1.
</event>
<event>
 7    1  0.1283194E-013  0.7246158E+02  0.7816164E-02  0.1226708E+00
        -11   -1    0    0    0    0  0.00000000000E+00  0.00000000000E+00  0.45593999997E+02  0.45594000000E+02  0.51100000000E-03 0.  1.
         11   -1    0    0    0    0 -0.00000000000E+00 -0.00000000000E+00 -0.45593999997E+02  0.45594000000E+02  0.51100000000E-03 0. -1.
    9900012    2    1    2    0    0  0.68483025767E+01  0.97128480022E+01  0.14472050188E+02  0.72461577460E+02  0.70000009335E+02 0.  0.
         12    1    1    2    0    0 -0.68483025767E+01 -0.97128480022E+01 -0.14472050188E+02  0.18726422540E+02  0.00000000000E+00 0. -1.
         11    1    3    3    0    0 -0.10820466066E+02 -0.65151212077E+01 -0.18879114368E+02  0.22714538292E+02  0.51100000000E-03 0. -1.
        -11    1    3    3    0    0  0.39101794654E+01  0.21458292786E+00  0.27584913450E+02  0.27861496722E+02  0.51100000000E-03 0.  1.
        -12    1    3    3    0    0  0.13758589177E+02  0.16013386282E+02  0.57662511056E+01  0.21885542446E+02  0.00000000000E+00 0.  1.
</event>
<event>
 7    1  0.1283194E-013  0.7246158E+02  0.7816164E-02  0.1226708E+00
        -11   -1    0    0    0    0  0.00000000000E+00  0.00000000000E+00  0.45593999997E+02  0.45594000000E+02  0.51100000000E-03 0.  1.
         11   -1    0    0    0    0 -0.00000000000E+00 -0.00000000000E+00 -0.45593999997E+02  0.45594000000E+02  0.51100000000E-03 0. -1.
    9900012    2    1    2    0    0 -0.10969860455E+02 -0.11104624101E+02  0.10345448608E+02  0.72461579581E+02  0.70000012097E+02 0.  0.
         12    1    1    2    0    0  0.10969860455E+02  0.11104624101E+02 -0.10345448608E+02  0.18726420419E+02  0.00000000000E+00 0. -1.
         11    1    3    3    0    0 -0.40959174385E+01 -0.59543987260E+01 -0.21518099547E+02  0.22699339466E+02  0.51100000000E-03 0. -1.
        -11    1    3    3    0    0 -0.14896236400E+02 -0.17465127328E+02  0.15140140752E+02  0.27498225283E+02  0.51100000000E-03 0.  1.
        -12    1    3    3    0    0  0.80222933836E+01  0.12314901953E+02  0.16723407403E+02  0.22264014831E+02  0.00000000000E+00 0.  1.
</event>
<event>
 7    1  0.1283194E-013  0.7246156E+02  0.7816164E-02  0.1226708E+00
        -11   -1    0    0    0    0  0.00000000000E+00  0.00000000000E+00  0.45593999997E+02  0.45594000000E+02  0.51100000000E-03 0.  1.
         11   -1    0    0    0    0 -0.00000000000E+00 -0.00000000000E+00 -0.45593999997E+02  0.45594000000E+02  0.51100000000E-03 0. -1.
    9900012    2    1    2    0    0 -0.75066351246E+01 -0.76790072932E+01  0.15341533870E+02  0.72461564531E+02  0.69999992492E+02 0.  0.
         12    1    1    2    0    0  0.75066351246E+01  0.76790072932E+01 -0.15341533870E+02  0.18726435469E+02  0.00000000000E+00 0. -1.
         11    1    3    3    0    0  0.35027249496E+01 -0.95346344652E+01 -0.22713609286E+02  0.24881446572E+02  0.51100000000E-03 0. -1.
        -11    1    3    3    0    0 -0.11457788019E+02 -0.59321288321E+01  0.37615838912E+02  0.39767101932E+02  0.51100000000E-03 0.  1.
        -12    1    3    3    0    0  0.44842794472E+00  0.77877560040E+01  0.43930424411E+00  0.78130160258E+01  0.00000000000E+00 0.  1.
</event>
<event>
 7    1  0.1283194E-013  0.7246156E+02  0.7816164E-02  0.1226708E+00
        -11   -1    0    0    0    0  0.00000000000E+00  0.00000000000E+00  0.45593999997E+02  0.45594000000E+02  0.51100000000E-03 0. -1.
         11   -1    0    0    0    0 -0.00000000000E+00 -0.00000000000E+00 -0.45593999997E+02  0.45594000000E+02  0.51100000000E-03 0.  1.
    9900012    2    1    2    0    0 -0.85400762425E+01  0.36271731029E+01 -0.16266226027E+02  0.72461564244E+02  0.69999992118E+02 0.  0.
         12    1    1    2    0    0  0.85400762425E+01 -0.36271731029E+01  0.16266226027E+02  0.18726435756E+02  0.00000000000E+00 0. -1.
         11    1    3    3    0    0 -0.38147971480E+01  0.27358720845E+02 -0.30836754442E+02  0.41399972323E+02  0.51100000000E-03 0. -1.
        -11    1    3    3    0    0 -0.19470875522E+01 -0.13872257126E+02  0.97903407962E+00  0.14042406336E+02  0.51100000000E-03 0.  1.
         12    1    3    3    0    0 -0.27781915424E+01 -0.98592906167E+01  0.13591494335E+02  0.17019185585E+02  0.00000000000E+00 0. -1.
</event>
<event>
 7    1  0.1283194E-013  0.7246154E+02  0.7816164E-02  0.1226708E+00
        -11   -1    0    0    0    0  0.00000000000E+00  0.00000000000E+00  0.45593999997E+02  0.45594000000E+02  0.51100000000E-03 0. -1.
         11   -1    0    0    0    0 -0.00000000000E+00 -0.00000000000E+00 -0.45593999997E+02  0.45594000000E+02  0.51100000000E-03 0.  1.
    9900012    2    1    2    0    0 -0.16443446428E+02  0.15745346994E+01 -0.88212343220E+01  0.72461541047E+02  0.69999961900E+02 0.  0.
         12    1    1    2    0    0  0.16443446428E+02 -0.15745346994E+01  0.88212343220E+01  0.18726458953E+02  0.00000000000E+00 0. -1.
         11    1    3    3    0    0  0.22962625543E+02  0.59436293562E+01 -0.13889985520E+02  0.27487098788E+02  0.51100000000E-03 0.  1.
        -11    1    3    3    0    0 -0.37777822771E+02 -0.92172478519E+01  0.69936730869E+01  0.39509910337E+02  0.51100000000E-03 0. -1.
        -12    1    3    3    0    0 -0.16282491993E+01  0.48481531951E+01 -0.19249218885E+01  0.54645319228E+01  0.00000000000E+00 0.  1.
</event>
<event>
 7    1  0.1283194E-013  0.7246166E+02  0.7816164E-02  0.1226708E+00
        -11   -1    0    0    0    0  0.00000000000E+00  0.00000000000E+00  0.45593999997E+02  0.45594000000E+02  0.51100000000E-03 0. -1.
         11   -1    0    0    0    0 -0.00000000000E+00 -0.00000000000E+00 -0.45593999997E+02  0.45594000000E+02  0.51100000000E-03 0.  1.
    9900012    2    1    2    0    0  0.10522262442E+01 -0.97724820824E+01 -0.15939480719E+02  0.72461664755E+02  0.70000123052E+02 0.  0.
         12    1    1    2    0    0 -0.10522262442E+01  0.97724820824E+01  0.15939480719E+02  0.18726335245E+02  0.00000000000E+00 0. -1.
         11    1    3    3    0    0  0.63001068497E+01  0.17199814346E+02  0.77611382932E+01  0.19893723325E+02  0.51100000000E-03 0. -1.
        -11    1    3    3    0    0 -0.34734776841E+01 -0.78991910151E+00 -0.25983369704E+02  0.26226408844E+02  0.51100000000E-03 0.  1.
         12    1    3    3    0    0 -0.17744029214E+01 -0.26182377327E+02  0.22827506920E+01  0.26341532586E+02  0.00000000000E+00 0. -1.
</event>
<event>
 7    1  0.1283194E-013  0.7246149E+02  0.7816164E-02  0.1226708E+00
        -11   -1    0    0    0    0  0.00000000000E+00  0.00000000000E+00  0.45593999997E+02  0.45594000000E+02  0.51100000000E-03 0.  1.
         11   -1    0    0    0    0 -0.00000000000E+00 -0.00000000000E+00 -0.45593999997E+02  0.45594000000E+02  0.51100000000E-03 0. -1.
    9900012    2    1    2    0    0 -0.12439333005E+02 -0.13792703579E+02 -0.23888396647E+01  0.72461488510E+02  0.69999893461E+02 0.  0.
         12    1    1    2    0    0  0.12439333005E+02  0.13792703579E+02  0.23888396647E+01  0.18726511490E+02  0.00000000000E+00 0. -1.
         11    1    3    3    0    0 -0.63132444635E+01 -0.34562643976E+02 -0.38543981890E+01  0.35345293886E+02  0.51100000000E-03 0. -1.
        -11    1    3    3    0    0 -0.68165330330E+01  0.14458048824E+02  0.15154504927E+02  0.22026332383E+02  0.51100000000E-03 0.  1.
        -12    1    3    3    0    0  0.69044449101E+00  0.63118915735E+01 -0.13688946403E+02  0.15089862241E+02  0.00000000000E+00 0.  1.
</event>
<event>
 7    1  0.1283194E-013  0.7246157E+02  0.7816164E-02  0.1226708E+00
        -11   -1    0    0    0    0  0.00000000000E+00  0.00000000000E+00  0.45593999997E+02  0.45594000000E+02  0.51100000000E-03 0.  1.
         11   -1    0    0    0    0 -0.00000000000E+00 -0.00000000000E+00 -0.45593999997E+02  0.45594000000E+02  0.51100000000E-03 0. -1.
    9900012    2    1    2    0    0  0.96960407862E+01  0.13838335168E+02 -0.80725725911E+01  0.72461570672E+02  0.70000000492E+02 0.  0.
         12    1    1    2    0    0 -0.96960407862E+01 -0.13838335168E+02  0.80725725911E+01  0.18726429328E+02  0.00000000000E+00 0. -1.
         11    1    3    3    0    0 -0.73972508568E+01 -0.42422674597E+01 -0.10754324943E+02  0.13724855507E+02  0.51100000000E-03 0. -1.
        -11    1    3    3    0    0  0.20477030951E+02  0.35292349976E+02 -0.99283641134E+00  0.40814758211E+02  0.51100000000E-03 0.  1.
        -12    1    3    3    0    0 -0.33837393083E+01 -0.17211747348E+02  0.36745887636E+01  0.17921956954E+02  0.00000000000E+00 0.  1.
</event>
<event>
 7    1  0.1283194E-013  0.7246159E+02  0.7816164E-02  0.1226708E+00
        -11   -1    0    0    0    0  0.00000000000E+00  0.00000000000E+00  0.45593999997E+02  0.45594000000E+02  0.51100000000E-03 0.  1.
         11   -1    0    0    0    0 -0.00000000000E+00 -0.00000000000E+00 -0.45593999997E+02  0.45594000000E+02  0.51100000000E-03 0. -1.
    9900012    2    1    2    0    0  0.74987287066E+00 -0.18119520337E+02 -0.46689505273E+01  0.72461590158E+02  0.70000025876E+02 0.  0.
         12    1    1    2    0    0 -0.74987287066E+00  0.18119520337E+02  0.46689505273E+01  0.18726409842E+02  0.00000000000E+00 0. -1.
         11    1    3    3    0    0  0.56638296822E+01  0.23402752656E+02 -0.50536361555E+00  0.24083670634E+02  0.51100000000E-03 0. -1.
        -11    1    3    3    0    0 -0.11508604959E+02 -0.22904910399E+02  0.57621238690E+01  0.26273275020E+02  0.51100000000E-03 0.  1.
         12    1    3    3    0    0  0.65946481477E+01 -0.18617362594E+02 -0.99257107807E+01  0.22104644504E+02  0.00000000000E+00 0. -1.
</event>
<event>
 7    1  0.1283194E-013  0.7246161E+02  0.7816164E-02  0.1226708E+00
        -11   -1    0    0    0    0  0.00000000000E+00  0.00000000000E+00  0.45593999997E+02  0.45594000000E+02  0.51100000000E-03 0.  1.
         11   -1    0    0    0    0 -0.00000000000E+00 -0.00000000000E+00 -0.45593999997E+02  0.45594000000E+02  0.51100000000E-03 0. -1.
    9900012    2    1    2    0    0 -0.17969066934E+02  0.13310371311E+01  0.51008318546E+01  0.72461614552E+02  0.70000057654E+02 0.  0.
         12    1    1    2    0    0  0.17969066934E+02 -0.13310371311E+01 -0.51008318546E+01  0.18726385448E+02  0.00000000000E+00 0. -1.
         11    1    3    3    0    0 -0.30791432675E+02 -0.31286537170E+01  0.10031068998E+02  0.32534952678E+02  0.51100000000E-03 0.  1.
        -11    1    3    3    0    0  0.22006079528E+02  0.11369068732E+02  0.43581030705E+01  0.25149877190E+02  0.51100000000E-03 0. -1.
         12    1    3    3    0    0 -0.91837137878E+01 -0.69093778843E+01 -0.92883402135E+01  0.14776784684E+02  0.00000000000E+00 0. -1.
</event>
<event>
 7    1  0.1283194E-013  0.7246157E+02  0.7816164E-02  0.1226708E+00
        -11   -1    0    0    0    0  0.00000000000E+00  0.00000000000E+00  0.45593999997E+02  0.45594000000E+02  0.51100000000E-03 0.  1.
         11   -1    0    0    0    0 -0.00000000000E+00 -0.00000000000E+00 -0.45593999997E+02  0.45594000000E+02  0.51100000000E-03 0. -1.
    9900012    2    1    2    0    0  0.70157506463E+01  0.14516592208E+02  0.95250695114E+01  0.72461570665E+02  0.70000000482E+02 0.  0.
         12    1    1    2    0    0 -0.70157506463E+01 -0.14516592208E+02 -0.95250695114E+01  0.18726429335E+02  0.00000000000E+00 0. -1.
         11    1    3    3    0    0  0.17472373076E+02 -0.10199640845E+02 -0.21619112530E+02  0.29609162790E+02  0.51100000000E-03 0. -1.
        -11    1    3    3    0    0 -0.42293682183E+01  0.11955154809E+02  0.61210198894E+01  0.14081199053E+02  0.51100000000E-03 0.  1.
         12    1    3    3    0    0 -0.62272542111E+01  0.12761078244E+02  0.25023162152E+02  0.28771208822E+02  0.00000000000E+00 0. -1.
</event>
<event>
 7    1  0.1283194E-013  0.7246154E+02  0.7816164E-02  0.1226708E+00
        -11   -1    0    0    0    0  0.00000000000E+00  0.00000000000E+00  0.45593999997E+02  0.45594000000E+02  0.51100000000E-03 0.  1.
         11   -1    0    0    0    0 -0.00000000000E+00 -0.00000000000E+00 -0.45593999997E+02  0.45594000000E+02  0.51100000000E-03 0. -1.
    9900012    2    1    2    0    0 -0.73344292148E+01 -0.66944541185E+01  0.15876735041E+02  0.72461540553E+02  0.69999961257E+02 0.  0.
         12    1    1    2    0    0  0.73344292148E+01  0.66944541185E+01 -0.15876735041E+02  0.18726459447E+02  0.00000000000E+00 0. -1.
         11    1    3    3    0    0 -0.13971162914E+01  0.17438973911E+02  0.18274967623E+01  0.17590039502E+02  0.51100000000E-03 0. -1.
        -11    1    3    3    0    0 -0.10077163401E+02 -0.28269937975E+02 -0.88070881542E+01  0.31277842274E+02  0.51100000000E-03 0.  1.
        -12    1    3    3    0    0  0.41398504778E+01  0.41365099458E+01  0.22856326433E+02  0.23593658777E+02  0.00000000000E+00 0.  1.
</event>
<event>
 7    1  0.1283194E-013  0.7246157E+02  0.7816164E-02  0.1226708E+00
        -11   -1    0    0    0    0  0.00000000000E+00  0.00000000000E+00  0.45593999997E+02  0.45594000000E+02  0.51100000000E-03 0.  1.
         11   -1    0    0    0    0 -0.00000000000E+00 -0.00000000000E+00 -0.45593999997E+02  0.45594000000E+02  0.51100000000E-03 0. -1.
    9900012    2    1    2    0    0 -0.90358501298E+00 -0.13723683181E+02  0.12709181275E+02  0.72461568557E+02  0.69999997736E+02 0.  0.
         12    1    1    2    0    0  0.90358501298E+00  0.13723683181E+02 -0.12709181275E+02  0.18726431443E+02  0.00000000000E+00 0. -1.
         11    1    3    3    0    0  0.10757475878E+02 -0.32496338993E+02  0.32290686567E+01  0.34382585997E+02  0.51100000000E-03 0. -1.
        -11    1    3    3    0    0  0.96105636399E+01  0.85912219369E+01  0.68282823931E+00  0.12908845127E+02  0.51100000000E-03 0.  1.
         12    1    3    3    0    0 -0.21271624531E+02  0.10181433875E+02  0.87972843791E+01  0.25170137433E+02  0.00000000000E+00 0. -1.
</event>
<event>
 7    1  0.1283194E-013  0.7246164E+02  0.7816164E-02  0.1226708E+00
        -11   -1    0    0    0    0  0.00000000000E+00  0.00000000000E+00  0.45593999997E+02  0.45594000000E+02  0.51100000000E-03 0. -1.
         11   -1    0    0    0    0 -0.00000000000E+00 -0.00000000000E+00 -0.45593999997E+02  0.45594000000E+02  0.51100000000E-03 0.  1.
    9900012    2    1    2    0    0  0.13823670276E+01 -0.14703030370E+02 -0.11514617677E+02  0.72461642615E+02  0.70000094211E+02 0.  0.
         12    1    1    2    0    0 -0.13823670276E+01  0.14703030370E+02  0.11514617677E+02  0.18726357385E+02  0.00000000000E+00 0. -1.
         11    1    3    3    0    0 -0.23733687581E+02  0.15011366949E+02 -0.90471378602E+01  0.29503894109E+02  0.51100000000E-03 0. -1.
        -11    1    3    3    0    0  0.34888733935E+01 -0.27828553546E+01 -0.68134959494E+01  0.81449523506E+01  0.51100000000E-03 0.  1.
         12    1    3    3    0    0  0.21627181216E+02 -0.26931541964E+02  0.43460161323E+01  0.34812796155E+02  0.00000000000E+00 0. -1.
</event>
<event>
 7    1  0.1283194E-013  0.7246156E+02  0.7816164E-02  0.1226708E+00
        -11   -1    0    0    0    0  0.00000000000E+00  0.00000000000E+00  0.45593999997E+02  0.45594000000E+02  0.51100000000E-03 0.  1.
         11   -1    0    0    0    0 -0.00000000000E+00 -0.00000000000E+00 -0.45593999997E+02  0.45594000000E+02  0.51100000000E-03 0. -1.
    9900012    2    1    2    0    0 -0.63802211518E+01 -0.17578845451E+02 -0.97799742058E+00  0.72461561249E+02  0.69999988217E+02 0.  0.
         12    1    1    2    0    0  0.63802211518E+01  0.17578845451E+02  0.97799742058E+00  0.18726438751E+02  0.00000000000E+00 0. -1.
         11    1    3    3    0    0  0.20455711780E+02  0.50046963906E+01 -0.13380634299E+02  0.24950440976E+02  0.51100000000E-03 0. -1.
        -11    1    3    3    0    0 -0.30239946595E+02 -0.14460738568E+02  0.15788046984E+01  0.33556816811E+02  0.51100000000E-03 0.  1.
        -12    1    3    3    0    0  0.34040136631E+01 -0.81228032742E+01  0.10823832180E+02  0.13954303462E+02  0.00000000000E+00 0.  1.
</event>
<event>
 7    1  0.1283194E-013  0.7246164E+02  0.7816164E-02  0.1226708E+00
        -11   -1    0    0    0    0  0.00000000000E+00  0.00000000000E+00  0.45593999997E+02  0.45594000000E+02  0.51100000000E-03 0.  1.
         11   -1    0    0    0    0 -0.00000000000E+00 -0.00000000000E+00 -0.45593999997E+02  0.45594000000E+02  0.51100000000E-03 0. -1.
    9900012    2    1    2    0    0  0.34324604993E+01 -0.17159049266E+02  0.66679659166E+01  0.72461640871E+02  0.70000091939E+02 0.  0.
         12    1    1    2    0    0 -0.34324604993E+01  0.17159049266E+02 -0.66679659166E+01  0.18726359129E+02  0.00000000000E+00 0. -1.
         11    1    3    3    0    0 -0.99806460767E+01 -0.32786562579E+02 -0.11172858049E+02  0.36047257026E+02  0.51100000000E-03 0. -1.
        -11    1    3    3    0    0  0.96508818605E+01  0.90671877121E+01  0.23496398788E+02  0.26970987560E+02  0.51100000000E-03 0.  1.
         12    1    3    3    0    0  0.37622247155E+01  0.65603256013E+01 -0.56555748226E+01  0.94433962841E+01  0.00000000000E+00 0. -1.
</event>
<event>
 7    1  0.1283194E-013  0.7246160E+02  0.7816164E-02  0.1226708E+00
        -11   -1    0    0    0    0  0.00000000000E+00  0.00000000000E+00  0.45593999997E+02  0.45594000000E+02  0.51100000000E-03 0.  1.
         11   -1    0    0    0    0 -0.00000000000E+00 -0.00000000000E+00 -0.45593999997E+02  0.45594000000E+02  0.51100000000E-03 0. -1.
    9900012    2    1    2    0    0  0.11152181977E+02  0.18946688119E+01  0.14923711628E+02  0.72461598810E+02  0.70000037147E+02 0.  0.
         12    1    1    2    0    0 -0.11152181977E+02 -0.18946688119E+01 -0.14923711628E+02  0.18726401190E+02  0.00000000000E+00 0. -1.
         11    1    3    3    0    0 -0.47739931379E+01 -0.29110200935E+02  0.19577660659E+02  0.35404513923E+02  0.51100000000E-03 0. -1.
        -11    1    3    3    0    0  0.15903217757E+02  0.29483131731E+02 -0.14733864979E+01  0.33531153570E+02  0.51100000000E-03 0.  1.
         12    1    3    3    0    0  0.22957357537E-01  0.15217380165E+01 -0.31805625331E+01  0.35259313178E+01  0.00000000000E+00 0. -1.
</event>
<event>
 7    1  0.1283194E-013  0.7246170E+02  0.7816164E-02  0.1226708E+00
        -11   -1    0    0    0    0  0.00000000000E+00  0.00000000000E+00  0.45593999997E+02  0.45594000000E+02  0.51100000000E-03 0. -1.
         11   -1    0    0    0    0 -0.00000000000E+00 -0.00000000000E+00 -0.45593999997E+02  0.45594000000E+02  0.51100000000E-03 0.  1.
    9900012    2    1    2    0    0  0.15645002754E+02 -0.87032244938E+01 -0.54919997459E+01  0.72461700607E+02  0.70000169756E+02 0.  0.
         12    1    1    2    0    0 -0.15645002754E+02  0.87032244938E+01  0.54919997459E+01  0.18726299393E+02  0.00000000000E+00 0. -1.
         11    1    3    3    0    0 -0.15042207288E+02  0.72253236947E+01  0.15682736424E+02  0.22900251628E+02  0.51100000000E-03 0. -1.
        -11    1    3    3    0    0  0.31611569257E+02 -0.19757919987E+02 -0.11336550282E+02  0.38963881810E+02  0.51100000000E-03 0.  1.
         12    1    3    3    0    0 -0.92435921566E+00  0.38293717986E+01 -0.98381858889E+01  0.10597567170E+02  0.00000000000E+00 0. -1.
</event>
<event>
 7    1  0.1283194E-013  0.7246154E+02  0.7816164E-02  0.1226708E+00
        -11   -1    0    0    0    0  0.00000000000E+00  0.00000000000E+00  0.45593999997E+02  0.45594000000E+02  0.51100000000E-03 0. -1.
         11   -1    0    0    0    0 -0.00000000000E+00 -0.00000000000E+00 -0.45593999997E+02  0.45594000000E+02  0.51100000000E-03 0.  1.
    9900012    2    1    2    0    0 -0.17267007984E+02  0.64488128219E+01 -0.33081076845E+01  0.72461539363E+02  0.69999959707E+02 0.  0.
         12    1    1    2    0    0  0.17267007984E+02 -0.64488128219E+01  0.33081076845E+01  0.18726460637E+02  0.00000000000E+00 0. -1.
         11    1    3    3    0    0 -0.11375191614E+01 -0.23916470996E+01  0.16916430279E+02  0.17122486366E+02  0.51100000000E-03 0. -1.
        -11    1    3    3    0    0  0.44590359596E+01  0.24066783317E+02 -0.16363440367E+02  0.29442405503E+02  0.51100000000E-03 0.  1.
        -12    1    3    3    0    0 -0.20588524782E+02 -0.15226323395E+02 -0.38610975968E+01  0.25896647495E+02  0.00000000000E+00 0.  1.
</event>
<event>
 7    1  0.1283194E-013  0.7246158E+02  0.7816164E-02  0.1226708E+00
        -11   -1    0    0    0    0  0.00000000000E+00  0.00000000000E+00  0.45593999997E+02  0.45594000000E+02  0.51100000000E-03 0.  1.
         11   -1    0    0    0    0 -0.00000000000E+00 -0.00000000000E+00 -0.45593999997E+02  0.45594000000E+02  0.51100000000E-03 0. -1.
    9900012    2    1    2    0    0 -0.19561470281E+01 -0.12106597939E+02  0.14152126731E+02  0.72461577067E+02  0.70000008823E+02 0.  0.
         12    1    1    2    0    0  0.19561470281E+01  0.12106597939E+02 -0.14152126731E+02  0.18726422933E+02  0.00000000000E+00 0. -1.
         11    1    3    3    0    0 -0.19656381712E+02 -0.27252967388E+02  0.19602084060E+02  0.38901661574E+02  0.51100000000E-03 0. -1.
        -11    1    3    3    0    0  0.87986620075E+01  0.15879474946E+02 -0.12617176639E+02  0.22108082782E+02  0.51100000000E-03 0.  1.
        -12    1    3    3    0    0  0.89015726766E+01 -0.73310549682E+00  0.71672193114E+01  0.11451832711E+02  0.00000000000E+00 0.  1.
</event>
<event>
 7    1  0.1283194E-013  0.7246158E+02  0.7816164E-02  0.1226708E+00
        -11   -1    0    0    0    0  0.00000000000E+00  0.00000000000E+00  0.45593999997E+02  0.45594000000E+02  0.51100000000E-03 0.  1.
         11   -1    0    0    0    0 -0.00000000000E+00 -0.00000000000E+00 -0.45593999997E+02  0.45594000000E+02  0.51100000000E-03 0. -1.
    9900012    2    1    2    0    0  0.10892490242E+02 -0.73223822034E+01 -0.13357210608E+02  0.72461582830E+02  0.70000016330E+02 0.  0.
         12    1    1    2    0    0 -0.10892490242E+02  0.73223822034E+01  0.13357210608E+02  0.18726417170E+02  0.00000000000E+00 0. -1.
         11    1    3    3    0    0  0.88106969645E+01 -0.22863232788E+02 -0.52839596958E+01  0.25065434863E+02  0.51100000000E-03 0. -1.
        -11    1    3    3    0    0 -0.17243099466E+02  0.20002643692E+02 -0.13098382273E+01  0.26441367406E+02  0.51100000000E-03 0.  1.
        -12    1    3    3    0    0  0.19324892743E+02 -0.44617931069E+01 -0.67634126845E+01  0.20954780562E+02  0.00000000000E+00 0.  1.
</event>
<event>
 7    1  0.1283194E-013  0.7246154E+02  0.7816164E-02  0.1226708E+00
        -11   -1    0    0    0    0  0.00000000000E+00  0.00000000000E+00  0.45593999997E+02  0.45594000000E+02  0.51100000000E-03 0.  1.
         11   -1    0    0    0    0 -0.00000000000E+00 -0.00000000000E+00 -0.45593999997E+02  0.45594000000E+02  0.51100000000E-03 0. -1.
    9900012    2    1    2    0    0 -0.82525739295E+01 -0.16241628558E+02  0.43341314120E+01  0.72461543587E+02  0.69999965209E+02 0.  0.
         12    1    1    2    0    0  0.82525739295E+01  0.16241628558E+02 -0.43341314120E+01  0.18726456413E+02  0.00000000000E+00 0. -1.
         11    1    3    3    0    0  0.28748040518E+02 -0.10827501090E+02 -0.53879956253E+01  0.31188381019E+02  0.51100000000E-03 0. -1.
        -11    1    3    3    0    0 -0.17769429001E+02 -0.39602960445E+01  0.12072381090E+02  0.21844425770E+02  0.51100000000E-03 0.  1.
         12    1    3    3    0    0 -0.19231185446E+02 -0.14538314233E+01 -0.23502540525E+01  0.19428736798E+02  0.00000000000E+00 0. -1.
</event>
<event>
 7    1  0.1283194E-013  0.7246155E+02  0.7816164E-02  0.1226708E+00
        -11   -1    0    0    0    0  0.00000000000E+00  0.00000000000E+00  0.45593999997E+02  0.45594000000E+02  0.51100000000E-03 0. -1.
         11   -1    0    0    0    0 -0.00000000000E+00 -0.00000000000E+00 -0.45593999997E+02  0.45594000000E+02  0.51100000000E-03 0.  1.
    9900012    2    1    2    0    0  0.49789709746E+01  0.17168673093E+02  0.55791197163E+01  0.72461546397E+02  0.69999968869E+02 0.  0.
         12    1    1    2    0    0 -0.49789709746E+01 -0.17168673093E+02 -0.55791197163E+01  0.18726453603E+02  0.00000000000E+00 0. -1.
         11    1    3    3    0    0 -0.92999447734E+01  0.87641419408E+01 -0.22913145879E+02  0.26235689643E+02  0.51100000000E-03 0. -1.
        -11    1    3    3    0    0  0.19327713734E+02 -0.28013396070E+00  0.39803064572E+01  0.19735294094E+02  0.51100000000E-03 0.  1.
         12    1    3    3    0    0 -0.50487979863E+01  0.86846651133E+01  0.24511959138E+02  0.26490562659E+02  0.00000000000E+00 0. -1.
</event>
<event>
 7    1  0.1283194E-013  0.7246150E+02  0.7816164E-02  0.1226708E+00
        -11   -1    0    0    0    0  0.00000000000E+00  0.00000000000E+00  0.45593999997E+02  0.45594000000E+02  0.51100000000E-03 0.  1.
         11   -1    0    0    0    0 -0.00000000000E+00 -0.00000000000E+00 -0.45593999997E+02  0.45594000000E+02  0.51100000000E-03 0. -1.
    9900012    2    1    2    0    0  0.80730557313E+00  0.30145488389E+01  0.18464629303E+02  0.72461500533E+02  0.69999909123E+02 0.  0.
         12    1    1    2    0    0 -0.80730557313E+00 -0.30145488389E+01 -0.18464629303E+02  0.18726499467E+02  0.00000000000E+00 0. -1.
         11    1    3    3    0    0 -0.69206503832E+01  0.22325546513E+02 -0.52938290353E+01  0.23965601494E+02  0.51100000000E-03 0.  1.
        -11    1    3    3    0    0 -0.26417147973E+01 -0.28194145371E+02  0.13240202350E+02  0.31260061561E+02  0.51100000000E-03 0. -1.
        -12    1    3    3    0    0  0.10369670754E+02  0.88831476968E+01  0.10518255988E+02  0.17235837478E+02  0.00000000000E+00 0.  1.
</event>
<event>
 7    1  0.1283194E-013  0.7246153E+02  0.7816164E-02  0.1226708E+00
        -11   -1    0    0    0    0  0.00000000000E+00  0.00000000000E+00  0.45593999997E+02  0.45594000000E+02  0.51100000000E-03 0.  1.
         11   -1    0    0    0    0 -0.00000000000E+00 -0.00000000000E+00 -0.45593999997E+02  0.45594000000E+02  0.51100000000E-03 0. -1.
    9900012    2    1    2    0    0 -0.10531738225E+02  0.14996659920E+02 -0.38553235800E+01  0.72461525727E+02  0.69999941943E+02 0.  0.
         12    1    1    2    0    0  0.10531738225E+02 -0.14996659920E+02  0.38553235800E+01  0.18726474273E+02  0.00000000000E+00 0. -1.
         11    1    3    3    0    0 -0.33881663381E+00  0.13559502908E+02 -0.17368877705E+02  0.22037532276E+02  0.51100000000E-03 0. -1.
        -11    1    3    3    0    0  0.16100496228E+02  0.45703865040E+01  0.16832875059E+02  0.23737314394E+02  0.51100000000E-03 0.  1.
        -12    1    3    3    0    0 -0.26293417819E+02 -0.31332294925E+01 -0.33193209349E+01  0.26686679058E+02  0.00000000000E+00 0.  1.
</event>
<event>
 7    1  0.1283194E-013  0.7246158E+02  0.7816164E-02  0.1226708E+00
        -11   -1    0    0    0    0  0.00000000000E+00  0.00000000000E+00  0.45593999997E+02  0.45594000000E+02  0.51100000000E-03 0.  1.
         11   -1    0    0    0    0 -0.00000000000E+00 -0.00000000000E+00 -0.45593999997E+02  0.45594000000E+02  0.51100000000E-03 0. -1.
    9900012    2    1    2    0    0 -0.78924295839E+00 -0.12460321776E+02  0.13956939603E+02  0.72461583197E+02  0.70000016808E+02 0.  0.
         12    1    1    2    0    0  0.78924295839E+00  0.12460321776E+02 -0.13956939603E+02  0.18726416803E+02  0.00000000000E+00 0. -1.
         11    1    3    3    0    0 -0.28719155411E+01  0.19233920083E+02 -0.30864907414E+01  0.19690556265E+02  0.51100000000E-03 0. -1.
        -11    1    3    3    0    0 -0.15615473515E+02 -0.20688636876E+02  0.11417958054E+00  0.25920566085E+02  0.51100000000E-03 0.  1.
        -12    1    3    3    0    0  0.17698146098E+02 -0.11005604982E+02  0.16929250764E+02  0.26850460848E+02  0.00000000000E+00 0.  1.
</event>
<event>
 7    1  0.1283194E-013  0.7246157E+02  0.7816164E-02  0.1226708E+00
        -11   -1    0    0    0    0  0.00000000000E+00  0.00000000000E+00  0.45593999997E+02  0.45594000000E+02  0.51100000000E-03 0. -1.
         11   -1    0    0    0    0 -0.00000000000E+00 -0.00000000000E+00 -0.45593999997E+02  0.45594000000E+02  0.51100000000E-03 0.  1.
    9900012    2    1    2    0    0  0.16845456543E+02  0.67166555944E+01  0.46686550480E+01  0.72461569254E+02  0.69999998645E+02 0.  0.
         12    1    1    2    0    0 -0.16845456543E+02 -0.67166555944E+01 -0.46686550480E+01  0.18726430746E+02  0.00000000000E+00 0. -1.
         11    1    3    3    0    0  0.20281020754E+02 -0.53696580150E+01  0.82511892203E+01  0.22544071368E+02  0.51100000000E-03 0. -1.
        -11    1    3    3    0    0 -0.43240723688E+01 -0.53040446426E+01 -0.22905633457E+02  0.23906035551E+02  0.51100000000E-03 0.  1.
        -12    1    3    3    0    0  0.88850815827E+00  0.17390358252E+02  0.19323099285E+02  0.26011462336E+02  0.00000000000E+00 0.  1.
</event>
<event>
 7    1  0.1283194E-013  0.7246154E+02  0.7816164E-02  0.1226708E+00
        -11   -1    0    0    0    0  0.00000000000E+00  0.00000000000E+00  0.45593999997E+02  0.45594000000E+02  0.51100000000E-03 0.  1.
         11   -1    0    0    0    0 -0.00000000000E+00 -0.00000000000E+00 -0.45593999997E+02  0.45594000000E+02  0.51100000000E-03 0. -1.
    9900012    2    1    2    0    0  0.84109639290E+01 -0.14558869941E+02  0.82447050806E+01  0.72461543580E+02  0.69999965200E+02 0.  0.
         12    1    1    2    0    0 -0.84109639290E+01  0.14558869941E+02 -0.82447050806E+01  0.18726456420E+02  0.00000000000E+00 0. -1.
         11    1    3    3    0    0 -0.53152483287E+01 -0.14268433709E+01  0.24621922089E+02  0.25229482643E+02  0.51100000000E-03 0. -1.
        -11    1    3    3    0    0 -0.54042222438E+01  0.11381910374E+02 -0.83569744668E+01  0.15119276580E+02  0.51100000000E-03 0.  1.
         12    1    3    3    0    0  0.19130434501E+02 -0.24513936944E+02 -0.80202425419E+01  0.32112784357E+02  0.00000000000E+00 0. -1.
</event>
<event>
 7    1  0.1283194E-013  0.7246157E+02  0.7816164E-02  0.1226708E+00
        -11   -1    0    0    0    0  0.00000000000E+00  0.00000000000E+00  0.45593999997E+02  0.45594000000E+02  0.51100000000E-03 0. -1.
         11   -1    0    0    0    0 -0.00000000000E+00 -0.00000000000E+00 -0.45593999997E+02  0.45594000000E+02  0.51100000000E-03 0.  1.
    9900012    2    1    2    0    0 -0.13558585809E+02  0.22809023594E+01 -0.12713822611E+02  0.72461573483E+02  0.70000004154E+02 0.  0.
         12    1    1    2    0    0  0.13558585809E+02 -0.22809023594E+01  0.12713822611E+02  0.18726426517E+02  0.00000000000E+00 0. -1.
         11    1    3    3    0    0  0.70408050669E+00 -0.15257145444E+02  0.90376612176E+01  0.17746986702E+02  0.51100000000E-03 0. -1.
        -11    1    3    3    0    0 -0.25919474848E+02  0.19088839710E+02 -0.26701313484E+01  0.32300659120E+02  0.51100000000E-03 0.  1.
        -12    1    3    3    0    0  0.11656808533E+02 -0.15507919067E+01 -0.19081352481E+02  0.22413927661E+02  0.00000000000E+00 0.  1.
</event>
<event>
 7    1  0.1283194E-013  0.7246136E+02  0.7816164E-02  0.1226709E+00
        -11   -1    0    0    0    0  0.00000000000E+00  0.00000000000E+00  0.45593999997E+02  0.45594000000E+02  0.51100000000E-03 0.  1.
         11   -1    0    0    0    0 -0.00000000000E+00 -0.00000000000E+00 -0.45593999997E+02  0.45594000000E+02  0.51100000000E-03 0. -1.
    9900012    2    1    2    0    0  0.18438702978E+02 -0.91730029903E+00  0.31400215475E+01  0.72461362750E+02  0.69999729635E+02 0.  0.
         12    1    1    2    0    0 -0.18438702978E+02  0.91730029903E+00 -0.31400215475E+01  0.18726637250E+02  0.00000000000E+00 0. -1.
         11    1    3    3    0    0 -0.21174439946E+02 -0.11960156732E+02 -0.13661547313E+01  0.24357106459E+02  0.51100000000E-03 0. -1.
        -11    1    3    3    0    0  0.16013131901E+02  0.25322619293E+00 -0.94952496566E+01  0.18618385620E+02  0.51100000000E-03 0.  1.
         12    1    3    3    0    0  0.23600011023E+02  0.10789630240E+02  0.14001425935E+02  0.29485870671E+02  0.00000000000E+00 0. -1.
</event>
<event>
 7    1  0.1283194E-013  0.7246162E+02  0.7816164E-02  0.1226708E+00
        -11   -1    0    0    0    0  0.00000000000E+00  0.00000000000E+00  0.45593999997E+02  0.45594000000E+02  0.51100000000E-03 0.  1.
         11   -1    0    0    0    0 -0.00000000000E+00 -0.00000000000E+00 -0.45593999997E+02  0.45594000000E+02  0.51100000000E-03 0. -1.
    9900012    2    1    2    0    0 -0.17823937492E+02 -0.36453271008E+01  0.44380383690E+01  0.72461619091E+02  0.70000063567E+02 0.  0.
         12    1    1    2    0    0  0.17823937492E+02  0.36453271008E+01 -0.44380383690E+01  0.18726380909E+02  0.00000000000E+00 0. -1.
         11    1    3    3    0    0 -0.29331413564E+02 -0.13346446719E+02  0.10964583359E+02  0.34039411720E+02  0.51100000000E-03 0. -1.
        -11    1    3    3    0    0 -0.28592448945E+01  0.19911582103E+02 -0.50184014552E+01  0.20732359650E+02  0.51100000000E-03 0.  1.
         12    1    3    3    0    0  0.14366720967E+02 -0.10210462485E+02 -0.15081435350E+01  0.17689847722E+02  0.00000000000E+00 0. -1.
</event>
<event>
 7    1  0.1283194E-013  0.7246143E+02  0.7816164E-02  0.1226708E+00
        -11   -1    0    0    0    0  0.00000000000E+00  0.00000000000E+00  0.45593999997E+02  0.45594000000E+02  0.51100000000E-03 0. -1.
         11   -1    0    0    0    0 -0.00000000000E+00 -0.00000000000E+00 -0.45593999997E+02  0.45594000000E+02  0.51100000000E-03 0.  1.
    9900012    2    1    2    0    0 -0.73075128315E+01 -0.25211951585E+01 -0.17056621278E+02  0.72461428017E+02  0.69999814657E+02 0.  0.
         12    1    1    2    0    0  0.73075128315E+01  0.25211951585E+01  0.17056621278E+02  0.18726571983E+02  0.00000000000E+00 0. -1.
         11    1    3    3    0    0 -0.11188882243E+02 -0.19403589506E+02  0.17688990313E+02  0.28541036248E+02  0.51100000000E-03 0. -1.
        -11    1    3    3    0    0 -0.37882012455E+01 -0.84158774683E+00 -0.17830164647E+02  0.18247561760E+02  0.51100000000E-03 0.  1.
         12    1    3    3    0    0  0.76695706572E+01  0.17723982094E+02 -0.16915446944E+02  0.25672830009E+02  0.00000000000E+00 0. -1.
</event>
<event>
 7    1  0.1283194E-013  0.7246160E+02  0.7816164E-02  0.1226708E+00
        -11   -1    0    0    0    0  0.00000000000E+00  0.00000000000E+00  0.45593999997E+02  0.45594000000E+02  0.51100000000E-03 0. -1.
         11   -1    0    0    0    0 -0.00000000000E+00 -0.00000000000E+00 -0.45593999997E+02  0.45594000000E+02  0.51100000000E-03 0.  1.
    9900012    2    1    2    0    0  0.18618138050E+02 -0.90638748945E+00 -0.17948676609E+01  0.72461597445E+02  0.70000035369E+02 0.  0.
         12    1    1    2    0    0 -0.18618138050E+02  0.90638748945E+00  0.17948676609E+01  0.18726402555E+02  0.00000000000E+00 0. -1.
         11    1    3    3    0    0 -0.71109955925E+01 -0.10337554258E+02  0.16735710161E+00  0.12548278568E+02  0.51100000000E-03 0. -1.
        -11    1    3    3    0    0 -0.25001399761E+01  0.25313703664E+02 -0.85967406734E+01  0.26850293174E+02  0.51100000000E-03 0.  1.
        -12    1    3    3    0    0  0.28229273619E+02 -0.15882536895E+02  0.66345159109E+01  0.33063025703E+02  0.00000000000E+00 0.  1.
</event>
<event>
 7    1  0.1283194E-013  0.7246154E+02  0.7816164E-02  0.1226708E+00
        -11   -1    0    0    0    0  0.00000000000E+00  0.00000000000E+00  0.45593999997E+02  0.45594000000E+02  0.51100000000E-03 0. -1.
         11   -1    0    0    0    0 -0.00000000000E+00 -0.00000000000E+00 -0.45593999997E+02  0.45594000000E+02  0.51100000000E-03 0.  1.
    9900012    2    1    2    0    0 -0.14775547528E+02  0.35576288286E+01 -0.10941053707E+02  0.72461543212E+02  0.69999964720E+02 0.  0.
         12    1    1    2    0    0  0.14775547528E+02 -0.35576288286E+01  0.10941053707E+02  0.18726456788E+02  0.00000000000E+00 0. -1.
         11    1    3    3    0    0 -0.28501504979E+02 -0.10834350659E+01  0.10889098689E+02  0.30530019458E+02  0.51100000000E-03 0.  1.
        -11    1    3    3    0    0  0.21910766066E+02  0.99008871276E+01 -0.21407752906E+02  0.32193184376E+02  0.51100000000E-03 0. -1.
        -12    1    3    3    0    0 -0.81848086152E+01 -0.52598232332E+01 -0.42239949021E+00  0.97383393780E+01  0.00000000000E+00 0.  1.
</event>
<event>
 7    1  0.1283194E-013  0.7246158E+02  0.7816164E-02  0.1226708E+00
        -11   -1    0    0    0    0  0.00000000000E+00  0.00000000000E+00  0.45593999997E+02  0.45594000000E+02  0.51100000000E-03 0.  1.
         11   -1    0    0    0    0 -0.00000000000E+00 -0.00000000000E+00 -0.45593999997E+02  0.45594000000E+02  0.51100000000E-03 0. -1.
    9900012    2    1    2    0    0 -0.69428028339E+01 -0.16721341965E+02  0.47825582331E+01  0.72461584124E+02  0.70000018016E+02 0.  0.
         12    1    1    2    0    0  0.69428028339E+01  0.16721341965E+02 -0.47825582331E+01  0.18726415876E+02  0.00000000000E+00 0. -1.
         11    1    3    3    0    0  0.76174939700E+01  0.13480155167E+02 -0.19683086285E+02  0.25043256251E+02  0.51100000000E-03 0. -1.
        -11    1    3    3    0    0 -0.10966651827E+02 -0.24813875162E+02  0.28846609494E+02  0.39599529447E+02  0.51100000000E-03 0.  1.
        -12    1    3    3    0    0 -0.35936449772E+01 -0.53876219699E+01 -0.43809649756E+01  0.78187984262E+01  0.00000000000E+00 0.  1.
</event>
<event>
 7    1  0.1283194E-013  0.7246157E+02  0.7816164E-02  0.1226708E+00
        -11   -1    0    0    0    0  0.00000000000E+00  0.00000000000E+00  0.45593999997E+02  0.45594000000E+02  0.51100000000E-03 0.  1.
         11   -1    0    0    0    0 -0.00000000000E+00 -0.00000000000E+00 -0.45593999997E+02  0.45594000000E+02  0.51100000000E-03 0. -1.
    9900012    2    1    2    0    0 -0.18403299622E+02  0.30427608777E+01  0.16551099492E+01  0.72461568955E+02  0.69999998255E+02 0.  0.
         12    1    1    2    0    0  0.18403299622E+02 -0.30427608777E+01 -0.16551099492E+01  0.18726431045E+02  0.00000000000E+00 0. -1.
         11    1    3    3    0    0 -0.32555283847E+01  0.23193359290E+02  0.22947489656E+02  0.32788986901E+02  0.51100000000E-03 0. -1.
        -11    1    3    3    0    0 -0.17744895523E+02 -0.60308656642E+01 -0.90849433022E+01  0.20827598345E+02  0.51100000000E-03 0.  1.
         12    1    3    3    0    0  0.25971242852E+01 -0.14119732748E+02 -0.12207436405E+02  0.18844983709E+02  0.00000000000E+00 0. -1.
</event>
<event>
 7    1  0.1283194E-013  0.7246155E+02  0.7816164E-02  0.1226708E+00
        -11   -1    0    0    0    0  0.00000000000E+00  0.00000000000E+00  0.45593999997E+02  0.45594000000E+02  0.51100000000E-03 0.  1.
         11   -1    0    0    0    0 -0.00000000000E+00 -0.00000000000E+00 -0.45593999997E+02  0.45594000000E+02  0.51100000000E-03 0. -1.
    9900012    2    1    2    0    0  0.14944557807E+01 -0.10275212671E+02  0.15584180394E+02  0.72461546196E+02  0.69999968608E+02 0.  0.
         12    1    1    2    0    0 -0.14944557807E+01  0.10275212671E+02 -0.15584180394E+02  0.18726453804E+02  0.00000000000E+00 0. -1.
         11    1    3    3    0    0 -0.11274659325E+02 -0.14260660367E+02 -0.21750702469E+02  0.28347441421E+02  0.51100000000E-03 0. -1.
        -11    1    3    3    0    0  0.86852832192E+01  0.21765703610E+01  0.38476021752E+02  0.39504124509E+02  0.51100000000E-03 0.  1.
        -12    1    3    3    0    0  0.40838318862E+01  0.18088773348E+01 -0.11411388898E+01  0.46099802660E+01  0.00000000000E+00 0.  1.
</event>
<event>
 7    1  0.1283194E-013  0.7246152E+02  0.7816164E-02  0.1226708E+00
        -11   -1    0    0    0    0  0.00000000000E+00  0.00000000000E+00  0.45593999997E+02  0.45594000000E+02  0.51100000000E-03 0.  1.
         11   -1    0    0    0    0 -0.00000000000E+00 -0.00000000000E+00 -0.45593999997E+02  0.45594000000E+02  0.51100000000E-03 0. -1.
    9900012    2    1    2    0    0 -0.14338285419E+01  0.14225584591E+02 -0.12093721074E+02  0.72461515796E+02  0.69999929006E+02 0.  0.
         12    1    1    2    0    0  0.14338285419E+01 -0.14225584591E+02  0.12093721074E+02  0.18726484204E+02  0.00000000000E+00 0. -1.
         11    1    3    3    0    0 -0.67643689629E+01  0.29090776043E+02  0.10078322694E+02  0.31521461369E+02  0.51100000000E-03 0. -1.
        -11    1    3    3    0    0  0.14709213895E+02 -0.10929921537E+02 -0.21092854860E+01  0.18446496788E+02  0.51100000000E-03 0.  1.
         12    1    3    3    0    0 -0.93786734740E+01 -0.39352699146E+01 -0.20062758281E+02  0.22493557640E+02  0.00000000000E+00 0. -1.
</event>
<event>
 7    1  0.1283194E-013  0.7246180E+02  0.7816164E-02  0.1226707E+00
        -11   -1    0    0    0    0  0.00000000000E+00  0.00000000000E+00  0.45593999997E+02  0.45594000000E+02  0.51100000000E-03 0. -1.
         11   -1    0    0    0    0 -0.00000000000E+00 -0.00000000000E+00 -0.45593999997E+02  0.45594000000E+02  0.51100000000E-03 0.  1.
    9900012    2    1    2    0    0 -0.13356555461E+02  0.12686638439E+02 -0.33648565787E+01  0.72461798344E+02  0.70000297077E+02 0.  0.
         12    1    1    2    0    0  0.13356555461E+02 -0.12686638439E+02  0.33648565787E+01  0.18726201656E+02  0.00000000000E+00 0. -1.
         11    1    3    3    0    0 -0.35832117738E+02  0.29810421616E+00 -0.16190431558E+02  0.39321236018E+02  0.51100000000E-03 0.  1.
        -11    1    3    3    0    0  0.18373164804E+02  0.62343301705E+01  0.15945033997E+02  0.25113426031E+02  0.51100000000E-03 0. -1.
        -12    1    3    3    0    0  0.41023974732E+01  0.61542040522E+01 -0.31194590175E+01  0.80271362955E+01  0.00000000000E+00 0.  1.
</event>
<event>
 7    1  0.1283194E-013  0.7246157E+02  0.7816164E-02  0.1226708E+00
        -11   -1    0    0    0    0  0.00000000000E+00  0.00000000000E+00  0.45593999997E+02  0.45594000000E+02  0.51100000000E-03 0.  1.
         11   -1    0    0    0    0 -0.00000000000E+00 -0.00000000000E+00 -0.45593999997E+02  0.45594000000E+02  0.51100000000E-03 0. -1.
    9900012    2    1    2    0    0 -0.69982595435E+01  0.57051831206E+01  0.16405923523E+02  0.72461572745E+02  0.70000003193E+02 0.  0.
         12    1    1    2    0    0  0.69982595435E+01 -0.57051831206E+01 -0.16405923523E+02  0.18726427255E+02  0.00000000000E+00 0. -1.
         11    1    3    3    0    0  0.86576177062E+01  0.21940210238E+02 -0.13113893020E+02  0.26987059122E+02  0.51100000000E-03 0. -1.
        -11    1    3    3    0    0 -0.18478325342E+01  0.15510167767E+01  0.21404367126E+02  0.21539894857E+02  0.51100000000E-03 0.  1.
         12    1    3    3    0    0 -0.13808044715E+02 -0.17786043894E+02  0.81154494174E+01  0.23934618767E+02  0.00000000000E+00 0. -1.
</event>
<event>
 7    1  0.1283194E-013  0.7246159E+02  0.7816164E-02  0.1226708E+00
        -11   -1    0    0    0    0  0.00000000000E+00  0.00000000000E+00  0.45593999997E+02  0.45594000000E+02  0.51100000000E-03 0. -1.
         11   -1    0    0    0    0 -0.00000000000E+00 -0.00000000000E+00 -0.45593999997E+02  0.45594000000E+02  0.51100000000E-03 0.  1.
    9900012    2    1    2    0    0 -0.10388475892E+02  0.78716396981E+01 -0.13446011666E+02  0.72461591572E+02  0.70000027718E+02 0.  0.
         12    1    1    2    0    0  0.10388475892E+02 -0.78716396981E+01  0.13446011666E+02  0.18726408428E+02  0.00000000000E+00 0. -1.
         11    1    3    3    0    0  0.14740441415E+02 -0.13354209904E+01 -0.11634840482E+02  0.18826403683E+02  0.51100000000E-03 0. -1.
        -11    1    3    3    0    0 -0.29231882475E+02  0.16533561743E+02  0.13481656250E+02  0.36188626286E+02  0.51100000000E-03 0.  1.
        -12    1    3    3    0    0  0.41029651676E+01 -0.73265010546E+01 -0.15292827433E+02  0.17446561603E+02  0.00000000000E+00 0.  1.
</event>
<event>
 7    1  0.1283194E-013  0.7246158E+02  0.7816164E-02  0.1226708E+00
        -11   -1    0    0    0    0  0.00000000000E+00  0.00000000000E+00  0.45593999997E+02  0.45594000000E+02  0.51100000000E-03 0.  1.
         11   -1    0    0    0    0 -0.00000000000E+00 -0.00000000000E+00 -0.45593999997E+02  0.45594000000E+02  0.51100000000E-03 0. -1.
    9900012    2    1    2    0    0 -0.40038369344E+01 -0.13271776063E+02  0.12589995907E+02  0.72461581575E+02  0.70000014696E+02 0.  0.
         12    1    1    2    0    0  0.40038369344E+01  0.13271776063E+02 -0.12589995907E+02  0.18726418425E+02  0.00000000000E+00 0. -1.
         11    1    3    3    0    0  0.56154413369E+01  0.24431890222E+01 -0.81429372424E+01  0.10188708515E+02  0.51100000000E-03 0. -1.
        -11    1    3    3    0    0 -0.11318746922E+02 -0.35488677550E+02  0.64094453986E+01  0.37797371029E+02  0.51100000000E-03 0.  1.
        -12    1    3    3    0    0  0.16994686509E+01  0.19773712465E+02  0.14323487751E+02  0.24475502031E+02  0.00000000000E+00 0.  1.
</event>
<event>
 7    1  0.1283194E-013  0.7246157E+02  0.7816164E-02  0.1226708E+00
        -11   -1    0    0    0    0  0.00000000000E+00  0.00000000000E+00  0.45593999997E+02  0.45594000000E+02  0.51100000000E-03 0.  1.
         11   -1    0    0    0    0 -0.00000000000E+00 -0.00000000000E+00 -0.45593999997E+02  0.45594000000E+02  0.51100000000E-03 0. -1.
    9900012    2    1    2    0    0  0.15306810426E+02 -0.66915863721E+00 -0.10767218237E+02  0.72461569287E+02  0.69999998687E+02 0.  0.
         12    1    1    2    0    0 -0.15306810426E+02  0.66915863721E+00  0.10767218237E+02  0.18726430713E+02  0.00000000000E+00 0. -1.
         11    1    3    3    0    0 -0.16675768501E+02  0.12099294793E+02 -0.44941968306E+01  0.21087247213E+02  0.51100000000E-03 0. -1.
        -11    1    3    3    0    0  0.13376404686E+02 -0.65647036611E+01  0.15887121086E+02  0.21781279878E+02  0.51100000000E-03 0.  1.
         12    1    3    3    0    0  0.18606174241E+02 -0.62037497694E+01 -0.22160142492E+02  0.29593042195E+02  0.00000000000E+00 0. -1.
</event>
<event>
 7    1  0.1283194E-013  0.7246160E+02  0.7816164E-02  0.1226708E+00
        -11   -1    0    0    0    0  0.00000000000E+00  0.00000000000E+00  0.45593999997E+02  0.45594000000E+02  0.51100000000E-03 0.  1.
         11   -1    0    0    0    0 -0.00000000000E+00 -0.00000000000E+00 -0.45593999997E+02  0.45594000000E+02  0.51100000000E-03 0. -1.
    9900012    2    1    2    0    0 -0.14367589895E+01 -0.48705472561E+01  0.18024750139E+02  0.72461598195E+02  0.70000036346E+02 0.  0.
         12    1    1    2    0    0  0.14367589895E+01  0.48705472561E+01 -0.18024750139E+02  0.18726401805E+02  0.00000000000E+00 0. -1.
         11    1    3    3    0    0 -0.12921555441E+02 -0.19629538326E+02  0.18190170311E+02  0.29718136989E+02  0.51100000000E-03 0. -1.
        -11    1    3    3    0    0  0.15315709702E+02  0.16572018512E+02  0.14934527335E+02  0.27059986478E+02  0.51100000000E-03 0.  1.
        -12    1    3    3    0    0 -0.38309132504E+01 -0.18130274421E+01 -0.15099947507E+02  0.15683474728E+02  0.00000000000E+00 0.  1.
</event>
<event>
 7    1  0.1283194E-013  0.7246158E+02  0.7816164E-02  0.1226708E+00
        -11   -1    0    0    0    0  0.00000000000E+00  0.00000000000E+00  0.45593999997E+02  0.45594000000E+02  0.51100000000E-03 0.  1.
         11   -1    0    0    0    0 -0.00000000000E+00 -0.00000000000E+00 -0.45593999997E+02  0.45594000000E+02  0.51100000000E-03 0. -1.
    9900012    2    1    2    0    0  0.13840672210E+02 -0.10750409222E+02 -0.65987333802E+01  0.72461580484E+02  0.70000013274E+02 0.  0.
         12    1    1    2    0    0 -0.13840672210E+02  0.10750409222E+02  0.65987333802E+01  0.18726419516E+02  0.00000000000E+00 0. -1.
         11    1    3    3    0    0 -0.15269851351E+02 -0.22550293557E+02 -0.10336961358E+02  0.29129656197E+02  0.51100000000E-03 0. -1.
        -11    1    3    3    0    0  0.34961227078E+02  0.12692707853E+02  0.24477814183E+01  0.37274439842E+02  0.51100000000E-03 0.  1.
        -12    1    3    3    0    0 -0.58507035167E+01 -0.89282351886E+00  0.12904465590E+01  0.60574844447E+01  0.00000000000E+00 0.  1.
</event>
<event>
 7    1  0.1283194E-013  0.7246150E+02  0.7816164E-02  0.1226708E+00
        -11   -1    0    0    0    0  0.00000000000E+00  0.00000000000E+00  0.45593999997E+02  0.45594000000E+02  0.51100000000E-03 0.  1.
         11   -1    0    0    0    0 -0.00000000000E+00 -0.00000000000E+00 -0.45593999997E+02  0.45594000000E+02  0.51100000000E-03 0. -1.
    9900012    2    1    2    0    0 -0.11086922150E+02  0.13927501094E+02 -0.58126249007E+01  0.72461501723E+02  0.69999910672E+02 0.  0.
         12    1    1    2    0    0  0.11086922150E+02 -0.13927501094E+02  0.58126249007E+01  0.18726498277E+02  0.00000000000E+00 0. -1.
         11    1    3    3    0    0 -0.63406369468E+01  0.13815346811E+01 -0.23897205113E+02  0.24762647828E+02  0.51100000000E-03 0. -1.
        -11    1    3    3    0    0 -0.21788804673E+02  0.15625578856E+02  0.11388829832E+02  0.29131017299E+02  0.51100000000E-03 0.  1.
        -12    1    3    3    0    0  0.17042519470E+02 -0.30796124429E+01  0.66957503810E+01  0.18567836595E+02  0.00000000000E+00 0.  1.
</event>
<event>
 7    1  0.1283194E-013  0.7246159E+02  0.7816164E-02  0.1226708E+00
        -11   -1    0    0    0    0  0.00000000000E+00  0.00000000000E+00  0.45593999997E+02  0.45594000000E+02  0.51100000000E-03 0.  1.
         11   -1    0    0    0    0 -0.00000000000E+00 -0.00000000000E+00 -0.45593999997E+02  0.45594000000E+02  0.51100000000E-03 0. -1.
    9900012    2    1    2    0    0 -0.72632514963E+00  0.16267088097E+02  0.92483807655E+01  0.72461594841E+02  0.70000031977E+02 0.  0.
         12    1    1    2    0    0  0.72632514963E+00 -0.16267088097E+02 -0.92483807655E+01  0.18726405159E+02  0.00000000000E+00 0. -1.
         11    1    3    3    0    0  0.11800143231E+02  0.94955813481E+01 -0.24421984704E+02  0.28737480449E+02  0.51100000000E-03 0. -1.
        -11    1    3    3    0    0 -0.14475193943E+02 -0.54812147712E+01  0.19258246317E+02  0.24707387691E+02  0.51100000000E-03 0.  1.
         12    1    3    3    0    0  0.19487255625E+01  0.12252721520E+02  0.14412119153E+02  0.19016726702E+02  0.00000000000E+00 0. -1.
</event>
<event>
 7    1  0.1283194E-013  0.7246157E+02  0.7816164E-02  0.1226708E+00
        -11   -1    0    0    0    0  0.00000000000E+00  0.00000000000E+00  0.45593999997E+02  0.45594000000E+02  0.51100000000E-03 0. -1.
         11   -1    0    0    0    0 -0.00000000000E+00 -0.00000000000E+00 -0.45593999997E+02  0.45594000000E+02  0.51100000000E-03 0.  1.
    9900012    2    1    2    0    0 -0.11096810242E+02  0.37656426185E+01 -0.14606850680E+02  0.72461565511E+02  0.69999993769E+02 0.  0.
         12    1    1    2    0    0  0.11096810242E+02 -0.37656426185E+01  0.14606850680E+02  0.18726434489E+02  0.00000000000E+00 0. -1.
         11    1    3    3    0    0 -0.15795687475E+02  0.23346110547E+02 -0.22002315043E+01  0.28273408698E+02  0.51100000000E-03 0. -1.
        -11    1    3    3    0    0  0.33540679367E+01 -0.16092663644E+02 -0.25628847486E+02  0.30447683304E+02  0.51100000000E-03 0.  1.
         12    1    3    3    0    0  0.13448092966E+01 -0.34878042844E+01  0.13222228310E+02  0.13740473509E+02  0.00000000000E+00 0. -1.
</event>
<event>
 7    1  0.1283194E-013  0.7246144E+02  0.7816164E-02  0.1226708E+00
        -11   -1    0    0    0    0  0.00000000000E+00  0.00000000000E+00  0.45593999997E+02  0.45594000000E+02  0.51100000000E-03 0.  1.
         11   -1    0    0    0    0 -0.00000000000E+00 -0.00000000000E+00 -0.45593999997E+02  0.45594000000E+02  0.51100000000E-03 0. -1.
    9900012    2    1    2    0    0 -0.11205338235E+02  0.12859728851E+02  0.77299257336E+01  0.72461441775E+02  0.69999832580E+02 0.  0.
         12    1    1    2    0    0  0.11205338235E+02 -0.12859728851E+02 -0.77299257336E+01  0.18726558225E+02  0.00000000000E+00 0. -1.
         11    1    3    3    0    0 -0.29864460288E+02  0.21430410684E+02 -0.83687764413E+01  0.37698606205E+02  0.51100000000E-03 0. -1.
        -11    1    3    3    0    0  0.12418635812E+02 -0.83334808099E+01 -0.24825364757E+01  0.15160224453E+02  0.51100000000E-03 0.  1.
         12    1    3    3    0    0  0.62404862411E+01 -0.23720102229E+00  0.18581238651E+02  0.19602611118E+02  0.00000000000E+00 0. -1.
</event>
<event>
 7    1  0.1283194E-013  0.7246157E+02  0.7816164E-02  0.1226708E+00
        -11   -1    0    0    0    0  0.00000000000E+00  0.00000000000E+00  0.45593999997E+02  0.45594000000E+02  0.51100000000E-03 0. -1.
         11   -1    0    0    0    0 -0.00000000000E+00 -0.00000000000E+00 -0.45593999997E+02  0.45594000000E+02  0.51100000000E-03 0.  1.
    9900012    2    1    2    0    0 -0.77961140036E+01  0.11057485791E+02 -0.12947263389E+02  0.72461574424E+02  0.70000005380E+02 0.  0.
         12    1    1    2    0    0  0.77961140036E+01 -0.11057485791E+02  0.12947263389E+02  0.18726425576E+02  0.00000000000E+00 0. -1.
         11    1    3    3    0    0  0.98825817126E+01  0.17888599677E+02  0.31917927772E+01  0.20684655209E+02  0.51100000000E-03 0. -1.
        -11    1    3    3    0    0 -0.68246646115E+01 -0.12453868598E+02 -0.30063047500E+02  0.33248484407E+02  0.51100000000E-03 0.  1.
        -12    1    3    3    0    0 -0.10854031105E+02  0.56227547122E+01  0.13923991333E+02  0.18528434808E+02  0.00000000000E+00 0.  1.
</event>
<event>
 7    1  0.1283194E-013  0.7246151E+02  0.7816164E-02  0.1226708E+00
        -11   -1    0    0    0    0  0.00000000000E+00  0.00000000000E+00  0.45593999997E+02  0.45594000000E+02  0.51100000000E-03 0.  1.
         11   -1    0    0    0    0 -0.00000000000E+00 -0.00000000000E+00 -0.45593999997E+02  0.45594000000E+02  0.51100000000E-03 0. -1.
    9900012    2    1    2    0    0 -0.57279702248E+01  0.97215320516E+00  0.17802435724E+02  0.72461509606E+02  0.69999920942E+02 0.  0.
         12    1    1    2    0    0  0.57279702248E+01 -0.97215320516E+00 -0.17802435724E+02  0.18726490394E+02  0.00000000000E+00 0. -1.
         11    1    3    3    0    0  0.28274673786E+02 -0.10991538030E+02  0.19454489175E+02  0.36038149720E+02  0.51100000000E-03 0. -1.
        -11    1    3    3    0    0 -0.28165111423E+02  0.98711556184E+01  0.52966543098E+00  0.29849518596E+02  0.51100000000E-03 0.  1.
         12    1    3    3    0    0 -0.58375325879E+01  0.20925356172E+01 -0.21817188813E+01  0.65738412897E+01  0.00000000000E+00 0. -1.
</event>
<event>
 7    1  0.1283194E-013  0.7246154E+02  0.7816164E-02  0.1226708E+00
        -11   -1    0    0    0    0  0.00000000000E+00  0.00000000000E+00  0.45593999997E+02  0.45594000000E+02  0.51100000000E-03 0.  1.
         11   -1    0    0    0    0 -0.00000000000E+00 -0.00000000000E+00 -0.45593999997E+02  0.45594000000E+02  0.51100000000E-03 0. -1.
    9900012    2    1    2    0    0  0.13903540068E+02  0.16938584380E+01  0.12429913716E+02  0.72461539100E+02  0.69999959364E+02 0.  0.
         12    1    1    2    0    0 -0.13903540068E+02 -0.16938584380E+01 -0.12429913716E+02  0.18726460900E+02  0.00000000000E+00 0. -1.
         11    1    3    3    0    0  0.94406267947E+01  0.31963658681E+02  0.18687190245E+01  0.33381027870E+02  0.51100000000E-03 0. -1.
        -11    1    3    3    0    0  0.84741247429E+01 -0.20853270209E+02 -0.23193279240E+01  0.22628498643E+02  0.51100000000E-03 0.  1.
        -12    1    3    3    0    0 -0.40112114691E+01 -0.94165300348E+01  0.12880522615E+02  0.16452012588E+02  0.00000000000E+00 0.  1.
</event>
<event>
 7    1  0.1283194E-013  0.7246197E+02  0.7816164E-02  0.1226707E+00
        -11   -1    0    0    0    0  0.00000000000E+00  0.00000000000E+00  0.45593999997E+02  0.45594000000E+02  0.51100000000E-03 0.  1.
         11   -1    0    0    0    0 -0.00000000000E+00 -0.00000000000E+00 -0.45593999997E+02  0.45594000000E+02  0.51100000000E-03 0. -1.
    9900012    2    1    2    0    0  0.72001658801E+01 -0.78859670457E+01  0.15382886841E+02  0.72461973393E+02  0.70000525108E+02 0.  0.
         12    1    1    2    0    0 -0.72001658801E+01  0.78859670457E+01 -0.15382886841E+02  0.18726026607E+02  0.00000000000E+00 0. -1.
         11    1    3    3    0    0 -0.52954104589E+01 -0.72656870573E+01 -0.95893646217E+01  0.13144865707E+02  0.51100000000E-03 0. -1.
        -11    1    3    3    0    0  0.30451385277E+02  0.77396042523E+01  0.23909096138E+02  0.39482061974E+02  0.51100000000E-03 0.  1.
        -12    1    3    3    0    0 -0.17955808938E+02 -0.83598842406E+01  0.10631553241E+01  0.19835045712E+02  0.00000000000E+00 0.  1.
</event>
<event>
 7    1  0.1283194E-013  0.7246158E+02  0.7816164E-02  0.1226708E+00
        -11   -1    0    0    0    0  0.00000000000E+00  0.00000000000E+00  0.45593999997E+02  0.45594000000E+02  0.51100000000E-03 0.  1.
         11   -1    0    0    0    0 -0.00000000000E+00 -0.00000000000E+00 -0.45593999997E+02  0.45594000000E+02  0.51100000000E-03 0. -1.
    9900012    2    1    2    0    0 -0.13953632546E+02  0.11911206550E+02  0.37547572315E+01  0.72461577368E+02  0.70000009215E+02 0.  0.
         12    1    1    2    0    0  0.13953632546E+02 -0.11911206550E+02 -0.37547572315E+01  0.18726422632E+02  0.00000000000E+00 0. -1.
         11    1    3    3    0    0  0.20372525947E+02 -0.64863557783E+01 -0.89701196739E+01  0.23185678165E+02  0.51100000000E-03 0. -1.
        -11    1    3    3    0    0 -0.59707852045E+01  0.17330963926E+02  0.97021682712E+01  0.20739929025E+02  0.51100000000E-03 0.  1.
         12    1    3    3    0    0 -0.28355373289E+02  0.10665984028E+01  0.30227086341E+01  0.28535970178E+02  0.00000000000E+00 0. -1.
</event>
<event>
 8    1  0.1283194E-013  0.7246153E+02  0.7816164E-02  0.1226708E+00
        -11   -1    0    0    0    0  0.00000000000E+00  0.00000000000E+00  0.45593999997E+02  0.45594000000E+02  0.51100000000E-03 0.  1.
         11   -1    0    0    0    0 -0.00000000000E+00 -0.00000000000E+00 -0.45593999997E+02  0.45594000000E+02  0.51100000000E-03 0. -1.
    9900012    2    1    2    0    0 -0.25384207633E+01 -0.13683199766E+02 -0.12530246662E+02  0.72461531641E+02  0.69999949646E+02 0.  0.
        -24    2    3    3    0    0 -0.14495205065E+01 -0.40186801070E+00 -0.11696735515E+02  0.59109594775E+02  0.57921222062E+02 0.  0.
         12    1    1    2    0    0  0.25384207633E+01  0.13683199766E+02  0.12530246662E+02  0.18726468359E+02  0.00000000000E+00 0. -1.
         11    1    4    4    0    0  0.25469188357E+02  0.11203905130E+02 -0.10599389391E+02  0.29775058379E+02  0.51100000000E-03 0. -1.
        -11    1    3    3    0    0 -0.10889002568E+01 -0.13281331755E+02 -0.83351114685E+00  0.13351936865E+02  0.51100000000E-03 0.  1.
        -12    1    4    4    0    0 -0.26918708864E+02 -0.11605773141E+02 -0.10973461240E+01  0.29334536396E+02  0.00000000000E+00 0.  1.
</event>
<event>
 7    1  0.1283194E-013  0.7246155E+02  0.7816164E-02  0.1226708E+00
        -11   -1    0    0    0    0  0.00000000000E+00  0.00000000000E+00  0.45593999997E+02  0.45594000000E+02  0.51100000000E-03 0.  1.
         11   -1    0    0    0    0 -0.00000000000E+00 -0.00000000000E+00 -0.45593999997E+02  0.45594000000E+02  0.51100000000E-03 0. -1.
    9900012    2    1    2    0    0 -0.76726096613E+00  0.63551073280E+01  0.17598405137E+02  0.72461549671E+02  0.69999973134E+02 0.  0.
         12    1    1    2    0    0  0.76726096613E+00 -0.63551073280E+01 -0.17598405137E+02  0.18726450329E+02  0.00000000000E+00 0. -1.
         11    1    3    3    0    0  0.13741962965E+01 -0.28626013540E+01 -0.16857732021E+02  0.17154184071E+02  0.51100000000E-03 0. -1.
        -11    1    3    3    0    0 -0.16287645600E+02 -0.10007238213E+02  0.18458509373E+02  0.26573460151E+02  0.51100000000E-03 0.  1.
         12    1    3    3    0    0  0.14146188338E+02  0.19224946895E+02  0.15997627786E+02  0.28733905450E+02  0.00000000000E+00 0. -1.
</event>
<event>
 7    1  0.1283194E-013  0.7246157E+02  0.7816164E-02  0.1226708E+00
        -11   -1    0    0    0    0  0.00000000000E+00  0.00000000000E+00  0.45593999997E+02  0.45594000000E+02  0.51100000000E-03 0. -1.
         11   -1    0    0    0    0 -0.00000000000E+00 -0.00000000000E+00 -0.45593999997E+02  0.45594000000E+02  0.51100000000E-03 0.  1.
    9900012    2    1    2    0    0  0.97375231809E+01 -0.15581287981E+02 -0.36170778740E+01  0.72461570944E+02  0.70000000846E+02 0.  0.
         12    1    1    2    0    0 -0.97375231809E+01  0.15581287981E+02  0.36170778740E+01  0.18726429056E+02  0.00000000000E+00 0. -1.
         11    1    3    3    0    0  0.28389291866E+02 -0.78825011383E+01  0.14926550513E+02  0.33028588031E+02  0.51100000000E-03 0. -1.
        -11    1    3    3    0    0 -0.22316911234E+02 -0.98150836324E+01 -0.45338687233E+01  0.24797910387E+02  0.51100000000E-03 0.  1.
         12    1    3    3    0    0  0.36651425485E+01  0.21162967895E+01 -0.14009759663E+02  0.14635072526E+02  0.00000000000E+00 0. -1.
</event>
<event>
 7    1  0.1283194E-013  0.7246159E+02  0.7816164E-02  0.1226708E+00
        -11   -1    0    0    0    0  0.00000000000E+00  0.00000000000E+00  0.45593999997E+02  0.45594000000E+02  0.51100000000E-03 0.  1.
         11   -1    0    0    0    0 -0.00000000000E+00 -0.00000000000E+00 -0.45593999997E+02  0.45594000000E+02  0.51100000000E-03 0. -1.
    9900012    2    1    2    0    0  0.16313432962E+02 -0.83368587829E+01  0.38790378860E+01  0.72461594998E+02  0.70000032181E+02 0.  0.
         12    1    1    2    0    0 -0.16313432962E+02  0.83368587829E+01 -0.38790378860E+01  0.18726405002E+02  0.00000000000E+00 0. -1.
         11    1    3    3    0    0  0.14621064178E+02 -0.12537664125E+02 -0.20112837680E+02  0.27847706893E+02  0.51100000000E-03 0. -1.
        -11    1    3    3    0    0 -0.14728299624E+02  0.26796701842E+01 -0.62575988049E+00  0.14983157805E+02  0.51100000000E-03 0.  1.
         12    1    3    3    0    0  0.16420668408E+02  0.15211351577E+01  0.24617635447E+02  0.29630730300E+02  0.00000000000E+00 0. -1.
</event>
<event>
 7    1  0.1283194E-013  0.7246161E+02  0.7816164E-02  0.1226708E+00
        -11   -1    0    0    0    0  0.00000000000E+00  0.00000000000E+00  0.45593999997E+02  0.45594000000E+02  0.51100000000E-03 0. -1.
         11   -1    0    0    0    0 -0.00000000000E+00 -0.00000000000E+00 -0.45593999997E+02  0.45594000000E+02  0.51100000000E-03 0.  1.
    9900012    2    1    2    0    0  0.45387881725E+01 -0.11211712491E+02 -0.14295965181E+02  0.72461609117E+02  0.70000050573E+02 0.  0.
         12    1    1    2    0    0 -0.45387881725E+01  0.11211712491E+02  0.14295965181E+02  0.18726390883E+02  0.00000000000E+00 0. -1.
         11    1    3    3    0    0  0.24029589554E+02  0.58960429216E+01  0.13261263117E+02  0.28072149829E+02  0.51100000000E-03 0. -1.
        -11    1    3    3    0    0 -0.21801407261E+02 -0.17064425905E+02 -0.14738934605E+02  0.31364505155E+02  0.51100000000E-03 0.  1.
         12    1    3    3    0    0  0.23106058793E+01 -0.43329507186E-01 -0.12818293693E+02  0.13024954133E+02  0.00000000000E+00 0. -1.
</event>
<event>
 7    1  0.1283194E-013  0.7246122E+02  0.7816164E-02  0.1226709E+00
        -11   -1    0    0    0    0  0.00000000000E+00  0.00000000000E+00  0.45593999997E+02  0.45594000000E+02  0.51100000000E-03 0.  1.
         11   -1    0    0    0    0 -0.00000000000E+00 -0.00000000000E+00 -0.45593999997E+02  0.45594000000E+02  0.51100000000E-03 0. -1.
    9900012    2    1    2    0    0 -0.16305880084E+02 -0.33540710000E+00  0.92031591286E+01  0.72461218077E+02  0.69999541170E+02 0.  0.
         12    1    1    2    0    0  0.16305880084E+02  0.33540710000E+00 -0.92031591286E+01  0.18726781923E+02  0.00000000000E+00 0. -1.
         11    1    3    3    0    0 -0.35056782111E+02 -0.12084583828E+02  0.44734787828E+01  0.37350062262E+02  0.51100000000E-03 0. -1.
        -11    1    3    3    0    0  0.13130928305E+02  0.35939710444E+01  0.15398647369E+02  0.20553740464E+02  0.51100000000E-03 0.  1.
         12    1    3    3    0    0  0.56199737213E+01  0.81552056839E+01 -0.10668967023E+02  0.14557415351E+02  0.00000000000E+00 0. -1.
</event>
<event>
 7    1  0.1283194E-013  0.7246157E+02  0.7816164E-02  0.1226708E+00
        -11   -1    0    0    0    0  0.00000000000E+00  0.00000000000E+00  0.45593999997E+02  0.45594000000E+02  0.51100000000E-03 0.  1.
         11   -1    0    0    0    0 -0.00000000000E+00 -0.00000000000E+00 -0.45593999997E+02  0.45594000000E+02  0.51100000000E-03 0. -1.
    9900012    2    1    2    0    0 -0.11120419925E+02 -0.13495795617E+02 -0.66991759242E+01  0.72461569569E+02  0.69999999055E+02 0.  0.
         12    1    1    2    0    0  0.11120419925E+02  0.13495795617E+02  0.66991759242E+01  0.18726430431E+02  0.00000000000E+00 0. -1.
         11    1    3    3    0    0  0.16039516768E+02 -0.74798269704E+01 -0.27765055672E+02  0.32925859539E+02  0.51100000000E-03 0. -1.
        -11    1    3    3    0    0 -0.26845964954E+02 -0.86600268257E+01  0.22874184334E+02  0.36317078739E+02  0.51100000000E-03 0.  1.
         12    1    3    3    0    0 -0.31397173850E+00  0.26440581794E+01 -0.18083045859E+01  0.32186312904E+01  0.00000000000E+00 0. -1.
</event>
<event>
 7    1  0.1283194E-013  0.7246158E+02  0.7816164E-02  0.1226708E+00
        -11   -1    0    0    0    0  0.00000000000E+00  0.00000000000E+00  0.45593999997E+02  0.45594000000E+02  0.51100000000E-03 0.  1.
         11   -1    0    0    0    0 -0.00000000000E+00 -0.00000000000E+00 -0.45593999997E+02  0.45594000000E+02  0.51100000000E-03 0. -1.
    9900012    2    1    2    0    0  0.30670081337E+01 -0.14011130120E+02  0.12039954713E+02  0.72461579744E+02  0.70000012310E+02 0.  0.
         12    1    1    2    0    0 -0.30670081337E+01  0.14011130120E+02 -0.12039954713E+02  0.18726420256E+02  0.00000000000E+00 0. -1.
         11    1    3    3    0    0 -0.24036751097E+02 -0.12035372223E+01  0.19925446378E+02  0.31244796667E+02  0.51100000000E-03 0. -1.
        -11    1    3    3    0    0  0.20266947951E+02  0.43522865284E+01  0.92891109705E+00  0.20749806104E+02  0.51100000000E-03 0.  1.
        -12    1    3    3    0    0  0.68368112796E+01 -0.17159879426E+02 -0.88144027620E+01  0.20466976973E+02  0.00000000000E+00 0.  1.
</event>
<event>
 7    1  0.1283194E-013  0.7246135E+02  0.7816164E-02  0.1226709E+00
        -11   -1    0    0    0    0  0.00000000000E+00  0.00000000000E+00  0.45593999997E+02  0.45594000000E+02  0.51100000000E-03 0. -1.
         11   -1    0    0    0    0 -0.00000000000E+00 -0.00000000000E+00 -0.45593999997E+02  0.45594000000E+02  0.51100000000E-03 0.  1.
    9900012    2    1    2    0    0 -0.75102157376E+01  0.40432184376E+01 -0.16671428118E+02  0.72461348638E+02  0.69999711250E+02 0.  0.
         12    1    1    2    0    0  0.75102157376E+01 -0.40432184376E+01  0.16671428118E+02  0.18726651362E+02  0.00000000000E+00 0. -1.
         11    1    3    3    0    0 -0.95043979511E+01 -0.71661391542E+01  0.21916034959E+02  0.24939922201E+02  0.51100000000E-03 0. -1.
        -11    1    3    3    0    0  0.11396085025E+02  0.34433957696E+01 -0.30880067986E+02  0.33095412483E+02  0.51100000000E-03 0.  1.
        -12    1    3    3    0    0 -0.94019028115E+01  0.77659618222E+01 -0.77073950915E+01  0.14426013954E+02  0.00000000000E+00 0.  1.
</event>
<event>
 7    1  0.1283194E-013  0.7246158E+02  0.7816164E-02  0.1226708E+00
        -11   -1    0    0    0    0  0.00000000000E+00  0.00000000000E+00  0.45593999997E+02  0.45594000000E+02  0.51100000000E-03 0.  1.
         11   -1    0    0    0    0 -0.00000000000E+00 -0.00000000000E+00 -0.45593999997E+02  0.45594000000E+02  0.51100000000E-03 0. -1.
    9900012    2    1    2    0    0  0.13657494011E+02 -0.12812164873E+02  0.75128070801E-02  0.72461581019E+02  0.70000013971E+02 0.  0.
         12    1    1    2    0    0 -0.13657494011E+02  0.12812164873E+02 -0.75128070801E-02  0.18726418981E+02  0.00000000000E+00 0. -1.
         11    1    3    3    0    0 -0.11837387701E+02 -0.17433512815E+02 -0.25447692601E+02  0.33039917912E+02  0.51100000000E-03 0. -1.
        -11    1    3    3    0    0  0.78393673222E+01  0.82713289121E+01  0.14039543610E+02  0.18082570255E+02  0.51100000000E-03 0.  1.
         12    1    3    3    0    0  0.17655514390E+02 -0.36499809705E+01  0.11415661798E+02  0.21339092852E+02  0.00000000000E+00 0. -1.
</event>
<event>
 7    1  0.1283194E-013  0.7246168E+02  0.7816164E-02  0.1226708E+00
        -11   -1    0    0    0    0  0.00000000000E+00  0.00000000000E+00  0.45593999997E+02  0.45594000000E+02  0.51100000000E-03 0.  1.
         11   -1    0    0    0    0 -0.00000000000E+00 -0.00000000000E+00 -0.45593999997E+02  0.45594000000E+02  0.51100000000E-03 0. -1.
    9900012    2    1    2    0    0 -0.31390266714E+01 -0.11894138780E+02  0.14119167755E+02  0.72461683655E+02  0.70000147673E+02 0.  0.
         12    1    1    2    0    0  0.31390266714E+01  0.11894138780E+02 -0.14119167755E+02  0.18726316345E+02  0.00000000000E+00 0. -1.
         11    1    3    3    0    0  0.72370413749E+01  0.10540355874E+02 -0.21670338644E+02  0.25161030325E+02  0.51100000000E-03 0. -1.
        -11    1    3    3    0    0  0.22134399896E+01 -0.16483209555E+02  0.15806837322E+02  0.22944533559E+02  0.51100000000E-03 0.  1.
         12    1    3    3    0    0 -0.12589508036E+02 -0.59512850981E+01  0.19982669076E+02  0.24356119771E+02  0.00000000000E+00 0. -1.
</event>
<event>
 7    1  0.1283194E-013  0.7246160E+02  0.7816164E-02  0.1226708E+00
        -11   -1    0    0    0    0  0.00000000000E+00  0.00000000000E+00  0.45593999997E+02  0.45594000000E+02  0.51100000000E-03 0.  1.
         11   -1    0    0    0    0 -0.00000000000E+00 -0.00000000000E+00 -0.45593999997E+02  0.45594000000E+02  0.51100000000E-03 0. -1.
    9900012    2    1    2    0    0 -0.10628680430E+02 -0.15364593226E+02 -0.12801025130E+01  0.72461595243E+02  0.70000032500E+02 0.  0.
         12    1    1    2    0    0  0.10628680430E+02  0.15364593226E+02  0.12801025130E+01  0.18726404757E+02  0.00000000000E+00 0. -1.
         11    1    3    3    0    0  0.21152324394E+02  0.18075725537E+00 -0.28866320022E+01  0.21349148579E+02  0.51100000000E-03 0. -1.
        -11    1    3    3    0    0 -0.30219156707E+02 -0.20950577191E+02 -0.10092221925E+02  0.38131051131E+02  0.51100000000E-03 0.  1.
         12    1    3    3    0    0 -0.15618481172E+01  0.54052267099E+01  0.11698751414E+02  0.12981395533E+02  0.00000000000E+00 0. -1.
</event>
<event>
 7    1  0.1283194E-013  0.7246161E+02  0.7816164E-02  0.1226708E+00
        -11   -1    0    0    0    0  0.00000000000E+00  0.00000000000E+00  0.45593999997E+02  0.45594000000E+02  0.51100000000E-03 0.  1.
         11   -1    0    0    0    0 -0.00000000000E+00 -0.00000000000E+00 -0.45593999997E+02  0.45594000000E+02  0.51100000000E-03 0. -1.
    9900012    2    1    2    0    0  0.16461946751E+02  0.61979223385E+01  0.64239927669E+01  0.72461611795E+02  0.70000054062E+02 0.  0.
         12    1    1    2    0    0 -0.16461946751E+02 -0.61979223385E+01 -0.64239927669E+01  0.18726388205E+02  0.00000000000E+00 0. -1.
         11    1    3    3    0    0  0.11320968833E+02 -0.40620370316E+01 -0.10659588042E+02  0.16071443546E+02  0.51100000000E-03 0. -1.
        -11    1    3    3    0    0  0.18512721028E+02  0.25808441232E+02  0.16688128560E+02  0.35878825423E+02  0.51100000000E-03 0.  1.
        -12    1    3    3    0    0 -0.13371743110E+02 -0.15548481862E+02  0.39545224946E+00  0.20511342825E+02  0.00000000000E+00 0.  1.
</event>
<event>
 7    1  0.1283194E-013  0.7246165E+02  0.7816164E-02  0.1226708E+00
        -11   -1    0    0    0    0  0.00000000000E+00  0.00000000000E+00  0.45593999997E+02  0.45594000000E+02  0.51100000000E-03 0.  1.
         11   -1    0    0    0    0 -0.00000000000E+00 -0.00000000000E+00 -0.45593999997E+02  0.45594000000E+02  0.51100000000E-03 0. -1.
    9900012    2    1    2    0    0  0.86444133229E+01  0.11798834484E+02  0.11693500568E+02  0.72461646046E+02  0.70000098681E+02 0.  0.
         12    1    1    2    0    0 -0.86444133229E+01 -0.11798834484E+02 -0.11693500568E+02  0.18726353954E+02  0.00000000000E+00 0. -1.
         11    1    3    3    0    0 -0.22179698915E+02  0.96896812904E+01  0.10626001588E+02  0.26433707222E+02  0.51100000000E-03 0. -1.
        -11    1    3    3    0    0  0.18367897339E+02  0.16610851140E+02 -0.62781849303E+01  0.25548300032E+02  0.51100000000E-03 0.  1.
        -12    1    3    3    0    0  0.12456214899E+02 -0.14501697947E+02  0.73456839103E+01  0.20479638792E+02  0.00000000000E+00 0.  1.
</event>
<event>
 7    1  0.1283194E-013  0.7246152E+02  0.7816164E-02  0.1226708E+00
        -11   -1    0    0    0    0  0.00000000000E+00  0.00000000000E+00  0.45593999997E+02  0.45594000000E+02  0.51100000000E-03 0. -1.
         11   -1    0    0    0    0 -0.00000000000E+00 -0.00000000000E+00 -0.45593999997E+02  0.45594000000E+02  0.51100000000E-03 0.  1.
    9900012    2    1    2    0    0 -0.14370298317E+02  0.63603653953E+01 -0.10184359603E+02  0.72461524031E+02  0.69999939734E+02 0.  0.
         12    1    1    2    0    0  0.14370298317E+02 -0.63603653953E+01  0.10184359603E+02  0.18726475969E+02  0.00000000000E+00 0. -1.
         11    1    3    3    0    0  0.20873096329E+02  0.12017145882E+02 -0.17393318200E+02  0.29709013174E+02  0.51100000000E-03 0. -1.
        -11    1    3    3    0    0 -0.17103228848E+02 -0.11652088508E+02 -0.32860548230E+01  0.20954468740E+02  0.51100000000E-03 0.  1.
         12    1    3    3    0    0 -0.18140165798E+02  0.59953080220E+01  0.10495013420E+02  0.21798042117E+02  0.00000000000E+00 0. -1.
</event>
<event>
 7    1  0.1283194E-013  0.7246156E+02  0.7816164E-02  0.1226708E+00
        -11   -1    0    0    0    0  0.00000000000E+00  0.00000000000E+00  0.45593999997E+02  0.45594000000E+02  0.51100000000E-03 0.  1.
         11   -1    0    0    0    0 -0.00000000000E+00 -0.00000000000E+00 -0.45593999997E+02  0.45594000000E+02  0.51100000000E-03 0. -1.
    9900012    2    1    2    0    0 -0.36891666563E+01 -0.18001688895E+02  0.36067608452E+01  0.72461562072E+02  0.69999989289E+02 0.  0.
         12    1    1    2    0    0  0.36891666563E+01  0.18001688895E+02 -0.36067608452E+01  0.18726437928E+02  0.00000000000E+00 0. -1.
         11    1    3    3    0    0  0.99376537042E+01 -0.37812270989E+02 -0.96860912305E+01  0.40278346069E+02  0.51100000000E-03 0. -1.
        -11    1    3    3    0    0 -0.17737940931E+01  0.14891279027E+02  0.12146984141E+02  0.19298853866E+02  0.51100000000E-03 0.  1.
         12    1    3    3    0    0 -0.11853026267E+02  0.49193030668E+01  0.11458679346E+01  0.12884362137E+02  0.00000000000E+00 0. -1.
</event>
<event>
 7    1  0.1283194E-013  0.7246160E+02  0.7816164E-02  0.1226708E+00
        -11   -1    0    0    0    0  0.00000000000E+00  0.00000000000E+00  0.45593999997E+02  0.45594000000E+02  0.51100000000E-03 0. -1.
         11   -1    0    0    0    0 -0.00000000000E+00 -0.00000000000E+00 -0.45593999997E+02  0.45594000000E+02  0.51100000000E-03 0.  1.
    9900012    2    1    2    0    0 -0.11129172721E+02  0.11736161213E+02 -0.94383293408E+01  0.72461600821E+02  0.70000039766E+02 0.  0.
         12    1    1    2    0    0  0.11129172721E+02 -0.11736161213E+02  0.94383293408E+01  0.18726399179E+02  0.00000000000E+00 0. -1.
         11    1    3    3    0    0  0.15294355132E+02  0.23250864236E+02 -0.80791721287E+01  0.28979182341E+02  0.51100000000E-03 0. -1.
        -11    1    3    3    0    0 -0.16160410127E+01 -0.14237006836E+02 -0.95463928651E+01  0.17217362435E+02  0.51100000000E-03 0.  1.
         12    1    3    3    0    0 -0.24807486841E+02  0.27223038132E+01  0.81872356530E+01  0.26265056045E+02  0.00000000000E+00 0. -1.
</event>
<event>
 7    1  0.1283194E-013  0.7246162E+02  0.7816164E-02  0.1226708E+00
        -11   -1    0    0    0    0  0.00000000000E+00  0.00000000000E+00  0.45593999997E+02  0.45594000000E+02  0.51100000000E-03 0. -1.
         11   -1    0    0    0    0 -0.00000000000E+00 -0.00000000000E+00 -0.45593999997E+02  0.45594000000E+02  0.51100000000E-03 0.  1.
    9900012    2    1    2    0    0  0.14915400154E+02 -0.92907061129E+01  0.64723305737E+01  0.72461616342E+02  0.70000059986E+02 0.  0.
         12    1    1    2    0    0 -0.14915400154E+02  0.92907061129E+01 -0.64723305737E+01  0.18726383658E+02  0.00000000000E+00 0. -1.
         11    1    3    3    0    0  0.17508827552E+02 -0.98701590285E+01  0.24626527077E+02  0.31787496247E+02  0.51100000000E-03 0. -1.
        -11    1    3    3    0    0  0.94732383580E+01 -0.27103972755E+01 -0.24674715019E+02  0.26569344363E+02  0.51100000000E-03 0.  1.
         12    1    3    3    0    0 -0.12066665756E+02  0.32898501911E+01  0.65205185153E+01  0.14104775732E+02  0.00000000000E+00 0. -1.
</event>
<event>
 7    1  0.1283194E-013  0.7246159E+02  0.7816164E-02  0.1226708E+00
        -11   -1    0    0    0    0  0.00000000000E+00  0.00000000000E+00  0.45593999997E+02  0.45594000000E+02  0.51100000000E-03 0.  1.
         11   -1    0    0    0    0 -0.00000000000E+00 -0.00000000000E+00 -0.45593999997E+02  0.45594000000E+02  0.51100000000E-03 0. -1.
    9900012    2    1    2    0    0 -0.11789536005E+02 -0.14108620052E+02  0.35541943856E+01  0.72461585054E+02  0.70000019228E+02 0.  0.
         12    1    1    2    0    0  0.11789536005E+02  0.14108620052E+02 -0.35541943856E+01  0.18726414946E+02  0.00000000000E+00 0. -1.
         11    1    3    3    0    0  0.15611000168E+02  0.51575934867E+01  0.90513761511E+01  0.18767831716E+02  0.51100000000E-03 0. -1.
        -11    1    3    3    0    0 -0.39121429968E+01 -0.27582748804E+02 -0.70211587499E+01  0.28729941958E+02  0.51100000000E-03 0.  1.
        -12    1    3    3    0    0 -0.23488393176E+02  0.83165352657E+01  0.15239769844E+01  0.24963811381E+02  0.00000000000E+00 0.  1.
</event>
<event>
 7    1  0.1283194E-013  0.7246165E+02  0.7816164E-02  0.1226708E+00
        -11   -1    0    0    0    0  0.00000000000E+00  0.00000000000E+00  0.45593999997E+02  0.45594000000E+02  0.51100000000E-03 0. -1.
         11   -1    0    0    0    0 -0.00000000000E+00 -0.00000000000E+00 -0.45593999997E+02  0.45594000000E+02  0.51100000000E-03 0.  1.
    9900012    2    1    2    0    0 -0.16272280931E+02  0.53780094897E+01 -0.75475880380E+01  0.72461649636E+02  0.70000103357E+02 0.  0.
         12    1    1    2    0    0  0.16272280931E+02 -0.53780094897E+01  0.75475880380E+01  0.18726350364E+02  0.00000000000E+00 0. -1.
         11    1    3    3    0    0 -0.78180206778E+01  0.10434293220E+02  0.24747806959E+02  0.27972305445E+02  0.51100000000E-03 0. -1.
        -11    1    3    3    0    0 -0.19412482523E+01 -0.12176441524E+02 -0.17473098201E+01  0.12453403745E+02  0.51100000000E-03 0.  1.
         12    1    3    3    0    0 -0.65130120007E+01  0.71201577931E+01 -0.30548085177E+02  0.32035940447E+02  0.00000000000E+00 0. -1.
</event>
<event>
 7    1  0.1283194E-013  0.7246153E+02  0.7816164E-02  0.1226708E+00
        -11   -1    0    0    0    0  0.00000000000E+00  0.00000000000E+00  0.45593999997E+02  0.45594000000E+02  0.51100000000E-03 0. -1.
         11   -1    0    0    0    0 -0.00000000000E+00 -0.00000000000E+00 -0.45593999997E+02  0.45594000000E+02  0.51100000000E-03 0.  1.
    9900012    2    1    2    0    0  0.14931725416E+02  0.29798426421E+01 -0.10901591602E+02  0.72461532486E+02  0.69999950748E+02 0.  0.
         12    1    1    2    0    0 -0.14931725416E+02 -0.29798426421E+01  0.10901591602E+02  0.18726467514E+02  0.00000000000E+00 0. -1.
         11    1    3    3    0    0  0.13722870153E+02  0.17648663646E+02 -0.21176624725E+02  0.30793537126E+02  0.51100000000E-03 0.  1.
        -11    1    3    3    0    0  0.10857987226E+01 -0.21234159324E+02 -0.76357500772E+01  0.22591439984E+02  0.51100000000E-03 0. -1.
         12    1    3    3    0    0  0.12305654127E+00  0.65653383201E+01  0.17910783200E+02  0.19076555376E+02  0.00000000000E+00 0. -1.
</event>
<event>
 7    1  0.1283194E-013  0.7246152E+02  0.7816164E-02  0.1226708E+00
        -11   -1    0    0    0    0  0.00000000000E+00  0.00000000000E+00  0.45593999997E+02  0.45594000000E+02  0.51100000000E-03 0.  1.
         11   -1    0    0    0    0 -0.00000000000E+00 -0.00000000000E+00 -0.45593999997E+02  0.45594000000E+02  0.51100000000E-03 0. -1.
    9900012    2    1    2    0    0 -0.44170912643E+01  0.71229516354E+01  0.16746159849E+02  0.72461521289E+02  0.69999936161E+02 0.  0.
         12    1    1    2    0    0  0.44170912643E+01 -0.71229516354E+01 -0.16746159849E+02  0.18726478711E+02  0.00000000000E+00 0. -1.
         11    1    3    3    0    0 -0.17205951128E+02  0.72228126549E+00  0.68944865414E+01  0.18549943110E+02  0.51100000000E-03 0. -1.
        -11    1    3    3    0    0  0.17741929291E+02  0.55602771952E+00 -0.17847906510E+02  0.25172067631E+02  0.51100000000E-03 0.  1.
        -12    1    3    3    0    0 -0.49530694269E+01  0.58446426504E+01  0.27699579817E+02  0.28739510548E+02  0.00000000000E+00 0.  1.
</event>
<event>
 7    1  0.1283194E-013  0.7246159E+02  0.7816164E-02  0.1226708E+00
        -11   -1    0    0    0    0  0.00000000000E+00  0.00000000000E+00  0.45593999997E+02  0.45594000000E+02  0.51100000000E-03 0.  1.
         11   -1    0    0    0    0 -0.00000000000E+00 -0.00000000000E+00 -0.45593999997E+02  0.45594000000E+02  0.51100000000E-03 0. -1.
    9900012    2    1    2    0    0  0.95776218180E+01  0.63214774365E+01  0.14798190940E+02  0.72461591594E+02  0.70000027747E+02 0.  0.
         12    1    1    2    0    0 -0.95776218180E+01 -0.63214774365E+01 -0.14798190940E+02  0.18726408406E+02  0.00000000000E+00 0. -1.
         11    1    3    3    0    0  0.21190219588E+02 -0.14273266883E+02 -0.11164677383E+02  0.27881922012E+02  0.51100000000E-03 0. -1.
        -11    1    3    3    0    0 -0.78786896427E+01 -0.16940114615E+01  0.19461065099E+02  0.21063629325E+02  0.51100000000E-03 0.  1.
        -12    1    3    3    0    0 -0.37339081278E+01  0.22288755781E+02  0.65018032249E+01  0.23516040257E+02  0.00000000000E+00 0.  1.
</event>
<event>
 7    1  0.1283194E-013  0.7246166E+02  0.7816164E-02  0.1226708E+00
        -11   -1    0    0    0    0  0.00000000000E+00  0.00000000000E+00  0.45593999997E+02  0.45594000000E+02  0.51100000000E-03 0. -1.
         11   -1    0    0    0    0 -0.00000000000E+00 -0.00000000000E+00 -0.45593999997E+02  0.45594000000E+02  0.51100000000E-03 0.  1.
    9900012    2    1    2    0    0  0.37606640275E+01 -0.41356551553E+00 -0.18340181682E+02  0.72461657738E+02  0.70000113912E+02 0.  0.
         12    1    1    2    0    0 -0.37606640275E+01  0.41356551553E+00  0.18340181682E+02  0.18726342262E+02  0.00000000000E+00 0. -1.
         11    1    3    3    0    0  0.31297241691E+02 -0.72129189834E+01 -0.17825171439E+01  0.32167077973E+02  0.51100000000E-03 0.  1.
        -11    1    3    3    0    0 -0.19151452462E+02  0.32003851882E+01  0.20948796030E+01  0.19529698348E+02  0.51100000000E-03 0. -1.
        -12    1    3    3    0    0 -0.83851252011E+01  0.35989682797E+01 -0.18652544141E+02  0.20764881417E+02  0.00000000000E+00 0.  1.
</event>
<event>
 7    1  0.1283194E-013  0.7246157E+02  0.7816164E-02  0.1226708E+00
        -11   -1    0    0    0    0  0.00000000000E+00  0.00000000000E+00  0.45593999997E+02  0.45594000000E+02  0.51100000000E-03 0.  1.
         11   -1    0    0    0    0 -0.00000000000E+00 -0.00000000000E+00 -0.45593999997E+02  0.45594000000E+02  0.51100000000E-03 0. -1.
    9900012    2    1    2    0    0 -0.40036773363E+01  0.48664698001E+01  0.17634259404E+02  0.72461573078E+02  0.70000003627E+02 0.  0.
         12    1    1    2    0    0  0.40036773363E+01 -0.48664698001E+01 -0.17634259404E+02  0.18726426922E+02  0.00000000000E+00 0. -1.
         11    1    3    3    0    0 -0.21057124671E+02 -0.12528894543E+02  0.25699259886E+02  0.35508135080E+02  0.51100000000E-03 0. -1.
        -11    1    3    3    0    0  0.12106141248E+02  0.12118896737E+02  0.83197211995E+01  0.19043215987E+02  0.51100000000E-03 0.  1.
         12    1    3    3    0    0  0.49473060860E+01  0.52764676068E+01 -0.16384721682E+02  0.17910222012E+02  0.00000000000E+00 0. -1.
</event>
<event>
 7    1  0.1283194E-013  0.7246157E+02  0.7816164E-02  0.1226708E+00
        -11   -1    0    0    0    0  0.00000000000E+00  0.00000000000E+00  0.45593999997E+02  0.45594000000E+02  0.51100000000E-03 0.  1.
         11   -1    0    0    0    0 -0.00000000000E+00 -0.00000000000E+00 -0.45593999997E+02  0.45594000000E+02  0.51100000000E-03 0. -1.
    9900012    2    1    2    0    0 -0.98139635247E+01  0.39559497269E+01  0.15450426886E+02  0.72461571903E+02  0.70000002096E+02 0.  0.
         12    1    1    2    0    0  0.98139635247E+01 -0.39559497269E+01 -0.15450426886E+02  0.18726428097E+02  0.00000000000E+00 0. -1.
         11    1    3    3    0    0 -0.25370139787E+02  0.20737269819E+02  0.16107799385E+02  0.36512183633E+02  0.51100000000E-03 0. -1.
        -11    1    3    3    0    0  0.60645981957E+01 -0.16215844871E+02  0.11298583759E+02  0.20673436370E+02  0.51100000000E-03 0.  1.
         12    1    3    3    0    0  0.94915780665E+01 -0.56547522162E+00 -0.11955956257E+02  0.15275951900E+02  0.00000000000E+00 0. -1.
</event>
<event>
 7    1  0.1283194E-013  0.7246161E+02  0.7816164E-02  0.1226708E+00
        -11   -1    0    0    0    0  0.00000000000E+00  0.00000000000E+00  0.45593999997E+02  0.45594000000E+02  0.51100000000E-03 0. -1.
         11   -1    0    0    0    0 -0.00000000000E+00 -0.00000000000E+00 -0.45593999997E+02  0.45594000000E+02  0.51100000000E-03 0.  1.
    9900012    2    1    2    0    0 -0.18507432686E+02 -0.13992514994E+01 -0.24888922194E+01  0.72461613433E+02  0.70000056196E+02 0.  0.
         12    1    1    2    0    0  0.18507432686E+02  0.13992514994E+01  0.24888922194E+01  0.18726386567E+02  0.00000000000E+00 0. -1.
         11    1    3    3    0    0 -0.14949789274E+02  0.26818353808E+02  0.68192927692E+01  0.31451916547E+02  0.51100000000E-03 0. -1.
        -11    1    3    3    0    0 -0.75562023931E+00 -0.32103273095E+02 -0.13316122103E+02  0.34763633491E+02  0.51100000000E-03 0.  1.
        -12    1    3    3    0    0 -0.28020231727E+01  0.38856677877E+01  0.40079371147E+01  0.62460633948E+01  0.00000000000E+00 0.  1.
</event>
<event>
 7    1  0.1283194E-013  0.7246157E+02  0.7816164E-02  0.1226708E+00
        -11   -1    0    0    0    0  0.00000000000E+00  0.00000000000E+00  0.45593999997E+02  0.45594000000E+02  0.51100000000E-03 0. -1.
         11   -1    0    0    0    0 -0.00000000000E+00 -0.00000000000E+00 -0.45593999997E+02  0.45594000000E+02  0.51100000000E-03 0.  1.
    9900012    2    1    2    0    0 -0.22227494135E+01 -0.17437381665E+02 -0.64557099677E+01  0.72461572539E+02  0.70000002924E+02 0.  0.
         12    1    1    2    0    0  0.22227494135E+01  0.17437381665E+02  0.64557099677E+01  0.18726427461E+02  0.00000000000E+00 0. -1.
         11    1    3    3    0    0  0.15277662986E+02 -0.26598102839E+02 -0.13610693878E+02  0.33557667516E+02  0.51100000000E-03 0. -1.
        -11    1    3    3    0    0 -0.25483882244E+02 -0.28818073955E+00  0.22066666535E+01  0.25580865512E+02  0.51100000000E-03 0.  1.
         12    1    3    3    0    0  0.79834698439E+01  0.94489019143E+01  0.49483172571E+01  0.13323039511E+02  0.00000000000E+00 0. -1.
</event>
<event>
 7    1  0.1283194E-013  0.7246158E+02  0.7816164E-02  0.1226708E+00
        -11   -1    0    0    0    0  0.00000000000E+00  0.00000000000E+00  0.45593999997E+02  0.45594000000E+02  0.51100000000E-03 0. -1.
         11   -1    0    0    0    0 -0.00000000000E+00 -0.00000000000E+00 -0.45593999997E+02  0.45594000000E+02  0.51100000000E-03 0.  1.
    9900012    2    1    2    0    0 -0.71530263648E+01 -0.17304194840E+02 -0.27911252404E+00  0.72461578852E+02  0.70000011147E+02 0.  0.
         12    1    1    2    0    0  0.71530263648E+01  0.17304194840E+02  0.27911252404E+00  0.18726421148E+02  0.00000000000E+00 0. -1.
         11    1    3    3    0    0 -0.32652111507E+02 -0.11054411346E+02 -0.27097731363E+01  0.34578942534E+02  0.51100000000E-03 0. -1.
        -11    1    3    3    0    0  0.95288392874E+01  0.10810055821E+02  0.24783093337E+00  0.14412408038E+02  0.51100000000E-03 0.  1.
         12    1    3    3    0    0  0.15970245855E+02 -0.17059839315E+02  0.21828296789E+01  0.23470228280E+02  0.00000000000E+00 0. -1.
</event>
<event>
 7    1  0.1283194E-013  0.7246159E+02  0.7816164E-02  0.1226708E+00
        -11   -1    0    0    0    0  0.00000000000E+00  0.00000000000E+00  0.45593999997E+02  0.45594000000E+02  0.51100000000E-03 0.  1.
         11   -1    0    0    0    0 -0.00000000000E+00 -0.00000000000E+00 -0.45593999997E+02  0.45594000000E+02  0.51100000000E-03 0. -1.
    9900012    2    1    2    0    0  0.13624422379E+02 -0.97899284675E+00  0.12809961262E+02  0.72461590315E+02  0.70000026080E+02 0.  0.
         12    1    1    2    0    0 -0.13624422379E+02  0.97899284675E+00 -0.12809961262E+02  0.18726409685E+02  0.00000000000E+00 0. -1.
         11    1    3    3    0    0 -0.24150704794E+01  0.29148335392E+02  0.92274360534E+01  0.30669261451E+02  0.51100000000E-03 0. -1.
        -11    1    3    3    0    0 -0.24214046612E+01 -0.61971854025E+01  0.88923991863E+01  0.11105992571E+02  0.51100000000E-03 0.  1.
         12    1    3    3    0    0  0.18460897520E+02 -0.23930142836E+02 -0.53098739775E+01  0.30686336293E+02  0.00000000000E+00 0. -1.
</event>
<event>
 7    1  0.1283194E-013  0.7246151E+02  0.7816164E-02  0.1226708E+00
        -11   -1    0    0    0    0  0.00000000000E+00  0.00000000000E+00  0.45593999997E+02  0.45594000000E+02  0.51100000000E-03 0.  1.
         11   -1    0    0    0    0 -0.00000000000E+00 -0.00000000000E+00 -0.45593999997E+02  0.45594000000E+02  0.51100000000E-03 0. -1.
    9900012    2    1    2    0    0 -0.51849790597E+01 -0.33945914283E+01  0.17671278165E+02  0.72461512588E+02  0.69999924826E+02 0.  0.
         12    1    1    2    0    0  0.51849790597E+01  0.33945914283E+01 -0.17671278165E+02  0.18726487412E+02  0.00000000000E+00 0. -1.
         11    1    3    3    0    0  0.16233937199E+02  0.23469872811E+01 -0.58016186720E+01  0.17398501250E+02  0.51100000000E-03 0. -1.
        -11    1    3    3    0    0 -0.24419715176E+02 -0.21312768953E+02  0.91112983118E+01  0.33668566452E+02  0.51100000000E-03 0.  1.
        -12    1    3    3    0    0  0.30007989169E+01  0.15571190244E+02  0.14361598525E+02  0.21394444886E+02  0.00000000000E+00 0.  1.
</event>
<event>
 7    1  0.1283194E-013  0.7246165E+02  0.7816164E-02  0.1226708E+00
        -11   -1    0    0    0    0  0.00000000000E+00  0.00000000000E+00  0.45593999997E+02  0.45594000000E+02  0.51100000000E-03 0. -1.
         11   -1    0    0    0    0 -0.00000000000E+00 -0.00000000000E+00 -0.45593999997E+02  0.45594000000E+02  0.51100000000E-03 0.  1.
    9900012    2    1    2    0    0  0.11321929162E+02 -0.29939383769E+01 -0.14612542408E+02  0.72461651114E+02  0.70000105283E+02 0.  0.
         12    1    1    2    0    0 -0.11321929162E+02  0.29939383769E+01  0.14612542408E+02  0.18726348886E+02  0.00000000000E+00 0. -1.
         11    1    3    3    0    0  0.52516456140E+01  0.93827331601E+01 -0.33613519941E+02  0.35291418026E+02  0.51100000000E-03 0. -1.
        -11    1    3    3    0    0  0.85801024914E+00 -0.15383364235E+02 -0.18040246574E+01  0.15512529838E+02  0.51100000000E-03 0.  1.
         12    1    3    3    0    0  0.52122732989E+01  0.30066926976E+01  0.20805002190E+02  0.21657703250E+02  0.00000000000E+00 0. -1.
</event>
<event>
 7    1  0.1283194E-013  0.7246151E+02  0.7816164E-02  0.1226708E+00
        -11   -1    0    0    0    0  0.00000000000E+00  0.00000000000E+00  0.45593999997E+02  0.45594000000E+02  0.51100000000E-03 0. -1.
         11   -1    0    0    0    0 -0.00000000000E+00 -0.00000000000E+00 -0.45593999997E+02  0.45594000000E+02  0.51100000000E-03 0.  1.
    9900012    2    1    2    0    0 -0.11762560674E+02  0.11969077082E+02 -0.83105205093E+01  0.72461510983E+02  0.69999922735E+02 0.  0.
         12    1    1    2    0    0  0.11762560674E+02 -0.11969077082E+02  0.83105205093E+01  0.18726489017E+02  0.00000000000E+00 0. -1.
         11    1    3    3    0    0 -0.67445644434E+01 -0.88626155690E+01  0.27033870625E+01  0.11460515090E+02  0.51100000000E-03 0. -1.
        -11    1    3    3    0    0  0.21169323931E+02 -0.42192137445E+01  0.36771195350E+01  0.21896649256E+02  0.51100000000E-03 0.  1.
        -12    1    3    3    0    0 -0.26187320161E+02  0.25050906395E+02 -0.14691027107E+02  0.39104346637E+02  0.00000000000E+00 0.  1.
</event>
<event>
 7    1  0.1283194E-013  0.7246160E+02  0.7816164E-02  0.1226708E+00
        -11   -1    0    0    0    0  0.00000000000E+00  0.00000000000E+00  0.45593999997E+02  0.45594000000E+02  0.51100000000E-03 0.  1.
         11   -1    0    0    0    0 -0.00000000000E+00 -0.00000000000E+00 -0.45593999997E+02  0.45594000000E+02  0.51100000000E-03 0. -1.
    9900012    2    1    2    0    0 -0.15472120077E+02 -0.10547289282E+02 -0.21533165796E+00  0.72461596753E+02  0.70000034467E+02 0.  0.
         12    1    1    2    0    0  0.15472120077E+02  0.10547289282E+02  0.21533165796E+00  0.18726403247E+02  0.00000000000E+00 0. -1.
         11    1    3    3    0    0 -0.76026733222E+01 -0.29097122711E+02 -0.15765307545E+02  0.33955678670E+02  0.51100000000E-03 0.  1.
        -11    1    3    3    0    0 -0.27779313066E+01  0.24700854609E+02  0.51336026520E+01  0.25381154371E+02  0.51100000000E-03 0. -1.
         12    1    3    3    0    0 -0.50915154479E+01 -0.61510211801E+01  0.10416373235E+02  0.13124763712E+02  0.00000000000E+00 0. -1.
</event>
<event>
 7    1  0.1283194E-013  0.7246155E+02  0.7816164E-02  0.1226708E+00
        -11   -1    0    0    0    0  0.00000000000E+00  0.00000000000E+00  0.45593999997E+02  0.45594000000E+02  0.51100000000E-03 0. -1.
         11   -1    0    0    0    0 -0.00000000000E+00 -0.00000000000E+00 -0.45593999997E+02  0.45594000000E+02  0.51100000000E-03 0.  1.
    9900012    2    1    2    0    0  0.12753603014E+02 -0.14580259464E+01 -0.13634507284E+02  0.72461547630E+02  0.69999970475E+02 0.  0.
         12    1    1    2    0    0 -0.12753603014E+02  0.14580259464E+01  0.13634507284E+02  0.18726452370E+02  0.00000000000E+00 0. -1.
         11    1    3    3    0    0 -0.16779088837E+02 -0.21603791916E+02  0.88002683751E+01  0.28735106944E+02  0.51100000000E-03 0. -1.
        -11    1    3    3    0    0  0.15105349189E+02  0.95325640535E+01 -0.45867206456E+01  0.18441240687E+02  0.51100000000E-03 0.  1.
         12    1    3    3    0    0  0.14427342662E+02  0.10613201917E+02 -0.17848055013E+02  0.25285199999E+02  0.00000000000E+00 0. -1.
</event>
<event>
 7    1  0.1283194E-013  0.7246181E+02  0.7816164E-02  0.1226707E+00
        -11   -1    0    0    0    0  0.00000000000E+00  0.00000000000E+00  0.45593999997E+02  0.45594000000E+02  0.51100000000E-03 0.  1.
         11   -1    0    0    0    0 -0.00000000000E+00 -0.00000000000E+00 -0.45593999997E+02  0.45594000000E+02  0.51100000000E-03 0. -1.
    9900012    2    1    2    0    0  0.97938931017E+01 -0.15924128003E+02 -0.10826430990E+01  0.72461806825E+02  0.70000308125E+02 0.  0.
         12    1    1    2    0    0 -0.97938931017E+01  0.15924128003E+02  0.10826430990E+01  0.18726193175E+02  0.00000000000E+00 0. -1.
         11    1    3    3    0    0 -0.10964152245E+01  0.11566902115E+01 -0.55373208264E+00  0.16872101441E+01  0.51100000000E-03 0. -1.
        -11    1    3    3    0    0  0.31376664321E+02 -0.31632874186E+02  0.56106446940E+01  0.44906715838E+02  0.51100000000E-03 0.  1.
        -12    1    3    3    0    0 -0.20486355995E+02  0.14552055972E+02 -0.61395557104E+01  0.25867880843E+02  0.00000000000E+00 0.  1.
</event>
<event>
 7    1  0.1283194E-013  0.7246157E+02  0.7816164E-02  0.1226708E+00
        -11   -1    0    0    0    0  0.00000000000E+00  0.00000000000E+00  0.45593999997E+02  0.45594000000E+02  0.51100000000E-03 0.  1.
         11   -1    0    0    0    0 -0.00000000000E+00 -0.00000000000E+00 -0.45593999997E+02  0.45594000000E+02  0.51100000000E-03 0. -1.
    9900012    2    1    2    0    0 -0.74181042109E+01 -0.12140423235E+02  0.12176254546E+02  0.72461566245E+02  0.69999994725E+02 0.  0.
         12    1    1    2    0    0  0.74181042109E+01  0.12140423235E+02 -0.12176254546E+02  0.18726433755E+02  0.00000000000E+00 0. -1.
         11    1    3    3    0    0 -0.17213664727E+02  0.17413160616E+02 -0.41905308482E+01  0.24841275431E+02  0.51100000000E-03 0. -1.
        -11    1    3    3    0    0  0.20168185178E+02 -0.12733760967E+02  0.36714055385E+01  0.24132624819E+02  0.51100000000E-03 0.  1.
        -12    1    3    3    0    0 -0.10372624663E+02 -0.16819822884E+02  0.12695379855E+02  0.23487665996E+02  0.00000000000E+00 0.  1.
</event>
<event>
 7    1  0.1283194E-013  0.7246159E+02  0.7816164E-02  0.1226708E+00
        -11   -1    0    0    0    0  0.00000000000E+00  0.00000000000E+00  0.45593999997E+02  0.45594000000E+02  0.51100000000E-03 0.  1.
         11   -1    0    0    0    0 -0.00000000000E+00 -0.00000000000E+00 -0.45593999997E+02  0.45594000000E+02  0.51100000000E-03 0. -1.
    9900012    2    1    2    0    0 -0.92086941762E+01  0.10170450397E+02  0.12745205613E+02  0.72461591486E+02  0.70000027606E+02 0.  0.
         12    1    1    2    0    0  0.92086941762E+01 -0.10170450397E+02 -0.12745205613E+02  0.18726408514E+02  0.00000000000E+00 0. -1.
         11    1    3    3    0    0 -0.58302963165E+01  0.14517356254E+02  0.16445663388E+02  0.22698146010E+02  0.51100000000E-03 0.  1.
        -11    1    3    3    0    0  0.15273147514E+02 -0.56360264586E+01 -0.19417183817E+02  0.25338919805E+02  0.51100000000E-03 0. -1.
        -12    1    3    3    0    0 -0.18651545374E+02  0.12891206009E+01  0.15716726043E+02  0.24424525671E+02  0.00000000000E+00 0.  1.
</event>
<event>
 7    1  0.1283194E-013  0.7246192E+02  0.7816164E-02  0.1226707E+00
        -11   -1    0    0    0    0  0.00000000000E+00  0.00000000000E+00  0.45593999997E+02  0.45594000000E+02  0.51100000000E-03 0. -1.
         11   -1    0    0    0    0 -0.00000000000E+00 -0.00000000000E+00 -0.45593999997E+02  0.45594000000E+02  0.51100000000E-03 0.  1.
    9900012    2    1    2    0    0  0.97341734926E+01  0.46579860508E+01 -0.15304084979E+02  0.72461922336E+02  0.70000458598E+02 0.  0.
         12    1    1    2    0    0 -0.97341734926E+01 -0.46579860508E+01  0.15304084979E+02  0.18726077664E+02  0.00000000000E+00 0. -1.
         11    1    3    3    0    0  0.28105207511E+02  0.42328329864E+01  0.15656975093E+02  0.32449351821E+02  0.51100000000E-03 0. -1.
        -11    1    3    3    0    0 -0.18938363346E+02  0.57903125037E+01 -0.26000723384E+02  0.32683741246E+02  0.51100000000E-03 0.  1.
        -12    1    3    3    0    0  0.56732932805E+00 -0.53651594393E+01 -0.49603366883E+01  0.73288292678E+01  0.00000000000E+00 0.  1.
</event>
<event>
 7    1  0.1283194E-013  0.7246167E+02  0.7816164E-02  0.1226708E+00
        -11   -1    0    0    0    0  0.00000000000E+00  0.00000000000E+00  0.45593999997E+02  0.45594000000E+02  0.51100000000E-03 0.  1.
         11   -1    0    0    0    0 -0.00000000000E+00 -0.00000000000E+00 -0.45593999997E+02  0.45594000000E+02  0.51100000000E-03 0. -1.
    9900012    2    1    2    0    0  0.15670366661E+02  0.57178866308E+01  0.85100396314E+01  0.72461671120E+02  0.70000131343E+02 0.  0.
         12    1    1    2    0    0 -0.15670366661E+02 -0.57178866308E+01 -0.85100396314E+01  0.18726328880E+02  0.00000000000E+00 0. -1.
         11    1    3    3    0    0 -0.27576560021E+01 -0.38811056777E+01 -0.12936286174E+02  0.13784598222E+02  0.51100000000E-03 0. -1.
        -11    1    3    3    0    0 -0.58107124545E+01 -0.10228352039E+02  0.24535581360E+02  0.27209893744E+02  0.51100000000E-03 0.  1.
        -12    1    3    3    0    0  0.24238735118E+02  0.19827344348E+02 -0.30892555539E+01  0.31467179153E+02  0.00000000000E+00 0.  1.
</event>
<event>
 7    1  0.1844330E-013  0.7246160E+02  0.7816164E-02  0.1226708E+00
        -11   -1    0    0    0    0  0.00000000000E+00  0.00000000000E+00  0.45593999997E+02  0.45594000000E+02  0.51100000000E-03 0. -1.
         11   -1    0    0    0    0 -0.00000000000E+00 -0.00000000000E+00 -0.45593999997E+02  0.45594000000E+02  0.51100000000E-03 0.  1.
    9900012    2    1    2    0    0  0.95819001235E+01  0.27104840511E+01 -0.15859334388E+02  0.72461600961E+02  0.70000039948E+02 0.  0.
         12    1    1    2    0    0 -0.95819001235E+01 -0.27104840511E+01  0.15859334388E+02  0.18726399039E+02  0.00000000000E+00 0. -1.
         11    1    3    3    0    0 -0.97780629174E+01  0.12752671098E+02  0.14442695404E+02  0.21606308924E+02  0.51100000000E-03 0. -1.
        -11    1    3    3    0    0 -0.12430036252E+01 -0.25952229900E+01 -0.28749153228E+02  0.28892802771E+02  0.51100000000E-03 0.  1.
         12    1    3    3    0    0  0.20602966666E+02 -0.74469640566E+01 -0.15528765638E+01  0.21962489265E+02  0.00000000000E+00 0. -1.
</event>
<event>
 7    1  0.1283194E-013  0.7246156E+02  0.7816164E-02  0.1226708E+00
        -11   -1    0    0    0    0  0.00000000000E+00  0.00000000000E+00  0.45593999997E+02  0.45594000000E+02  0.51100000000E-03 0. -1.
         11   -1    0    0    0    0 -0.00000000000E+00 -0.00000000000E+00 -0.45593999997E+02  0.45594000000E+02  0.51100000000E-03 0.  1.
    9900012    2    1    2    0    0 -0.11763201748E+02  0.41370335476E+01 -0.13971098007E+02  0.72461560363E+02  0.69999987063E+02 0.  0.
         12    1    1    2    0    0  0.11763201748E+02 -0.41370335476E+01  0.13971098007E+02  0.18726439637E+02  0.00000000000E+00 0. -1.
         11    1    3    3    0    0  0.14058244280E+02  0.16309317301E+02 -0.22286623563E+02  0.30989056990E+02  0.51100000000E-03 0. -1.
        -11    1    3    3    0    0 -0.24825320586E+02 -0.54825601511E+01  0.16911675241E+02  0.30534566768E+02  0.51100000000E-03 0.  1.
        -12    1    3    3    0    0 -0.99612544161E+00 -0.66897236021E+01 -0.85961496845E+01  0.10937936605E+02  0.00000000000E+00 0.  1.
</event>
<event>
 8    1  0.1283194E-013  0.7246152E+02  0.7816164E-02  0.1226708E+00
        -11   -1    0    0    0    0  0.00000000000E+00  0.00000000000E+00  0.45593999997E+02  0.45594000000E+02  0.51100000000E-03 0.  1.
         11   -1    0    0    0    0 -0.00000000000E+00 -0.00000000000E+00 -0.45593999997E+02  0.45594000000E+02  0.51100000000E-03 0. -1.
    9900012    2    1    2    0    0 -0.14776329314E+02  0.82264699274E+01  0.80415323397E+01  0.72461522546E+02  0.69999937799E+02 0.  0.
        -24    2    3    3    0    0 -0.63184290370E-01 -0.36917406911E+01  0.21730648105E+01  0.52638321689E+02  0.52463680370E+02 0.  0.
         12    1    1    2    0    0  0.14776329314E+02 -0.82264699274E+01 -0.80415323397E+01  0.18726477454E+02  0.00000000000E+00 0. -1.
         11    1    4    4    0    0  0.19468503421E+02 -0.54303016811E+01  0.18287916370E+02  0.27257268521E+02  0.51100000000E-03 0. -1.
        -11    1    3    3    0    0 -0.14713145023E+02  0.11918210619E+02  0.58684675292E+01  0.19823200857E+02  0.51100000000E-03 0.  1.
        -12    1    4    4    0    0 -0.19531687711E+02  0.17385609900E+01 -0.16114851560E+02  0.25381053168E+02  0.00000000000E+00 0.  1.
</event>
<event>
 7    1  0.1283194E-013  0.7246161E+02  0.7816164E-02  0.1226708E+00
        -11   -1    0    0    0    0  0.00000000000E+00  0.00000000000E+00  0.45593999997E+02  0.45594000000E+02  0.51100000000E-03 0. -1.
         11   -1    0    0    0    0 -0.00000000000E+00 -0.00000000000E+00 -0.45593999997E+02  0.45594000000E+02  0.51100000000E-03 0.  1.
    9900012    2    1    2    0    0 -0.12088502070E+02  0.65586901362E+01 -0.12709415154E+02  0.72461614012E+02  0.70000056951E+02 0.  0.
         12    1    1    2    0    0  0.12088502070E+02 -0.65586901362E+01  0.12709415154E+02  0.18726385988E+02  0.00000000000E+00 0. -1.
         11    1    3    3    0    0 -0.10084837533E+02 -0.89798845577E+01 -0.59924793393E+01  0.14773357223E+02  0.51100000000E-03 0. -1.
        -11    1    3    3    0    0 -0.57917944275E+01  0.35823141526E+02 -0.74280139726E+01  0.37040757867E+02  0.51100000000E-03 0.  1.
        -12    1    3    3    0    0  0.37881298904E+01 -0.20284566832E+02  0.71107815784E+00  0.20647498923E+02  0.00000000000E+00 0.  1.
</event>
<event>
 7    1  0.1283194E-013  0.7246158E+02  0.7816164E-02  0.1226708E+00
        -11   -1    0    0    0    0  0.00000000000E+00  0.00000000000E+00  0.45593999997E+02  0.45594000000E+02  0.51100000000E-03 0. -1.
         11   -1    0    0    0    0 -0.00000000000E+00 -0.00000000000E+00 -0.45593999997E+02  0.45594000000E+02  0.51100000000E-03 0.  1.
    9900012    2    1    2    0    0 -0.65708880198E+01  0.64562156829E+00 -0.17523853226E+02  0.72461579401E+02  0.70000011863E+02 0.  0.
         12    1    1    2    0    0  0.65708880198E+01 -0.64562156829E+00  0.17523853226E+02  0.18726420599E+02  0.00000000000E+00 0. -1.
         11    1    3    3    0    0 -0.42716017812E+01  0.26421261030E+02 -0.65496205408E+01  0.27554076752E+02  0.51100000000E-03 0. -1.
        -11    1    3    3    0    0  0.15692965970E+01 -0.53691339553E+01 -0.21079957604E+02  0.21809514073E+02  0.51100000000E-03 0.  1.
         12    1    3    3    0    0 -0.38685828355E+01 -0.20406505506E+02  0.10105724919E+02  0.23097988576E+02  0.00000000000E+00 0. -1.
</event>
<event>
 7    1  0.1283194E-013  0.7246146E+02  0.7816164E-02  0.1226708E+00
        -11   -1    0    0    0    0  0.00000000000E+00  0.00000000000E+00  0.45593999997E+02  0.45594000000E+02  0.51100000000E-03 0.  1.
         11   -1    0    0    0    0 -0.00000000000E+00 -0.00000000000E+00 -0.45593999997E+02  0.45594000000E+02  0.51100000000E-03 0. -1.
    9900012    2    1    2    0    0 -0.37279905068E+01  0.20234546177E+01  0.18239821331E+02  0.72461458302E+02  0.69999854109E+02 0.  0.
         12    1    1    2    0    0  0.37279905068E+01 -0.20234546177E+01 -0.18239821331E+02  0.18726541698E+02  0.00000000000E+00 0. -1.
         11    1    3    3    0    0  0.15579539593E+01  0.26057040117E+02 -0.91081351548E+00  0.26119459062E+02  0.51100000000E-03 0. -1.
        -11    1    3    3    0    0  0.11433255042E+02 -0.12297606605E+02  0.19728411019E+02  0.25906768434E+02  0.51100000000E-03 0.  1.
        -12    1    3    3    0    0 -0.16719199508E+02 -0.11735978894E+02 -0.57777617343E+00  0.20435230806E+02  0.00000000000E+00 0.  1.
</event>
<event>
 7    1  0.1283194E-013  0.7246156E+02  0.7816164E-02  0.1226708E+00
        -11   -1    0    0    0    0  0.00000000000E+00  0.00000000000E+00  0.45593999997E+02  0.45594000000E+02  0.51100000000E-03 0.  1.
         11   -1    0    0    0    0 -0.00000000000E+00 -0.00000000000E+00 -0.45593999997E+02  0.45594000000E+02  0.51100000000E-03 0. -1.
    9900012    2    1    2    0    0  0.10741886719E+02 -0.75828162420E+01  0.13333874498E+02  0.72461563031E+02  0.69999990538E+02 0.  0.
         12    1    1    2    0    0 -0.10741886719E+02  0.75828162420E+01 -0.13333874498E+02  0.18726436969E+02  0.00000000000E+00 0. -1.
         11    1    3    3    0    0 -0.44623504994E+01 -0.17401765791E+02 -0.17551699801E+02  0.25115656288E+02  0.51100000000E-03 0. -1.
        -11    1    3    3    0    0  0.10426049636E+00 -0.11204657155E+01  0.28529244350E+02  0.28551428986E+02  0.51100000000E-03 0.  1.
        -12    1    3    3    0    0  0.15099976722E+02  0.10939415264E+02  0.23563299485E+01  0.18794477757E+02  0.00000000000E+00 0.  1.
</event>
<event>
 7    1  0.1283194E-013  0.7246156E+02  0.7816164E-02  0.1226708E+00
        -11   -1    0    0    0    0  0.00000000000E+00  0.00000000000E+00  0.45593999997E+02  0.45594000000E+02  0.51100000000E-03 0.  1.
         11   -1    0    0    0    0 -0.00000000000E+00 -0.00000000000E+00 -0.45593999997E+02  0.45594000000E+02  0.51100000000E-03 0. -1.
    9900012    2    1    2    0    0  0.10755713590E+02  0.33276114675E+01  0.14964000217E+02  0.72461556787E+02  0.69999982404E+02 0.  0.
         12    1    1    2    0    0 -0.10755713590E+02 -0.33276114675E+01 -0.14964000217E+02  0.18726443213E+02  0.00000000000E+00 0. -1.
         11    1    3    3    0    0 -0.82894747129E+01  0.15070933710E+01 -0.22070449116E+02  0.23623959150E+02  0.51100000000E-03 0. -1.
        -11    1    3    3    0    0  0.19485810824E+02  0.90834036195E+01  0.35341549301E+02  0.41367017683E+02  0.51100000000E-03 0.  1.
        -12    1    3    3    0    0 -0.44062252081E+00 -0.72628855229E+01  0.16929000329E+01  0.74705799538E+01  0.00000000000E+00 0.  1.
</event>
<event>
 7    1  0.1283194E-013  0.7246155E+02  0.7816164E-02  0.1226708E+00
        -11   -1    0    0    0    0  0.00000000000E+00  0.00000000000E+00  0.45593999997E+02  0.45594000000E+02  0.51100000000E-03 0.  1.
         11   -1    0    0    0    0 -0.00000000000E+00 -0.00000000000E+00 -0.45593999997E+02  0.45594000000E+02  0.51100000000E-03 0. -1.
    9900012    2    1    2    0    0 -0.14914752257E+02  0.31859056877E+01 -0.10866468809E+02  0.72461548806E+02  0.69999972007E+02 0.  0.
         12    1    1    2    0    0  0.14914752257E+02 -0.31859056877E+01  0.10866468809E+02  0.18726451194E+02  0.00000000000E+00 0. -1.
         11    1    3    3    0    0 -0.16988901867E+00 -0.18371187247E+01  0.19224077969E+00  0.18549458929E+01  0.51100000000E-03 0. -1.
        -11    1    3    3    0    0  0.72039131803E+01  0.32473490894E+02 -0.12231423636E+02  0.35440537529E+02  0.51100000000E-03 0.  1.
        -12    1    3    3    0    0 -0.21948776419E+02 -0.27450466481E+02  0.11727140473E+01  0.35166065384E+02  0.00000000000E+00 0.  1.
</event>
<event>
 7    1  0.1283194E-013  0.7246165E+02  0.7816164E-02  0.1226708E+00
        -11   -1    0    0    0    0  0.00000000000E+00  0.00000000000E+00  0.45593999997E+02  0.45594000000E+02  0.51100000000E-03 0. -1.
         11   -1    0    0    0    0 -0.00000000000E+00 -0.00000000000E+00 -0.45593999997E+02  0.45594000000E+02  0.51100000000E-03 0.  1.
    9900012    2    1    2    0    0  0.12315294702E+02 -0.10912173815E+02 -0.89405906552E+01  0.72461650056E+02  0.70000103904E+02 0.  0.
         12    1    1    2    0    0 -0.12315294702E+02  0.10912173815E+02  0.89405906552E+01  0.18726349944E+02  0.00000000000E+00 0. -1.
         11    1    3    3    0    0  0.22976656084E+02 -0.41769419729E+01  0.78215159419E+01  0.24628229350E+02  0.51100000000E-03 0. -1.
        -11    1    3    3    0    0 -0.25743676006E+02 -0.28559431412E+00 -0.17953019920E+02  0.31386770189E+02  0.51100000000E-03 0.  1.
         12    1    3    3    0    0  0.15082314624E+02 -0.64496375278E+01  0.11909133225E+01  0.16446650516E+02  0.00000000000E+00 0. -1.
</event>
<event>
 7    1  0.1283194E-013  0.7246151E+02  0.7816164E-02  0.1226708E+00
        -11   -1    0    0    0    0  0.00000000000E+00  0.00000000000E+00  0.45593999997E+02  0.45594000000E+02  0.51100000000E-03 0. -1.
         11   -1    0    0    0    0 -0.00000000000E+00 -0.00000000000E+00 -0.45593999997E+02  0.45594000000E+02  0.51100000000E-03 0.  1.
    9900012    2    1    2    0    0 -0.18570796525E+02 -0.32418546199E+00 -0.23878512608E+01  0.72461510382E+02  0.69999921953E+02 0.  0.
         12    1    1    2    0    0  0.18570796525E+02  0.32418546199E+00  0.23878512608E+01  0.18726489618E+02  0.00000000000E+00 0. -1.
         11    1    3    3    0    0 -0.24093409242E+02 -0.28372296855E+02  0.94067669163E+00  0.37233915596E+02  0.51100000000E-03 0. -1.
        -11    1    3    3    0    0 -0.93436037015E+00  0.58855443104E+01 -0.96068271875E+01  0.11305033835E+02  0.51100000000E-03 0.  1.
         12    1    3    3    0    0  0.64569730870E+01  0.22162567083E+02  0.62782992350E+01  0.23922560951E+02  0.00000000000E+00 0. -1.
</event>
<event>
 7    1  0.1283194E-013  0.7246157E+02  0.7816164E-02  0.1226708E+00
        -11   -1    0    0    0    0  0.00000000000E+00  0.00000000000E+00  0.45593999997E+02  0.45594000000E+02  0.51100000000E-03 0. -1.
         11   -1    0    0    0    0 -0.00000000000E+00 -0.00000000000E+00 -0.45593999997E+02  0.45594000000E+02  0.51100000000E-03 0.  1.
    9900012    2    1    2    0    0  0.35509979787E+01 -0.13364384948E+01 -0.18338038812E+02  0.72461566224E+02  0.69999994697E+02 0.  0.
         12    1    1    2    0    0 -0.35509979787E+01  0.13364384948E+01  0.18338038812E+02  0.18726433776E+02  0.00000000000E+00 0. -1.
         11    1    3    3    0    0  0.18794874809E+02  0.12234195821E+02  0.10475098993E+02  0.24751779040E+02  0.51100000000E-03 0. -1.
        -11    1    3    3    0    0 -0.17554097441E+02  0.34040600865E+01 -0.53617845979E+01  0.18667691244E+02  0.51100000000E-03 0.  1.
         12    1    3    3    0    0  0.23102206109E+01 -0.16974694402E+02 -0.23451353207E+02  0.29042095940E+02  0.00000000000E+00 0. -1.
</event>
<event>
 7    1  0.1283194E-013  0.7246172E+02  0.7816164E-02  0.1226708E+00
        -11   -1    0    0    0    0  0.00000000000E+00  0.00000000000E+00  0.45593999997E+02  0.45594000000E+02  0.51100000000E-03 0.  1.
         11   -1    0    0    0    0 -0.00000000000E+00 -0.00000000000E+00 -0.45593999997E+02  0.45594000000E+02  0.51100000000E-03 0. -1.
    9900012    2    1    2    0    0  0.99159530417E+01 -0.10776870602E+02 -0.11670755927E+02  0.72461718773E+02  0.70000193420E+02 0.  0.
         12    1    1    2    0    0 -0.99159530417E+01  0.10776870602E+02  0.11670755927E+02  0.18726281227E+02  0.00000000000E+00 0. -1.
         11    1    3    3    0    0 -0.15086519400E-01 -0.32292824956E+02  0.33278187612E+01  0.32463843722E+02  0.51100000000E-03 0. -1.
        -11    1    3    3    0    0  0.10461965620E+02  0.24037585228E+02 -0.15031973883E+01  0.26258671536E+02  0.51100000000E-03 0.  1.
         12    1    3    3    0    0 -0.53092605867E+00 -0.25216308735E+01 -0.13495377300E+02  0.13739203514E+02  0.00000000000E+00 0. -1.
</event>
<event>
 7    1  0.1283194E-013  0.7246156E+02  0.7816164E-02  0.1226708E+00
        -11   -1    0    0    0    0  0.00000000000E+00  0.00000000000E+00  0.45593999997E+02  0.45594000000E+02  0.51100000000E-03 0. -1.
         11   -1    0    0    0    0 -0.00000000000E+00 -0.00000000000E+00 -0.45593999997E+02  0.45594000000E+02  0.51100000000E-03 0.  1.
    9900012    2    1    2    0    0 -0.16091055443E+02 -0.86770101983E+01 -0.40579628966E+01  0.72461557889E+02  0.69999983840E+02 0.  0.
         12    1    1    2    0    0  0.16091055443E+02  0.86770101983E+01  0.40579628966E+01  0.18726442111E+02  0.00000000000E+00 0. -1.
         11    1    3    3    0    0 -0.18446938651E+02 -0.12664836953E+02 -0.28916758702E+02  0.36563186058E+02  0.51100000000E-03 0. -1.
        -11    1    3    3    0    0  0.43614410100E+01 -0.94605869800E+01  0.43447603183E+01  0.11287241300E+02  0.51100000000E-03 0.  1.
         12    1    3    3    0    0 -0.20055578024E+01  0.13448413735E+02  0.20514035487E+02  0.24611130531E+02  0.00000000000E+00 0. -1.
</event>
<event>
 7    1  0.1283194E-013  0.7246120E+02  0.7816164E-02  0.1226709E+00
        -11   -1    0    0    0    0  0.00000000000E+00  0.00000000000E+00  0.45593999997E+02  0.45594000000E+02  0.51100000000E-03 0. -1.
         11   -1    0    0    0    0 -0.00000000000E+00 -0.00000000000E+00 -0.45593999997E+02  0.45594000000E+02  0.51100000000E-03 0.  1.
    9900012    2    1    2    0    0  0.15238059828E+02 -0.57006437028E+01 -0.92734707882E+01  0.72461199248E+02  0.69999516641E+02 0.  0.
         12    1    1    2    0    0 -0.15238059828E+02  0.57006437028E+01  0.92734707882E+01  0.18726800752E+02  0.00000000000E+00 0. -1.
         11    1    3    3    0    0  0.36636978793E+02  0.13267107729E+02 -0.10809322460E+01  0.38980158765E+02  0.51100000000E-03 0. -1.
        -11    1    3    3    0    0 -0.15340212118E+02 -0.81850190929E+01 -0.11289506647E+02  0.20730885316E+02  0.51100000000E-03 0.  1.
         12    1    3    3    0    0 -0.60587068460E+01 -0.10782732339E+02  0.30969681044E+01  0.12750155167E+02  0.00000000000E+00 0. -1.
</event>
<event>
 7    1  0.1283194E-013  0.7246157E+02  0.7816164E-02  0.1226708E+00
        -11   -1    0    0    0    0  0.00000000000E+00  0.00000000000E+00  0.45593999997E+02  0.45594000000E+02  0.51100000000E-03 0.  1.
         11   -1    0    0    0    0 -0.00000000000E+00 -0.00000000000E+00 -0.45593999997E+02  0.45594000000E+02  0.51100000000E-03 0. -1.
    9900012    2    1    2    0    0  0.13069740584E+01 -0.15455063402E+02  0.10493425863E+02  0.72461570755E+02  0.70000000600E+02 0.  0.
         12    1    1    2    0    0 -0.13069740584E+01  0.15455063402E+02 -0.10493425863E+02  0.18726429245E+02  0.00000000000E+00 0. -1.
         11    1    3    3    0    0 -0.10634257465E+02  0.10282521878E+00  0.10811301285E+01  0.10689567225E+02  0.51100000000E-03 0. -1.
        -11    1    3    3    0    0  0.23837378131E+02 -0.11915108508E+01  0.27068705860E+02  0.36088157773E+02  0.51100000000E-03 0.  1.
        -12    1    3    3    0    0 -0.11896146608E+02 -0.14366377770E+02 -0.17656410125E+02  0.25683845757E+02  0.00000000000E+00 0.  1.
</event>
<event>
 7    1  0.1283194E-013  0.7246159E+02  0.7816164E-02  0.1226708E+00
        -11   -1    0    0    0    0  0.00000000000E+00  0.00000000000E+00  0.45593999997E+02  0.45594000000E+02  0.51100000000E-03 0. -1.
         11   -1    0    0    0    0 -0.00000000000E+00 -0.00000000000E+00 -0.45593999997E+02  0.45594000000E+02  0.51100000000E-03 0.  1.
    9900012    2    1    2    0    0  0.14533744062E+02 -0.22344368460E+01 -0.11595515192E+02  0.72461590920E+02  0.70000026868E+02 0.  0.
         12    1    1    2    0    0 -0.14533744062E+02  0.22344368460E+01  0.11595515192E+02  0.18726409080E+02  0.00000000000E+00 0. -1.
         11    1    3    3    0    0  0.18025428456E+02  0.14241038480E+02  0.19027519548E+02  0.29829008506E+02  0.51100000000E-03 0. -1.
        -11    1    3    3    0    0  0.29872055953E+01 -0.17875908194E+02 -0.31090751135E+02  0.35987585323E+02  0.51100000000E-03 0.  1.
         12    1    3    3    0    0 -0.64788899894E+01  0.14004328676E+01  0.46771639465E+00  0.66449970908E+01  0.00000000000E+00 0. -1.
</event>
<event>
 7    1  0.1283194E-013  0.7246158E+02  0.7816164E-02  0.1226708E+00
        -11   -1    0    0    0    0  0.00000000000E+00  0.00000000000E+00  0.45593999997E+02  0.45594000000E+02  0.51100000000E-03 0.  1.
         11   -1    0    0    0    0 -0.00000000000E+00 -0.00000000000E+00 -0.45593999997E+02  0.45594000000E+02  0.51100000000E-03 0. -1.
    9900012    2    1    2    0    0  0.10754011304E+02  0.71381277077E+01 -0.13567504191E+02  0.72461580260E+02  0.70000012982E+02 0.  0.
         12    1    1    2    0    0 -0.10754011304E+02 -0.71381277077E+01  0.13567504191E+02  0.18726419740E+02  0.00000000000E+00 0. -1.
         11    1    3    3    0    0  0.21698717415E+02 -0.66026034063E+01  0.14254109114E+02  0.26788212633E+02  0.51100000000E-03 0. -1.
        -11    1    3    3    0    0 -0.20265208105E+02  0.11437805774E+02 -0.97912531999E+01  0.25246201693E+02  0.51100000000E-03 0.  1.
         12    1    3    3    0    0  0.93205019944E+01  0.23029253406E+01 -0.18030360105E+02  0.20427165934E+02  0.00000000000E+00 0. -1.
</event>
<event>
 7    1  0.1283194E-013  0.7246149E+02  0.7816164E-02  0.1226708E+00
        -11   -1    0    0    0    0  0.00000000000E+00  0.00000000000E+00  0.45593999997E+02  0.45594000000E+02  0.51100000000E-03 0.  1.
         11   -1    0    0    0    0 -0.00000000000E+00 -0.00000000000E+00 -0.45593999997E+02  0.45594000000E+02  0.51100000000E-03 0. -1.
    9900012    2    1    2    0    0  0.11482721556E+02  0.13512404386E+02  0.60203179342E+01  0.72461489523E+02  0.69999894780E+02 0.  0.
         12    1    1    2    0    0 -0.11482721556E+02 -0.13512404386E+02 -0.60203179342E+01  0.18726510477E+02  0.00000000000E+00 0. -1.
         11    1    3    3    0    0  0.20470225191E+02 -0.73656230488E+01 -0.68382426149E+00  0.21765802033E+02  0.51100000000E-03 0. -1.
        -11    1    3    3    0    0 -0.26206325911E+02  0.14822503209E+02  0.10805327777E+02  0.31988016940E+02  0.51100000000E-03 0.  1.
        -12    1    3    3    0    0  0.17218822276E+02  0.60555242258E+01 -0.41011855814E+01  0.18707670550E+02  0.00000000000E+00 0.  1.
</event>
<event>
 7    1  0.1283194E-013  0.7246159E+02  0.7816164E-02  0.1226708E+00
        -11   -1    0    0    0    0  0.00000000000E+00  0.00000000000E+00  0.45593999997E+02  0.45594000000E+02  0.51100000000E-03 0.  1.
         11   -1    0    0    0    0 -0.00000000000E+00 -0.00000000000E+00 -0.45593999997E+02  0.45594000000E+02  0.51100000000E-03 0. -1.
    9900012    2    1    2    0    0  0.10124650281E+02  0.15736180965E+02 -0.73654234456E+00  0.72461590058E+02  0.70000025746E+02 0.  0.
         12    1    1    2    0    0 -0.10124650281E+02 -0.15736180965E+02  0.73654234456E+00  0.18726409942E+02  0.00000000000E+00 0. -1.
         11    1    3    3    0    0  0.27482617286E+02  0.64136195502E+01  0.35389017250E+01  0.28442091946E+02  0.51100000000E-03 0. -1.
        -11    1    3    3    0    0 -0.15278607190E+02 -0.27395082876E+01  0.14739637039E+02  0.21405551701E+02  0.51100000000E-03 0.  1.
        -12    1    3    3    0    0 -0.20793598145E+01  0.12062069702E+02 -0.19015081108E+02  0.22613946411E+02  0.00000000000E+00 0.  1.
</event>
<event>
 7    1  0.1283194E-013  0.7246157E+02  0.7816164E-02  0.1226708E+00
        -11   -1    0    0    0    0  0.00000000000E+00  0.00000000000E+00  0.45593999997E+02  0.45594000000E+02  0.51100000000E-03 0. -1.
         11   -1    0    0    0    0 -0.00000000000E+00 -0.00000000000E+00 -0.45593999997E+02  0.45594000000E+02  0.51100000000E-03 0.  1.
    9900012    2    1    2    0    0 -0.60592096710E+01 -0.16609936200E+02 -0.61704942074E+01  0.72461574790E+02  0.70000005856E+02 0.  0.
         12    1    1    2    0    0  0.60592096710E+01  0.16609936200E+02  0.61704942074E+01  0.18726425210E+02  0.00000000000E+00 0. -1.
         11    1    3    3    0    0  0.12242225315E+02 -0.23842753338E+02  0.59574576257E+01  0.27456151752E+02  0.51100000000E-03 0.  1.
        -11    1    3    3    0    0 -0.27965489224E+02 -0.42975208694E+01 -0.77083791329E+01  0.29325012912E+02  0.51100000000E-03 0. -1.
        -12    1    3    3    0    0  0.96640542380E+01  0.11530338007E+02 -0.44195727002E+01  0.15680410126E+02  0.00000000000E+00 0.  1.
</event>
<event>
 7    1  0.1283194E-013  0.7246160E+02  0.7816164E-02  0.1226708E+00
        -11   -1    0    0    0    0  0.00000000000E+00  0.00000000000E+00  0.45593999997E+02  0.45594000000E+02  0.51100000000E-03 0.  1.
         11   -1    0    0    0    0 -0.00000000000E+00 -0.00000000000E+00 -0.45593999997E+02  0.45594000000E+02  0.51100000000E-03 0. -1.
    9900012    2    1    2    0    0  0.82204161573E+00  0.16036747202E+02  0.96345760679E+01  0.72461599672E+02  0.70000038269E+02 0.  0.
         12    1    1    2    0    0 -0.82204161573E+00 -0.16036747202E+02 -0.96345760679E+01  0.18726400328E+02  0.00000000000E+00 0. -1.
         11    1    3    3    0    0  0.16390661034E+02  0.71989860133E+01 -0.18713296913E+02  0.25897232485E+02  0.51100000000E-03 0. -1.
        -11    1    3    3    0    0  0.26489954323E+01 -0.46616155475E+01  0.22525261322E+02  0.23154594235E+02  0.51100000000E-03 0.  1.
         12    1    3    3    0    0 -0.18217614851E+02  0.13499376737E+02  0.58226116585E+01  0.23409772952E+02  0.00000000000E+00 0. -1.
</event>
<event>
 7    1  0.1283194E-013  0.7246156E+02  0.7816164E-02  0.1226708E+00
        -11   -1    0    0    0    0  0.00000000000E+00  0.00000000000E+00  0.45593999997E+02  0.45594000000E+02  0.51100000000E-03 0.  1.
         11   -1    0    0    0    0 -0.00000000000E+00 -0.00000000000E+00 -0.45593999997E+02  0.45594000000E+02  0.51100000000E-03 0. -1.
    9900012    2    1    2    0    0  0.12821524439E+02 -0.29010674229E+01  0.13336861554E+02  0.72461559942E+02  0.69999986514E+02 0.  0.
         12    1    1    2    0    0 -0.12821524439E+02  0.29010674229E+01 -0.13336861554E+02  0.18726440058E+02  0.00000000000E+00 0. -1.
         11    1    3    3    0    0  0.12385332098E+02 -0.87340796197E+01  0.44122704512E+01  0.15784445786E+02  0.51100000000E-03 0. -1.
        -11    1    3    3    0    0 -0.22420218269E+02 -0.10215064670E+02  0.13932138331E+02  0.28304031730E+02  0.51100000000E-03 0.  1.
        -12    1    3    3    0    0  0.22856410610E+02  0.16048076867E+02 -0.50075472278E+01  0.28373082426E+02  0.00000000000E+00 0.  1.
</event>
<event>
 7    1  0.1283194E-013  0.7246158E+02  0.7816164E-02  0.1226708E+00
        -11   -1    0    0    0    0  0.00000000000E+00  0.00000000000E+00  0.45593999997E+02  0.45594000000E+02  0.51100000000E-03 0. -1.
         11   -1    0    0    0    0 -0.00000000000E+00 -0.00000000000E+00 -0.45593999997E+02  0.45594000000E+02  0.51100000000E-03 0.  1.
    9900012    2    1    2    0    0  0.98021829840E+01  0.14262652006E+02 -0.71535203841E+01  0.72461577828E+02  0.70000009813E+02 0.  0.
         12    1    1    2    0    0 -0.98021829840E+01 -0.14262652006E+02  0.71535203841E+01  0.18726422172E+02  0.00000000000E+00 0. -1.
         11    1    3    3    0    0  0.22451288897E+02  0.11926928120E+02 -0.23607666115E+02  0.34693427146E+02  0.51100000000E-03 0. -1.
        -11    1    3    3    0    0 -0.11597381124E+02  0.20754017033E+01 -0.73847056797E+01  0.13904690554E+02  0.51100000000E-03 0.  1.
         12    1    3    3    0    0 -0.10517247889E+01  0.26032218295E+00  0.23838851411E+02  0.23863460127E+02  0.00000000000E+00 0. -1.
</event>
<event>
 7    1  0.1283194E-013  0.7246153E+02  0.7816164E-02  0.1226708E+00
        -11   -1    0    0    0    0  0.00000000000E+00  0.00000000000E+00  0.45593999997E+02  0.45594000000E+02  0.51100000000E-03 0.  1.
         11   -1    0    0    0    0 -0.00000000000E+00 -0.00000000000E+00 -0.45593999997E+02  0.45594000000E+02  0.51100000000E-03 0. -1.
    9900012    2    1    2    0    0  0.12470228833E+01 -0.16720709772E+02  0.83392691710E+01  0.72461531789E+02  0.69999949840E+02 0.  0.
         12    1    1    2    0    0 -0.12470228833E+01  0.16720709772E+02 -0.83392691710E+01  0.18726468211E+02  0.00000000000E+00 0. -1.
         11    1    3    3    0    0 -0.30527113061E+02 -0.17479498971E+02  0.16843917336E+02  0.39001987996E+02  0.51100000000E-03 0. -1.
        -11    1    3    3    0    0  0.86702155758E+01  0.29137118041E+01 -0.27754361148E+01  0.95585250168E+01  0.51100000000E-03 0.  1.
         12    1    3    3    0    0  0.23103920369E+02 -0.21549226055E+01 -0.57292120507E+01  0.23901018777E+02  0.00000000000E+00 0. -1.
</event>
<event>
 7    1  0.1283194E-013  0.7246164E+02  0.7816164E-02  0.1226708E+00
        -11   -1    0    0    0    0  0.00000000000E+00  0.00000000000E+00  0.45593999997E+02  0.45594000000E+02  0.51100000000E-03 0.  1.
         11   -1    0    0    0    0 -0.00000000000E+00 -0.00000000000E+00 -0.45593999997E+02  0.45594000000E+02  0.51100000000E-03 0. -1.
    9900012    2    1    2    0    0  0.15432097031E+02 -0.46144193122E+01  0.95516447767E+01  0.72461644180E+02  0.70000096250E+02 0.  0.
         12    1    1    2    0    0 -0.15432097031E+02  0.46144193122E+01 -0.95516447767E+01  0.18726355820E+02  0.00000000000E+00 0. -1.
         11    1    3    3    0    0  0.39558387269E+01  0.19607663534E+02 -0.41898964663E+01  0.20436838355E+02  0.51100000000E-03 0. -1.
        -11    1    3    3    0    0  0.16401617146E+02 -0.90015628269E+00  0.21409918732E+02  0.26985328360E+02  0.51100000000E-03 0.  1.
        -12    1    3    3    0    0 -0.49253588428E+01 -0.23321926564E+02 -0.76683774889E+01  0.25039477464E+02  0.00000000000E+00 0.  1.
</event>
<event>
 7    1  0.1299743E-013  0.7246161E+02  0.7816164E-02  0.1226708E+00
        -11   -1    0    0    0    0  0.00000000000E+00  0.00000000000E+00  0.45593999997E+02  0.45594000000E+02  0.51100000000E-03 0. -1.
         11   -1    0    0    0    0 -0.00000000000E+00 -0.00000000000E+00 -0.45593999997E+02  0.45594000000E+02  0.51100000000E-03 0.  1.
    9900012    2    1    2    0    0  0.15925718808E+00 -0.97091040546E+01 -0.16012044304E+02  0.72461611475E+02  0.70000053646E+02 0.  0.
         12    1    1    2    0    0 -0.15925718808E+00  0.97091040546E+01  0.16012044304E+02  0.18726388525E+02  0.00000000000E+00 0. -1.
         11    1    3    3    0    0  0.17721430454E+02  0.89169341994E+01  0.88552414150E+01  0.21725011246E+02  0.51100000000E-03 0. -1.
        -11    1    3    3    0    0  0.58026996938E+01 -0.16867795764E+02 -0.20011647050E+02  0.26807832355E+02  0.51100000000E-03 0.  1.
         12    1    3    3    0    0 -0.23364872960E+02 -0.17582424899E+01 -0.48556386690E+01  0.23928767874E+02  0.00000000000E+00 0. -1.
</event>
<event>
 7    1  0.1283194E-013  0.7246155E+02  0.7816164E-02  0.1226708E+00
        -11   -1    0    0    0    0  0.00000000000E+00  0.00000000000E+00  0.45593999997E+02  0.45594000000E+02  0.51100000000E-03 0.  1.
         11   -1    0    0    0    0 -0.00000000000E+00 -0.00000000000E+00 -0.45593999997E+02  0.45594000000E+02  0.51100000000E-03 0. -1.
    9900012    2    1    2    0    0  0.11875396146E+02  0.66237655232E+01  0.12875588673E+02  0.72461545798E+02  0.69999968088E+02 0.  0.
         12    1    1    2    0    0 -0.11875396146E+02 -0.66237655232E+01 -0.12875588673E+02  0.18726454202E+02  0.00000000000E+00 0. -1.
         11    1    3    3    0    0  0.13768379790E+02  0.28551833494E+02 -0.96264749466E+01  0.33127699861E+02  0.51100000000E-03 0. -1.
        -11    1    3    3    0    0  0.10343500153E+02 -0.54245123286E+01  0.72585386604E+01  0.13751353139E+02  0.51100000000E-03 0.  1.
         12    1    3    3    0    0 -0.12236483797E+02 -0.16503555642E+02  0.15243524959E+02  0.25582492798E+02  0.00000000000E+00 0. -1.
</event>
<event>
 7    1  0.1283194E-013  0.7246164E+02  0.7816164E-02  0.1226708E+00
        -11   -1    0    0    0    0  0.00000000000E+00  0.00000000000E+00  0.45593999997E+02  0.45594000000E+02  0.51100000000E-03 0.  1.
         11   -1    0    0    0    0 -0.00000000000E+00 -0.00000000000E+00 -0.45593999997E+02  0.45594000000E+02  0.51100000000E-03 0. -1.
    9900012    2    1    2    0    0  0.12694058028E+02 -0.62708160045E+01  0.12256191557E+02  0.72461642264E+02  0.70000093754E+02 0.  0.
         12    1    1    2    0    0 -0.12694058028E+02  0.62708160045E+01 -0.12256191557E+02  0.18726357736E+02  0.00000000000E+00 0. -1.
         11    1    3    3    0    0 -0.99373480392E+01 -0.11731534420E+02  0.90645469012E+01  0.17847851318E+02  0.51100000000E-03 0.  1.
        -11    1    3    3    0    0  0.17672519188E+02 -0.97164527498E+01 -0.18710060065E+02  0.27509884340E+02  0.51100000000E-03 0. -1.
        -12    1    3    3    0    0  0.49588868793E+01  0.15177171165E+02  0.21901704721E+02  0.27103906606E+02  0.00000000000E+00 0.  1.
</event>
<event>
 7    1  0.1283194E-013  0.7246156E+02  0.7816164E-02  0.1226708E+00
        -11   -1    0    0    0    0  0.00000000000E+00  0.00000000000E+00  0.45593999997E+02  0.45594000000E+02  0.51100000000E-03 0.  1.
         11   -1    0    0    0    0 -0.00000000000E+00 -0.00000000000E+00 -0.45593999997E+02  0.45594000000E+02  0.51100000000E-03 0. -1.
    9900012    2    1    2    0    0 -0.25144552255E+01 -0.18478821502E+02  0.17000560176E+01  0.72461560946E+02  0.69999987822E+02 0.  0.
         12    1    1    2    0    0  0.25144552255E+01  0.18478821502E+02 -0.17000560176E+01  0.18726439054E+02  0.00000000000E+00 0. -1.
         11    1    3    3    0    0 -0.71546750826E+01 -0.30767721850E+02  0.20730745099E+00  0.31589318765E+02  0.51100000000E-03 0.  1.
        -11    1    3    3    0    0 -0.48783238171E+01  0.24665832718E+02 -0.38026025093E+00  0.25146489716E+02  0.51100000000E-03 0. -1.
         12    1    3    3    0    0  0.95185436742E+01 -0.12376932370E+02  0.18730088176E+01  0.15725752465E+02  0.00000000000E+00 0. -1.
</event>
<event>
 7    1  0.1283194E-013  0.7246109E+02  0.7816164E-02  0.1226709E+00
        -11   -1    0    0    0    0  0.00000000000E+00  0.00000000000E+00  0.45593999997E+02  0.45594000000E+02  0.51100000000E-03 0.  1.
         11   -1    0    0    0    0 -0.00000000000E+00 -0.00000000000E+00 -0.45593999997E+02  0.45594000000E+02  0.51100000000E-03 0. -1.
    9900012    2    1    2    0    0  0.77387805193E+01  0.13406839341E+02 -0.10538744896E+02  0.72461088642E+02  0.69999372555E+02 0.  0.
         12    1    1    2    0    0 -0.77387805193E+01 -0.13406839341E+02  0.10538744896E+02  0.18726911358E+02  0.00000000000E+00 0. -1.
         11    1    3    3    0    0 -0.91076322675E+01 -0.26322754958E+01 -0.16304709464E+02  0.18860577689E+02  0.51100000000E-03 0. -1.
        -11    1    3    3    0    0  0.44206895149E+01 -0.13898776485E+02  0.13936082155E+02  0.20172577169E+02  0.51100000000E-03 0.  1.
        -12    1    3    3    0    0  0.12425723272E+02  0.29937891322E+02 -0.81701175876E+01  0.33427933783E+02  0.00000000000E+00 0.  1.
</event>
<event>
 7    1  0.1283194E-013  0.7246157E+02  0.7816164E-02  0.1226708E+00
        -11   -1    0    0    0    0  0.00000000000E+00  0.00000000000E+00  0.45593999997E+02  0.45594000000E+02  0.51100000000E-03 0. -1.
         11   -1    0    0    0    0 -0.00000000000E+00 -0.00000000000E+00 -0.45593999997E+02  0.45594000000E+02  0.51100000000E-03 0.  1.
    9900012    2    1    2    0    0  0.16446923817E+02  0.64816617349E+01 -0.61778635307E+01  0.72461568420E+02  0.69999997559E+02 0.  0.
         12    1    1    2    0    0 -0.16446923817E+02 -0.64816617349E+01  0.61778635307E+01  0.18726431580E+02  0.00000000000E+00 0. -1.
         11    1    3    3    0    0 -0.69155881293E+01 -0.58532402489E+01  0.12914813802E+02  0.15775873871E+02  0.51100000000E-03 0. -1.
        -11    1    3    3    0    0  0.83550802125E+01  0.15202227838E+01 -0.32659664655E+02  0.33745698071E+02  0.51100000000E-03 0.  1.
        -12    1    3    3    0    0  0.15007431734E+02  0.10814679200E+02  0.13566987322E+02  0.22939996479E+02  0.00000000000E+00 0.  1.
</event>
<event>
 7    1  0.1283194E-013  0.7246155E+02  0.7816164E-02  0.1226708E+00
        -11   -1    0    0    0    0  0.00000000000E+00  0.00000000000E+00  0.45593999997E+02  0.45594000000E+02  0.51100000000E-03 0.  1.
         11   -1    0    0    0    0 -0.00000000000E+00 -0.00000000000E+00 -0.45593999997E+02  0.45594000000E+02  0.51100000000E-03 0. -1.
    9900012    2    1    2    0    0 -0.10492563513E+02 -0.10385339507E+02  0.11520889106E+02  0.72461546744E+02  0.69999969322E+02 0.  0.
         12    1    1    2    0    0  0.10492563513E+02  0.10385339507E+02 -0.11520889106E+02  0.18726453256E+02  0.00000000000E+00 0. -1.
         11    1    3    3    0    0 -0.24135978008E+02 -0.76583094399E+01  0.14062463794E+02  0.28964599533E+02  0.51100000000E-03 0. -1.
        -11    1    3    3    0    0  0.12267043852E+02 -0.17689623315E+02  0.10176808309E+02  0.23811143725E+02  0.51100000000E-03 0.  1.
         12    1    3    3    0    0  0.13763706432E+01  0.14962593248E+02 -0.12718382997E+02  0.19685803486E+02  0.00000000000E+00 0. -1.
</event>
<event>
 7    1  0.1283194E-013  0.7246156E+02  0.7816164E-02  0.1226708E+00
        -11   -1    0    0    0    0  0.00000000000E+00  0.00000000000E+00  0.45593999997E+02  0.45594000000E+02  0.51100000000E-03 0.  1.
         11   -1    0    0    0    0 -0.00000000000E+00 -0.00000000000E+00 -0.45593999997E+02  0.45594000000E+02  0.51100000000E-03 0. -1.
    9900012    2    1    2    0    0 -0.14285707246E+02  0.12040601879E+02 -0.12736120831E+01  0.72461558457E+02  0.69999984580E+02 0.  0.
         12    1    1    2    0    0  0.14285707246E+02 -0.12040601879E+02  0.12736120831E+01  0.18726441543E+02  0.00000000000E+00 0. -1.
         11    1    3    3    0    0  0.23272262125E+01  0.33620322511E+02 -0.16673200430E+02  0.37599703196E+02  0.51100000000E-03 0. -1.
        -11    1    3    3    0    0 -0.77140995232E+01 -0.11024420212E+02  0.16168096797E+02  0.21034555540E+02  0.51100000000E-03 0.  1.
         12    1    3    3    0    0 -0.88988339348E+01 -0.10555300419E+02 -0.76850845018E+00  0.13827299721E+02  0.00000000000E+00 0. -1.
</event>
<event>
 8    1  0.1283194E-013  0.7246151E+02  0.7816164E-02  0.1226708E+00
        -11   -1    0    0    0    0  0.00000000000E+00  0.00000000000E+00  0.45593999997E+02  0.45594000000E+02  0.51100000000E-03 0.  1.
         11   -1    0    0    0    0 -0.00000000000E+00 -0.00000000000E+00 -0.45593999997E+02  0.45594000000E+02  0.51100000000E-03 0. -1.
    9900012    2    1    2    0    0  0.17680117071E+02 -0.20282309380E+01 -0.58293452430E+01  0.72461507367E+02  0.69999918025E+02 0.  0.
        -24    2    3    3    0    0  0.20915867874E+02  0.90566510818E+01 -0.16721804887E+02  0.56587302819E+02  0.49020481678E+02 0.  0.
         12    1    1    2    0    0 -0.17680117071E+02  0.20282309380E+01  0.58293452430E+01  0.18726492633E+02  0.00000000000E+00 0. -1.
         11    1    4    4    0    0 -0.25649240800E+01 -0.11911275361E+02 -0.21533377910E+02  0.24741537558E+02  0.51100000000E-03 0. -1.
        -11    1    3    3    0    0 -0.32357508023E+01 -0.11084882020E+02  0.10892459644E+02  0.15874204547E+02  0.51100000000E-03 0.  1.
        -12    1    4    4    0    0  0.23480791954E+02  0.20967926443E+02  0.48115730233E+01  0.31845765261E+02  0.00000000000E+00 0.  1.
</event>
<event>
 7    1  0.1283194E-013  0.7246151E+02  0.7816164E-02  0.1226708E+00
        -11   -1    0    0    0    0  0.00000000000E+00  0.00000000000E+00  0.45593999997E+02  0.45594000000E+02  0.51100000000E-03 0. -1.
         11   -1    0    0    0    0 -0.00000000000E+00 -0.00000000000E+00 -0.45593999997E+02  0.45594000000E+02  0.51100000000E-03 0.  1.
    9900012    2    1    2    0    0  0.57000613672E+01  0.86821585290E+01 -0.15582388703E+02  0.72461510366E+02  0.69999921932E+02 0.  0.
         12    1    1    2    0    0 -0.57000613672E+01 -0.86821585290E+01  0.15582388703E+02  0.18726489634E+02  0.00000000000E+00 0. -1.
         11    1    3    3    0    0 -0.16186802754E+02  0.13392626934E+02  0.10671106451E+01  0.21036011147E+02  0.51100000000E-03 0. -1.
        -11    1    3    3    0    0  0.16827508888E+02 -0.18204241726E+02 -0.24635588078E+02  0.34949558973E+02  0.51100000000E-03 0.  1.
         12    1    3    3    0    0  0.50593552326E+01  0.13493773321E+02  0.79860887295E+01  0.16475940247E+02  0.00000000000E+00 0. -1.
</event>
<event>
 7    1  0.1283194E-013  0.7246104E+02  0.7816164E-02  0.1226709E+00
        -11   -1    0    0    0    0  0.00000000000E+00  0.00000000000E+00  0.45593999997E+02  0.45594000000E+02  0.51100000000E-03 0. -1.
         11   -1    0    0    0    0 -0.00000000000E+00 -0.00000000000E+00 -0.45593999997E+02  0.45594000000E+02  0.51100000000E-03 0.  1.
    9900012    2    1    2    0    0 -0.17447062503E+02 -0.54233565852E+01  0.41092926533E+01  0.72461038881E+02  0.69999307732E+02 0.  0.
         12    1    1    2    0    0  0.17447062503E+02  0.54233565852E+01 -0.41092926533E+01  0.18726961119E+02  0.00000000000E+00 0. -1.
         11    1    3    3    0    0 -0.33194136198E+02 -0.12634691163E+02  0.30618925454E+01  0.35649141434E+02  0.51100000000E-03 0. -1.
        -11    1    3    3    0    0  0.23814647873E+02  0.38927960596E+01  0.82471030456E+01  0.25501098474E+02  0.51100000000E-03 0.  1.
         12    1    3    3    0    0 -0.80675741779E+01  0.33185385187E+01 -0.71997029377E+01  0.11310798973E+02  0.00000000000E+00 0. -1.
</event>
<event>
 7    1  0.1283194E-013  0.7246165E+02  0.7816164E-02  0.1226708E+00
        -11   -1    0    0    0    0  0.00000000000E+00  0.00000000000E+00  0.45593999997E+02  0.45594000000E+02  0.51100000000E-03 0.  1.
         11   -1    0    0    0    0 -0.00000000000E+00 -0.00000000000E+00 -0.45593999997E+02  0.45594000000E+02  0.51100000000E-03 0. -1.
    9900012    2    1    2    0    0 -0.14595897220E+02  0.11614304006E+02 -0.16564417717E+01  0.72461652984E+02  0.70000107719E+02 0.  0.
         12    1    1    2    0    0  0.14595897220E+02 -0.11614304006E+02  0.16564417717E+01  0.18726347016E+02  0.00000000000E+00 0. -1.
         11    1    3    3    0    0  0.80327093326E+01  0.14493813126E+02 -0.98707180368E+01  0.19287978457E+02  0.51100000000E-03 0. -1.
        -11    1    3    3    0    0 -0.14864728222E+01 -0.16803812863E+02  0.19216642428E+02  0.25570629141E+02  0.51100000000E-03 0.  1.
         12    1    3    3    0    0 -0.21142133730E+02  0.13924303744E+02 -0.11002366163E+02  0.27603045386E+02  0.00000000000E+00 0. -1.
</event>
<event>
 7    1  0.1283194E-013  0.7246093E+02  0.7816164E-02  0.1226710E+00
        -11   -1    0    0    0    0  0.00000000000E+00  0.00000000000E+00  0.45593999997E+02  0.45594000000E+02  0.51100000000E-03 0.  1.
         11   -1    0    0    0    0 -0.00000000000E+00 -0.00000000000E+00 -0.45593999997E+02  0.45594000000E+02  0.51100000000E-03 0. -1.
    9900012    2    1    2    0    0  0.53820322714E+01 -0.72459134306E+01  0.16408342116E+02  0.72460928050E+02  0.69999163353E+02 0.  0.
         12    1    1    2    0    0 -0.53820322714E+01  0.72459134306E+01 -0.16408342116E+02  0.18727071950E+02  0.00000000000E+00 0. -1.
         11    1    3    3    0    0  0.11096956772E+02  0.67650811334E+01  0.10446640990E+02  0.16674563880E+02  0.51100000000E-03 0.  1.
        -11    1    3    3    0    0  0.11793343613E+02 -0.21288900509E+02 -0.14145328170E+02  0.28149432459E+02  0.51100000000E-03 0. -1.
        -12    1    3    3    0    0 -0.17508268114E+02  0.72779059453E+01  0.20107029296E+02  0.27636931711E+02  0.00000000000E+00 0.  1.
</event>
<event>
 7    1  0.1283194E-013  0.7246157E+02  0.7816164E-02  0.1226708E+00
        -11   -1    0    0    0    0  0.00000000000E+00  0.00000000000E+00  0.45593999997E+02  0.45594000000E+02  0.51100000000E-03 0. -1.
         11   -1    0    0    0    0 -0.00000000000E+00 -0.00000000000E+00 -0.45593999997E+02  0.45594000000E+02  0.51100000000E-03 0.  1.
    9900012    2    1    2    0    0 -0.16327324848E+02 -0.41776930914E+01 -0.81636052085E+01  0.72461571983E+02  0.70000002200E+02 0.  0.
         12    1    1    2    0    0  0.16327324848E+02  0.41776930914E+01  0.81636052085E+01  0.18726428017E+02  0.00000000000E+00 0. -1.
         11    1    3    3    0    0 -0.33222138836E+02 -0.18328563989E+02  0.11824363533E+02  0.39742450100E+02  0.51100000000E-03 0. -1.
        -11    1    3    3    0    0  0.14380400135E+02  0.51932507145E+01 -0.71871912471E+01  0.16894421544E+02  0.51100000000E-03 0.  1.
        -12    1    3    3    0    0  0.25144138528E+01  0.89576201830E+01 -0.12800777494E+02  0.15824700339E+02  0.00000000000E+00 0.  1.
</event>
<event>
 7    1  0.1283194E-013  0.7246159E+02  0.7816164E-02  0.1226708E+00
        -11   -1    0    0    0    0  0.00000000000E+00  0.00000000000E+00  0.45593999997E+02  0.45594000000E+02  0.51100000000E-03 0.  1.
         11   -1    0    0    0    0 -0.00000000000E+00 -0.00000000000E+00 -0.45593999997E+02  0.45594000000E+02  0.51100000000E-03 0. -1.
    9900012    2    1    2    0    0 -0.12986179829E+02 -0.38259471245E+01  0.12938304795E+02  0.72461589000E+02  0.70000024368E+02 0.  0.
         12    1    1    2    0    0  0.12986179829E+02  0.38259471245E+01 -0.12938304795E+02  0.18726411000E+02  0.00000000000E+00 0. -1.
         11    1    3    3    0    0 -0.34925263040E+02  0.16764807551E+01 -0.21507687580E+01  0.35031562807E+02  0.51100000000E-03 0. -1.
        -11    1    3    3    0    0  0.14510183312E+02 -0.89968638567E+01 -0.32113849149E+01  0.17372448657E+02  0.51100000000E-03 0.  1.
         12    1    3    3    0    0  0.74288998995E+01  0.34944359771E+01  0.18300458468E+02  0.20057577537E+02  0.00000000000E+00 0. -1.
</event>
<event>
 7    1  0.1283194E-013  0.7246157E+02  0.7816164E-02  0.1226708E+00
        -11   -1    0    0    0    0  0.00000000000E+00  0.00000000000E+00  0.45593999997E+02  0.45594000000E+02  0.51100000000E-03 0. -1.
         11   -1    0    0    0    0 -0.00000000000E+00 -0.00000000000E+00 -0.45593999997E+02  0.45594000000E+02  0.51100000000E-03 0.  1.
    9900012    2    1    2    0    0  0.60005418992E+01  0.89830238467E+01 -0.15296335186E+02  0.72461572401E+02  0.70000002744E+02 0.  0.
         12    1    1    2    0    0 -0.60005418992E+01 -0.89830238467E+01  0.15296335186E+02  0.18726427599E+02  0.00000000000E+00 0. -1.
         11    1    3    3    0    0 -0.75100834660E+01  0.12217240211E+02 -0.28955039382E+02  0.32311864971E+02  0.51100000000E-03 0.  1.
        -11    1    3    3    0    0 -0.16929057133E+01 -0.14373249075E+02  0.15507576093E+02  0.21211815935E+02  0.51100000000E-03 0. -1.
         12    1    3    3    0    0  0.15203531078E+02  0.11139032711E+02 -0.18488718973E+01  0.18937891495E+02  0.00000000000E+00 0. -1.
</event>
<event>
 7    1  0.1283194E-013  0.7246160E+02  0.7816164E-02  0.1226708E+00
        -11   -1    0    0    0    0  0.00000000000E+00  0.00000000000E+00  0.45593999997E+02  0.45594000000E+02  0.51100000000E-03 0.  1.
         11   -1    0    0    0    0 -0.00000000000E+00 -0.00000000000E+00 -0.45593999997E+02  0.45594000000E+02  0.51100000000E-03 0. -1.
    9900012    2    1    2    0    0 -0.17320667503E+02  0.66971872190E+01  0.24125232217E+01  0.72461598646E+02  0.70000036933E+02 0.  0.
         12    1    1    2    0    0  0.17320667503E+02 -0.66971872190E+01 -0.24125232217E+01  0.18726401354E+02  0.00000000000E+00 0. -1.
         11    1    3    3    0    0 -0.25217966600E+02 -0.22325175741E+01 -0.15401244175E+02  0.29633229601E+02  0.51100000000E-03 0. -1.
        -11    1    3    3    0    0  0.63480289575E+01 -0.94722144333E+01  0.21182529167E+02  0.24056597018E+02  0.51100000000E-03 0.  1.
         12    1    3    3    0    0  0.15492701396E+01  0.18401919226E+02 -0.33687617697E+01  0.18771772027E+02  0.00000000000E+00 0. -1.
</event>
<event>
 7    1  0.1283194E-013  0.7246158E+02  0.7816164E-02  0.1226708E+00
        -11   -1    0    0    0    0  0.00000000000E+00  0.00000000000E+00  0.45593999997E+02  0.45594000000E+02  0.51100000000E-03 0. -1.
         11   -1    0    0    0    0 -0.00000000000E+00 -0.00000000000E+00 -0.45593999997E+02  0.45594000000E+02  0.51100000000E-03 0.  1.
    9900012    2    1    2    0    0 -0.13441953192E+02  0.29413019775E+01 -0.12702027030E+02  0.72461578729E+02  0.70000010988E+02 0.  0.
         12    1    1    2    0    0  0.13441953192E+02 -0.29413019775E+01  0.12702027030E+02  0.18726421271E+02  0.00000000000E+00 0. -1.
         11    1    3    3    0    0  0.68185197082E+01  0.42591051872E+01 -0.27111696590E+02  0.28278548057E+02  0.51100000000E-03 0. -1.
        -11    1    3    3    0    0 -0.19548976867E+02  0.14957049337E+02  0.42349260995E+01  0.24976197083E+02  0.51100000000E-03 0.  1.
         12    1    3    3    0    0 -0.71149603313E+00 -0.16274852547E+02  0.10174743460E+02  0.19206833589E+02  0.00000000000E+00 0. -1.
</event>
<event>
 7    1  0.1283194E-013  0.7246157E+02  0.7816164E-02  0.1226708E+00
        -11   -1    0    0    0    0  0.00000000000E+00  0.00000000000E+00  0.45593999997E+02  0.45594000000E+02  0.51100000000E-03 0.  1.
         11   -1    0    0    0    0 -0.00000000000E+00 -0.00000000000E+00 -0.45593999997E+02  0.45594000000E+02  0.51100000000E-03 0. -1.
    9900012    2    1    2    0    0  0.17404406036E+02 -0.79232332179E+00  0.68657169982E+01  0.72461569598E+02  0.69999999093E+02 0.  0.
         12    1    1    2    0    0 -0.17404406036E+02  0.79232332179E+00 -0.68657169982E+01  0.18726430402E+02  0.00000000000E+00 0. -1.
         11    1    3    3    0    0  0.13008902863E+02  0.25275810414E+02  0.32413828748E+01  0.28611268916E+02  0.51100000000E-03 0.  1.
        -11    1    3    3    0    0  0.42135397824E+01 -0.28218763444E+02  0.15025796744E+02  0.32246350117E+02  0.51100000000E-03 0. -1.
         12    1    3    3    0    0  0.18196339092E+00  0.21506297084E+01 -0.11401462620E+02  0.11603950565E+02  0.00000000000E+00 0. -1.
</event>
<event>
 7    1  0.1283194E-013  0.7246155E+02  0.7816164E-02  0.1226708E+00
        -11   -1    0    0    0    0  0.00000000000E+00  0.00000000000E+00  0.45593999997E+02  0.45594000000E+02  0.51100000000E-03 0.  1.
         11   -1    0    0    0    0 -0.00000000000E+00 -0.00000000000E+00 -0.45593999997E+02  0.45594000000E+02  0.51100000000E-03 0. -1.
    9900012    2    1    2    0    0  0.16596231241E+01 -0.18446297466E+02  0.27676091362E+01  0.72461550806E+02  0.69999974612E+02 0.  0.
         12    1    1    2    0    0 -0.16596231241E+01  0.18446297466E+02 -0.27676091362E+01  0.18726449194E+02  0.00000000000E+00 0. -1.
         11    1    3    3    0    0  0.58711184553E+00 -0.22816471799E+01 -0.21874351436E+01  0.32148852143E+01  0.51100000000E-03 0. -1.
        -11    1    3    3    0    0  0.31632552739E+02 -0.16661987601E+02  0.12305884508E+02  0.37811043591E+02  0.51100000000E-03 0.  1.
        -12    1    3    3    0    0 -0.30560041461E+02  0.49733731557E+00 -0.73508402284E+01  0.31435622000E+02  0.00000000000E+00 0.  1.
</event>
<event>
 7    1  0.1283194E-013  0.7246131E+02  0.7816164E-02  0.1226709E+00
        -11   -1    0    0    0    0  0.00000000000E+00  0.00000000000E+00  0.45593999997E+02  0.45594000000E+02  0.51100000000E-03 0. -1.
         11   -1    0    0    0    0 -0.00000000000E+00 -0.00000000000E+00 -0.45593999997E+02  0.45594000000E+02  0.51100000000E-03 0.  1.
    9900012    2    1    2    0    0 -0.16646616204E+02 -0.82573824410E+01  0.23226153779E+01  0.72461314815E+02  0.69999667190E+02 0.  0.
         12    1    1    2    0    0  0.16646616204E+02  0.82573824410E+01 -0.23226153779E+01  0.18726685185E+02  0.00000000000E+00 0. -1.
         11    1    3    3    0    0 -0.10168071655E+02  0.14536646454E+02  0.27954407536E+02  0.33108196452E+02  0.51100000000E-03 0. -1.
        -11    1    3    3    0    0 -0.14859397100E+01 -0.13393957723E+02 -0.22499122342E+01  0.13662658073E+02  0.51100000000E-03 0.  1.
         12    1    3    3    0    0 -0.49926048392E+01 -0.94000711720E+01 -0.23381879924E+02  0.25690460290E+02  0.00000000000E+00 0. -1.
</event>
<event>
 7    1  0.1283194E-013  0.7246160E+02  0.7816164E-02  0.1226708E+00
        -11   -1    0    0    0    0  0.00000000000E+00  0.00000000000E+00  0.45593999997E+02  0.45594000000E+02  0.51100000000E-03 0. -1.
         11   -1    0    0    0    0 -0.00000000000E+00 -0.00000000000E+00 -0.45593999997E+02  0.45594000000E+02  0.51100000000E-03 0.  1.
    9900012    2    1    2    0    0  0.14204313572E+02  0.10641409796E+02  0.59729434066E+01  0.72461596730E+02  0.70000034437E+02 0.  0.
         12    1    1    2    0    0 -0.14204313572E+02 -0.10641409796E+02 -0.59729434066E+01  0.18726403270E+02  0.00000000000E+00 0. -1.
         11    1    3    3    0    0  0.25488958101E+02 -0.12472887552E+02  0.19795366406E+02  0.34599370520E+02  0.51100000000E-03 0. -1.
        -11    1    3    3    0    0  0.28964725088E+01  0.98893616699E+01  0.44444312776E+01  0.11222388198E+02  0.51100000000E-03 0.  1.
         12    1    3    3    0    0 -0.14181117038E+02  0.13224935678E+02 -0.18266854277E+02  0.26639838012E+02  0.00000000000E+00 0. -1.
</event>
<event>
 7    1  0.1283194E-013  0.7246158E+02  0.7816164E-02  0.1226708E+00
        -11   -1    0    0    0    0  0.00000000000E+00  0.00000000000E+00  0.45593999997E+02  0.45594000000E+02  0.51100000000E-03 0. -1.
         11   -1    0    0    0    0 -0.00000000000E+00 -0.00000000000E+00 -0.45593999997E+02  0.45594000000E+02  0.51100000000E-03 0.  1.
    9900012    2    1    2    0    0  0.17269323785E+01 -0.20130908762E+01 -0.18537638657E+02  0.72461578097E+02  0.70000010165E+02 0.  0.
         12    1    1    2    0    0 -0.17269323785E+01  0.20130908762E+01  0.18537638657E+02  0.18726421903E+02  0.00000000000E+00 0. -1.
         11    1    3    3    0    0 -0.15586391326E+01 -0.18160620850E+02  0.11852627831E+02  0.21742177728E+02  0.51100000000E-03 0. -1.
        -11    1    3    3    0    0 -0.75682443180E+01  0.24928786105E+02 -0.23775823586E+02  0.35270561183E+02  0.51100000000E-03 0.  1.
        -12    1    3    3    0    0  0.10853815829E+02 -0.87812561317E+01 -0.66144429016E+01  0.15448839186E+02  0.00000000000E+00 0.  1.
</event>
<event>
 7    1  0.1283194E-013  0.7246159E+02  0.7816164E-02  0.1226708E+00
        -11   -1    0    0    0    0  0.00000000000E+00  0.00000000000E+00  0.45593999997E+02  0.45594000000E+02  0.51100000000E-03 0.  1.
         11   -1    0    0    0    0 -0.00000000000E+00 -0.00000000000E+00 -0.45593999997E+02  0.45594000000E+02  0.51100000000E-03 0. -1.
    9900012    2    1    2    0    0  0.13008258113E+02 -0.11683727257E+02  0.67047800457E+01  0.72461592518E+02  0.70000028950E+02 0.  0.
         12    1    1    2    0    0 -0.13008258113E+02  0.11683727257E+02 -0.67047800457E+01  0.18726407482E+02  0.00000000000E+00 0. -1.
         11    1    3    3    0    0 -0.32923609464E+01  0.17653074403E+01 -0.24736292380E+02  0.25016796596E+02  0.51100000000E-03 0. -1.
        -11    1    3    3    0    0  0.16358506831E+02 -0.14581472455E+01  0.31420399661E+02  0.35453750920E+02  0.51100000000E-03 0.  1.
        -12    1    3    3    0    0 -0.57887771992E-01 -0.11990887452E+02  0.20672764277E-01  0.11991045002E+02  0.00000000000E+00 0.  1.
</event>
<event>
 7    1  0.1283194E-013  0.7246155E+02  0.7816164E-02  0.1226708E+00
        -11   -1    0    0    0    0  0.00000000000E+00  0.00000000000E+00  0.45593999997E+02  0.45594000000E+02  0.51100000000E-03 0.  1.
         11   -1    0    0    0    0 -0.00000000000E+00 -0.00000000000E+00 -0.45593999997E+02  0.45594000000E+02  0.51100000000E-03 0. -1.
    9900012    2    1    2    0    0  0.38590036960E+01 -0.10050705397E+02  0.15322244319E+02  0.72461554542E+02  0.69999979480E+02 0.  0.
         12    1    1    2    0    0 -0.38590036960E+01  0.10050705397E+02 -0.15322244319E+02  0.18726445458E+02  0.00000000000E+00 0. -1.
         11    1    3    3    0    0  0.64272883872E+01 -0.27088105287E+02  0.52239524321E+01  0.28326050966E+02  0.51100000000E-03 0. -1.
        -11    1    3    3    0    0  0.93144286910E+01  0.20724583186E+02  0.18350161818E+02  0.29206084454E+02  0.51100000000E-03 0.  1.
        -12    1    3    3    0    0 -0.11882713382E+02 -0.36871832960E+01 -0.82518699310E+01  0.14929419123E+02  0.00000000000E+00 0.  1.
</event>
<event>
 7    1  0.1283194E-013  0.7246137E+02  0.7816164E-02  0.1226709E+00
        -11   -1    0    0    0    0  0.00000000000E+00  0.00000000000E+00  0.45593999997E+02  0.45594000000E+02  0.51100000000E-03 0.  1.
         11   -1    0    0    0    0 -0.00000000000E+00 -0.00000000000E+00 -0.45593999997E+02  0.45594000000E+02  0.51100000000E-03 0. -1.
    9900012    2    1    2    0    0  0.11059628344E+02 -0.14295842709E+02  0.48990080539E+01  0.72461367153E+02  0.69999735370E+02 0.  0.
         12    1    1    2    0    0 -0.11059628344E+02  0.14295842709E+02 -0.48990080539E+01  0.18726632847E+02  0.00000000000E+00 0. -1.
         11    1    3    3    0    0 -0.15855231479E+02 -0.13484108286E+02  0.60782794311E+01  0.21683058425E+02  0.51100000000E-03 0.  1.
        -11    1    3    3    0    0  0.15992664189E+02  0.80095894428E+01  0.19065229513E+02  0.26141954930E+02  0.51100000000E-03 0. -1.
        -12    1    3    3    0    0  0.10922195634E+02 -0.88213238654E+01 -0.20244500890E+02  0.24636353799E+02  0.00000000000E+00 0.  1.
</event>
<event>
 7    1  0.1283194E-013  0.7246152E+02  0.7816164E-02  0.1226708E+00
        -11   -1    0    0    0    0  0.00000000000E+00  0.00000000000E+00  0.45593999997E+02  0.45594000000E+02  0.51100000000E-03 0.  1.
         11   -1    0    0    0    0 -0.00000000000E+00 -0.00000000000E+00 -0.45593999997E+02  0.45594000000E+02  0.51100000000E-03 0. -1.
    9900012    2    1    2    0    0  0.17765509307E+02  0.57489078474E+01  0.14204617371E+01  0.72461522116E+02  0.69999937239E+02 0.  0.
         12    1    1    2    0    0 -0.17765509307E+02 -0.57489078474E+01 -0.14204617371E+01  0.18726477884E+02  0.00000000000E+00 0. -1.
         11    1    3    3    0    0 -0.14873783211E+01  0.77689116196E+01 -0.29576710584E+02  0.30616173687E+02  0.51100000000E-03 0. -1.
        -11    1    3    3    0    0  0.94129350224E+01  0.89783002273E+01  0.17806655735E+02  0.22051988787E+02  0.51100000000E-03 0.  1.
         12    1    3    3    0    0  0.98399526058E+01 -0.10998304000E+02  0.13190516586E+02  0.19793359643E+02  0.00000000000E+00 0. -1.
</event>
<event>
 7    1  0.1283194E-013  0.7246162E+02  0.7816164E-02  0.1226708E+00
        -11   -1    0    0    0    0  0.00000000000E+00  0.00000000000E+00  0.45593999997E+02  0.45594000000E+02  0.51100000000E-03 0.  1.
         11   -1    0    0    0    0 -0.00000000000E+00 -0.00000000000E+00 -0.45593999997E+02  0.45594000000E+02  0.51100000000E-03 0. -1.
    9900012    2    1    2    0    0 -0.37388556199E+01 -0.49239863007E+01  0.17676333664E+02  0.72461616093E+02  0.70000059661E+02 0.  0.
         12    1    1    2    0    0  0.37388556199E+01  0.49239863007E+01 -0.17676333664E+02  0.18726383907E+02  0.00000000000E+00 0. -1.
         11    1    3    3    0    0  0.17104888330E+02 -0.21769548262E+02  0.59534527315E+01  0.28318439858E+02  0.51100000000E-03 0. -1.
        -11    1    3    3    0    0 -0.10128320415E+02  0.26230443204E+02  0.97637612318E+01  0.29764913216E+02  0.51100000000E-03 0.  1.
         12    1    3    3    0    0 -0.10715423534E+02 -0.93848812424E+01  0.19591197004E+01  0.14378263019E+02  0.00000000000E+00 0. -1.
</event>
<event>
 7    1  0.1283194E-013  0.7246157E+02  0.7816164E-02  0.1226708E+00
        -11   -1    0    0    0    0  0.00000000000E+00  0.00000000000E+00  0.45593999997E+02  0.45594000000E+02  0.51100000000E-03 0.  1.
         11   -1    0    0    0    0 -0.00000000000E+00 -0.00000000000E+00 -0.45593999997E+02  0.45594000000E+02  0.51100000000E-03 0. -1.
    9900012    2    1    2    0    0  0.16126625041E+02 -0.78793823785E+01  0.53410151719E+01  0.72461570950E+02  0.70000000854E+02 0.  0.
         12    1    1    2    0    0 -0.16126625041E+02  0.78793823785E+01 -0.53410151719E+01  0.18726429050E+02  0.00000000000E+00 0. -1.
         11    1    3    3    0    0  0.82147625636E+01  0.36635586799E+01 -0.23335799819E+02  0.25009269075E+02  0.51100000000E-03 0. -1.
        -11    1    3    3    0    0  0.15638541360E+02  0.27928712876E+01  0.26671184531E+02  0.31043778611E+02  0.51100000000E-03 0.  1.
         12    1    3    3    0    0 -0.77266788824E+01 -0.14335812346E+02  0.20056304600E+01  0.16408523264E+02  0.00000000000E+00 0. -1.
</event>
<event>
 7    1  0.1283194E-013  0.7246155E+02  0.7816164E-02  0.1226708E+00
        -11   -1    0    0    0    0  0.00000000000E+00  0.00000000000E+00  0.45593999997E+02  0.45594000000E+02  0.51100000000E-03 0.  1.
         11   -1    0    0    0    0 -0.00000000000E+00 -0.00000000000E+00 -0.45593999997E+02  0.45594000000E+02  0.51100000000E-03 0. -1.
    9900012    2    1    2    0    0  0.13336810185E+02 -0.11854985621E+02  0.56805560477E+01  0.72461550604E+02  0.69999974349E+02 0.  0.
         12    1    1    2    0    0 -0.13336810185E+02  0.11854985621E+02 -0.56805560477E+01  0.18726449396E+02  0.00000000000E+00 0. -1.
         11    1    3    3    0    0  0.16330530702E+02 -0.68327423634E+01 -0.16962453341E+02  0.24517288285E+02  0.51100000000E-03 0. -1.
        -11    1    3    3    0    0 -0.21769013316E+02 -0.75202571182E+01  0.96274778471E+01  0.24962622816E+02  0.51100000000E-03 0.  1.
        -12    1    3    3    0    0  0.18775292799E+02  0.24980138607E+01  0.13015531542E+02  0.22981639503E+02  0.00000000000E+00 0.  1.
</event>
<event>
 7    1  0.1283194E-013  0.7246156E+02  0.7816164E-02  0.1226708E+00
        -11   -1    0    0    0    0  0.00000000000E+00  0.00000000000E+00  0.45593999997E+02  0.45594000000E+02  0.51100000000E-03 0.  1.
         11   -1    0    0    0    0 -0.00000000000E+00 -0.00000000000E+00 -0.45593999997E+02  0.45594000000E+02  0.51100000000E-03 0. -1.
    9900012    2    1    2    0    0 -0.18661484978E+01  0.98711308286E+01  0.15803723280E+02  0.72461564045E+02  0.69999991859E+02 0.  0.
         12    1    1    2    0    0  0.18661484978E+01 -0.98711308286E+01 -0.15803723280E+02  0.18726435955E+02  0.00000000000E+00 0. -1.
         11    1    3    3    0    0  0.23317694707E+02 -0.13416202864E+02  0.26177412156E+01  0.27028909617E+02  0.51100000000E-03 0.  1.
        -11    1    3    3    0    0 -0.13096808829E+02 -0.17302337114E+01 -0.26186593133E+01  0.13467645937E+02  0.51100000000E-03 0. -1.
         12    1    3    3    0    0 -0.12087034375E+02  0.25017567404E+02  0.15804641378E+02  0.31965008492E+02  0.00000000000E+00 0. -1.
</event>
<event>
 7    1  0.1283194E-013  0.7246158E+02  0.7816164E-02  0.1226708E+00
        -11   -1    0    0    0    0  0.00000000000E+00  0.00000000000E+00  0.45593999997E+02  0.45594000000E+02  0.51100000000E-03 0.  1.
         11   -1    0    0    0    0 -0.00000000000E+00 -0.00000000000E+00 -0.45593999997E+02  0.45594000000E+02  0.51100000000E-03 0. -1.
    9900012    2    1    2    0    0 -0.44674848241E+01  0.12779987678E+02  0.12938019449E+02  0.72461578747E+02  0.70000011011E+02 0.  0.
         12    1    1    2    0    0  0.44674848241E+01 -0.12779987678E+02 -0.12938019449E+02  0.18726421253E+02  0.00000000000E+00 0. -1.
         11    1    3    3    0    0  0.10692930901E+02  0.21954469108E+02  0.21278826693E+01  0.24512555354E+02  0.51100000000E-03 0. -1.
        -11    1    3    3    0    0 -0.44979141434E+01 -0.19821964765E+02  0.21413171789E+02  0.29523980848E+02  0.51100000000E-03 0.  1.
        -12    1    3    3    0    0 -0.10662501581E+02  0.10647483335E+02 -0.10603035010E+02  0.18425042544E+02  0.00000000000E+00 0.  1.
</event>
<event>
 7    1  0.1283194E-013  0.7246161E+02  0.7816164E-02  0.1226708E+00
        -11   -1    0    0    0    0  0.00000000000E+00  0.00000000000E+00  0.45593999997E+02  0.45594000000E+02  0.51100000000E-03 0.  1.
         11   -1    0    0    0    0 -0.00000000000E+00 -0.00000000000E+00 -0.45593999997E+02  0.45594000000E+02  0.51100000000E-03 0. -1.
    9900012    2    1    2    0    0  0.57075156893E+01  0.17792745211E+02 -0.12330172532E+01  0.72461605552E+02  0.70000045930E+02 0.  0.
         12    1    1    2    0    0 -0.57075156893E+01 -0.17792745211E+02  0.12330172532E+01  0.18726394448E+02  0.00000000000E+00 0. -1.
         11    1    3    3    0    0 -0.14672608597E+02  0.12992342170E+02  0.26273695100E+02  0.32777941555E+02  0.51100000000E-03 0. -1.
        -11    1    3    3    0    0  0.58728367720E+01 -0.65884770606E+01 -0.37043305746E+01  0.95718497165E+01  0.51100000000E-03 0.  1.
         12    1    3    3    0    0  0.14507287514E+02  0.11388880101E+02 -0.23802381778E+02  0.30111814281E+02  0.00000000000E+00 0. -1.
</event>
<event>
 7    1  0.1283194E-013  0.7246158E+02  0.7816164E-02  0.1226708E+00
        -11   -1    0    0    0    0  0.00000000000E+00  0.00000000000E+00  0.45593999997E+02  0.45594000000E+02  0.51100000000E-03 0.  1.
         11   -1    0    0    0    0 -0.00000000000E+00 -0.00000000000E+00 -0.45593999997E+02  0.45594000000E+02  0.51100000000E-03 0. -1.
    9900012    2    1    2    0    0  0.15814308902E+02  0.93097208013E+01 -0.37303573856E+01  0.72461579262E+02  0.70000011682E+02 0.  0.
         12    1    1    2    0    0 -0.15814308902E+02 -0.93097208013E+01  0.37303573856E+01  0.18726420738E+02  0.00000000000E+00 0. -1.
         11    1    3    3    0    0  0.10945656011E+02  0.24003478595E+02 -0.28556304800E+02  0.38877203015E+02  0.51100000000E-03 0. -1.
        -11    1    3    3    0    0  0.44364767797E+01 -0.73383302081E+00  0.16978971982E+02  0.17564348179E+02  0.51100000000E-03 0.  1.
        -12    1    3    3    0    0  0.43217611118E+00 -0.13959924773E+02  0.78469754323E+01  0.16020028067E+02  0.00000000000E+00 0.  1.
</event>
<event>
 7    1  0.1283194E-013  0.7246174E+02  0.7816164E-02  0.1226708E+00
        -11   -1    0    0    0    0  0.00000000000E+00  0.00000000000E+00  0.45593999997E+02  0.45594000000E+02  0.51100000000E-03 0.  1.
         11   -1    0    0    0    0 -0.00000000000E+00 -0.00000000000E+00 -0.45593999997E+02  0.45594000000E+02  0.51100000000E-03 0. -1.
    9900012    2    1    2    0    0 -0.13721421179E+02 -0.10758705114E+02  0.68297726623E+01  0.72461736904E+02  0.70000217040E+02 0.  0.
         12    1    1    2    0    0  0.13721421179E+02  0.10758705114E+02 -0.68297726623E+01  0.18726263096E+02  0.00000000000E+00 0. -1.
         11    1    3    3    0    0  0.14794590160E+02  0.39836293705E+01 -0.19670914646E+02  0.24933794020E+02  0.51100000000E-03 0. -1.
        -11    1    3    3    0    0 -0.11055591697E+02 -0.18511196018E+02  0.13566918754E+02  0.25474531802E+02  0.51100000000E-03 0.  1.
         12    1    3    3    0    0 -0.17460419642E+02  0.37688615337E+01  0.12933768555E+02  0.22053411082E+02  0.00000000000E+00 0. -1.
</event>
<event>
 7    1  0.1283194E-013  0.7246158E+02  0.7816164E-02  0.1226708E+00
        -11   -1    0    0    0    0  0.00000000000E+00  0.00000000000E+00  0.45593999997E+02  0.45594000000E+02  0.51100000000E-03 0. -1.
         11   -1    0    0    0    0 -0.00000000000E+00 -0.00000000000E+00 -0.45593999997E+02  0.45594000000E+02  0.51100000000E-03 0.  1.
    9900012    2    1    2    0    0 -0.94820579601E+01  0.13702233091E+02 -0.85450736140E+01  0.72461577546E+02  0.70000009447E+02 0.  0.
         12    1    1    2    0    0  0.94820579601E+01 -0.13702233091E+02  0.85450736140E+01  0.18726422454E+02  0.00000000000E+00 0. -1.
         11    1    3    3    0    0 -0.20719472280E+02  0.60088619992E+01  0.13378049224E+02  0.25384545601E+02  0.51100000000E-03 0. -1.
        -11    1    3    3    0    0 -0.11672484454E+02  0.16385975348E+00 -0.19648243127E+02  0.22854478808E+02  0.51100000000E-03 0.  1.
        -12    1    3    3    0    0  0.22909898774E+02  0.75295113385E+01 -0.22748797107E+01  0.24222553138E+02  0.00000000000E+00 0.  1.
</event>
<event>
 7    1  0.1283194E-013  0.7246152E+02  0.7816164E-02  0.1226708E+00
        -11   -1    0    0    0    0  0.00000000000E+00  0.00000000000E+00  0.45593999997E+02  0.45594000000E+02  0.51100000000E-03 0. -1.
         11   -1    0    0    0    0 -0.00000000000E+00 -0.00000000000E+00 -0.45593999997E+02  0.45594000000E+02  0.51100000000E-03 0.  1.
    9900012    2    1    2    0    0  0.26433673416E+01  0.12589934424E+02 -0.13608351048E+02  0.72461519873E+02  0.69999934316E+02 0.  0.
         12    1    1    2    0    0 -0.26433673416E+01 -0.12589934424E+02  0.13608351048E+02  0.18726480127E+02  0.00000000000E+00 0. -1.
         11    1    3    3    0    0 -0.79625241203E+01 -0.18920814682E+02 -0.10275448707E+02  0.22956129138E+02  0.51100000000E-03 0. -1.
        -11    1    3    3    0    0  0.23802891292E+02  0.20474286738E+02  0.20921536675E+01  0.31466667420E+02  0.51100000000E-03 0.  1.
         12    1    3    3    0    0 -0.13196999830E+02  0.11036462368E+02 -0.54250560089E+01  0.18038723315E+02  0.00000000000E+00 0. -1.
</event>
<event>
 7    1  0.1283194E-013  0.7246165E+02  0.7816164E-02  0.1226708E+00
        -11   -1    0    0    0    0  0.00000000000E+00  0.00000000000E+00  0.45593999997E+02  0.45594000000E+02  0.51100000000E-03 0.  1.
         11   -1    0    0    0    0 -0.00000000000E+00 -0.00000000000E+00 -0.45593999997E+02  0.45594000000E+02  0.51100000000E-03 0. -1.
    9900012    2    1    2    0    0 -0.94068665426E+01  0.92528894931E+01  0.13288011351E+02  0.72461645636E+02  0.70000098146E+02 0.  0.
         12    1    1    2    0    0  0.94068665426E+01 -0.92528894931E+01 -0.13288011351E+02  0.18726354364E+02  0.00000000000E+00 0. -1.
         11    1    3    3    0    0  0.27340579265E+01  0.21844601952E+02 -0.15267416805E+02  0.26790963465E+02  0.51100000000E-03 0. -1.
        -11    1    3    3    0    0 -0.10489101373E+02  0.46941469676E+01  0.25593861694E+02  0.28055338530E+02  0.51100000000E-03 0.  1.
         12    1    3    3    0    0 -0.16518230965E+01 -0.17285859427E+02  0.29615664620E+01  0.17615343641E+02  0.00000000000E+00 0. -1.
</event>
<event>
 7    1  0.1283194E-013  0.7246157E+02  0.7816164E-02  0.1226708E+00
        -11   -1    0    0    0    0  0.00000000000E+00  0.00000000000E+00  0.45593999997E+02  0.45594000000E+02  0.51100000000E-03 0.  1.
         11   -1    0    0    0    0 -0.00000000000E+00 -0.00000000000E+00 -0.45593999997E+02  0.45594000000E+02  0.51100000000E-03 0. -1.
    9900012    2    1    2    0    0  0.14530477423E+01  0.11226461635E+02  0.14917591138E+02  0.72461566439E+02  0.69999994977E+02 0.  0.
         12    1    1    2    0    0 -0.14530477423E+01 -0.11226461635E+02 -0.14917591138E+02  0.18726433561E+02  0.00000000000E+00 0. -1.
         11    1    3    3    0    0 -0.25563636934E+02  0.96372827654E+01 -0.85447973500E+01  0.28624994574E+02  0.51100000000E-03 0.  1.
        -11    1    3    3    0    0  0.30124543967E+02 -0.42244315133E+01  0.19795111415E+02  0.36292980135E+02  0.51100000000E-03 0. -1.
         12    1    3    3    0    0 -0.31078592915E+01  0.58136103826E+01  0.36672770725E+01  0.75435917296E+01  0.00000000000E+00 0. -1.
</event>
<event>
 7    1  0.1283194E-013  0.7246155E+02  0.7816164E-02  0.1226708E+00
        -11   -1    0    0    0    0  0.00000000000E+00  0.00000000000E+00  0.45593999997E+02  0.45594000000E+02  0.51100000000E-03 0. -1.
         11   -1    0    0    0    0 -0.00000000000E+00 -0.00000000000E+00 -0.45593999997E+02  0.45594000000E+02  0.51100000000E-03 0.  1.
    9900012    2    1    2    0    0 -0.44604600951E+01 -0.18070376218E+02 -0.20604990030E+01  0.72461551937E+02  0.69999976086E+02 0.  0.
         12    1    1    2    0    0  0.44604600951E+01  0.18070376218E+02  0.20604990030E+01  0.18726448063E+02  0.00000000000E+00 0. -1.
         11    1    3    3    0    0  0.15187412613E+02 -0.13416186903E+02 -0.26242092081E+02  0.33155677794E+02  0.51100000000E-03 0. -1.
        -11    1    3    3    0    0 -0.15567777866E+02 -0.24701466472E+01  0.11395324022E+01  0.15803666236E+02  0.51100000000E-03 0.  1.
         12    1    3    3    0    0 -0.40800948424E+01 -0.21840426675E+01  0.23042060676E+02  0.23502207907E+02  0.00000000000E+00 0. -1.
</event>
<event>
 7    1  0.1283194E-013  0.7246152E+02  0.7816164E-02  0.1226708E+00
        -11   -1    0    0    0    0  0.00000000000E+00  0.00000000000E+00  0.45593999997E+02  0.45594000000E+02  0.51100000000E-03 0.  1.
         11   -1    0    0    0    0 -0.00000000000E+00 -0.00000000000E+00 -0.45593999997E+02  0.45594000000E+02  0.51100000000E-03 0. -1.
    9900012    2    1    2    0    0 -0.16449257469E+02 -0.87830714682E+01 -0.17206001373E+01  0.72461524610E+02  0.69999940487E+02 0.  0.
         12    1    1    2    0    0  0.16449257469E+02  0.87830714682E+01  0.17206001373E+01  0.18726475390E+02  0.00000000000E+00 0. -1.
         11    1    3    3    0    0 -0.26934546859E+02  0.11394382975E+02 -0.24589401091E+01  0.29348733611E+02  0.51100000000E-03 0. -1.
        -11    1    3    3    0    0 -0.10742080342E+02 -0.16063893310E+02  0.70783504940E+01  0.20580184750E+02  0.51100000000E-03 0.  1.
         12    1    3    3    0    0  0.21227369732E+02 -0.41135611338E+01 -0.63400105222E+01  0.22532606249E+02  0.00000000000E+00 0. -1.
</event>
<event>
 7    1  0.1283194E-013  0.7246162E+02  0.7816164E-02  0.1226708E+00
        -11   -1    0    0    0    0  0.00000000000E+00  0.00000000000E+00  0.45593999997E+02  0.45594000000E+02  0.51100000000E-03 0.  1.
         11   -1    0    0    0    0 -0.00000000000E+00 -0.00000000000E+00 -0.45593999997E+02  0.45594000000E+02  0.51100000000E-03 0. -1.
    9900012    2    1    2    0    0 -0.13820445148E+02 -0.10823242657E+02 -0.65215013066E+01  0.72461621146E+02  0.70000066244E+02 0.  0.
         12    1    1    2    0    0  0.13820445148E+02  0.10823242657E+02  0.65215013066E+01  0.18726378854E+02  0.00000000000E+00 0. -1.
         11    1    3    3    0    0 -0.12740422842E+02 -0.31362910179E+01 -0.26657135263E+02  0.29711236195E+02  0.51100000000E-03 0. -1.
        -11    1    3    3    0    0  0.17634906956E+02 -0.21740624595E+01  0.12834613723E+02  0.21919028277E+02  0.51100000000E-03 0.  1.
         12    1    3    3    0    0 -0.18714929262E+02 -0.55128891793E+01  0.73010202337E+01  0.20831356673E+02  0.00000000000E+00 0. -1.
</event>
<event>
 7    1  0.1283194E-013  0.7246161E+02  0.7816164E-02  0.1226708E+00
        -11   -1    0    0    0    0  0.00000000000E+00  0.00000000000E+00  0.45593999997E+02  0.45594000000E+02  0.51100000000E-03 0. -1.
         11   -1    0    0    0    0 -0.00000000000E+00 -0.00000000000E+00 -0.45593999997E+02  0.45594000000E+02  0.51100000000E-03 0.  1.
    9900012    2    1    2    0    0 -0.15054837638E+01  0.94024621292E+00 -0.18642082227E+02  0.72461607554E+02  0.70000048537E+02 0.  0.
         12    1    1    2    0    0  0.15054837638E+01 -0.94024621292E+00  0.18642082227E+02  0.18726392446E+02  0.00000000000E+00 0. -1.
         11    1    3    3    0    0  0.17709547896E+02  0.92994761947E+00  0.96078353474E+01  0.20169367605E+02  0.51100000000E-03 0. -1.
        -11    1    3    3    0    0 -0.12321309807E+02  0.18612297780E+02 -0.22368812458E+02  0.31600570802E+02  0.51100000000E-03 0.  1.
        -12    1    3    3    0    0 -0.68937218519E+01 -0.18601999186E+02 -0.58811051163E+01  0.20691669147E+02  0.00000000000E+00 0.  1.
</event>
<event>
 7    1  0.1283194E-013  0.7246152E+02  0.7816164E-02  0.1226708E+00
        -11   -1    0    0    0    0  0.00000000000E+00  0.00000000000E+00  0.45593999997E+02  0.45594000000E+02  0.51100000000E-03 0.  1.
         11   -1    0    0    0    0 -0.00000000000E+00 -0.00000000000E+00 -0.45593999997E+02  0.45594000000E+02  0.51100000000E-03 0. -1.
    9900012    2    1    2    0    0 -0.11443974024E+02  0.13385294061E+02  0.63679236930E+01  0.72461518998E+02  0.69999933176E+02 0.  0.
         12    1    1    2    0    0  0.11443974024E+02 -0.13385294061E+02 -0.63679236930E+01  0.18726481002E+02  0.00000000000E+00 0. -1.
         11    1    3    3    0    0  0.33434345079E+01 -0.19396617668E+01 -0.28648801556E+02  0.28908384129E+02  0.51100000000E-03 0. -1.
        -11    1    3    3    0    0 -0.45458983232E+01  0.13331458098E+02  0.12904223650E+02  0.19102668789E+02  0.51100000000E-03 0.  1.
         12    1    3    3    0    0 -0.10241510209E+02  0.19934977298E+01  0.22112501599E+02  0.24450466080E+02  0.00000000000E+00 0. -1.
</event>
<event>
 7    1  0.1283194E-013  0.7246141E+02  0.7816164E-02  0.1226708E+00
        -11   -1    0    0    0    0  0.00000000000E+00  0.00000000000E+00  0.45593999997E+02  0.45594000000E+02  0.51100000000E-03 0. -1.
         11   -1    0    0    0    0 -0.00000000000E+00 -0.00000000000E+00 -0.45593999997E+02  0.45594000000E+02  0.51100000000E-03 0.  1.
    9900012    2    1    2    0    0 -0.81336817995E+01  0.98337265059E+01 -0.13704974236E+02  0.72461407267E+02  0.69999787626E+02 0.  0.
         12    1    1    2    0    0  0.81336817995E+01 -0.98337265059E+01  0.13704974236E+02  0.18726592733E+02  0.00000000000E+00 0. -1.
         11    1    3    3    0    0  0.10772045802E+02  0.67835054030E+01  0.23893322367E+02  0.27072934276E+02  0.51100000000E-03 0. -1.
        -11    1    3    3    0    0 -0.10567437597E+02  0.46253867786E+01 -0.34462522273E+02  0.36341854409E+02  0.51100000000E-03 0.  1.
        -12    1    3    3    0    0 -0.83382900052E+01 -0.15751656758E+01 -0.31357743300E+01  0.90466185819E+01  0.00000000000E+00 0.  1.
</event>
<event>
 7    1  0.1283194E-013  0.7246160E+02  0.7816164E-02  0.1226708E+00
        -11   -1    0    0    0    0  0.00000000000E+00  0.00000000000E+00  0.45593999997E+02  0.45594000000E+02  0.51100000000E-03 0.  1.
         11   -1    0    0    0    0 -0.00000000000E+00 -0.00000000000E+00 -0.45593999997E+02  0.45594000000E+02  0.51100000000E-03 0. -1.
    9900012    2    1    2    0    0  0.52660567693E+01 -0.17050404331E+02  0.56771980860E+01  0.72461595651E+02  0.70000033032E+02 0.  0.
         12    1    1    2    0    0 -0.52660567693E+01  0.17050404331E+02 -0.56771980860E+01  0.18726404349E+02  0.00000000000E+00 0. -1.
         11    1    3    3    0    0  0.92250702523E+01  0.15522522499E+01 -0.27767032516E+02  0.29300503463E+02  0.51100000000E-03 0. -1.
        -11    1    3    3    0    0  0.67577531655E+01 -0.14760392121E+01  0.10683016422E+02  0.12726851918E+02  0.51100000000E-03 0.  1.
         12    1    3    3    0    0 -0.10716766648E+02 -0.17126617368E+02  0.22761214180E+02  0.30434240270E+02  0.00000000000E+00 0. -1.
</event>
<event>
 7    1  0.1283194E-013  0.7246181E+02  0.7816164E-02  0.1226707E+00
        -11   -1    0    0    0    0  0.00000000000E+00  0.00000000000E+00  0.45593999997E+02  0.45594000000E+02  0.51100000000E-03 0.  1.
         11   -1    0    0    0    0 -0.00000000000E+00 -0.00000000000E+00 -0.45593999997E+02  0.45594000000E+02  0.51100000000E-03 0. -1.
    9900012    2    1    2    0    0  0.79143739368E+01 -0.68875100317E+01  0.15511128192E+02  0.72461809596E+02  0.70000311735E+02 0.  0.
         12    1    1    2    0    0 -0.79143739368E+01  0.68875100317E+01 -0.15511128192E+02  0.18726190404E+02  0.00000000000E+00 0. -1.
         11    1    3    3    0    0  0.53279616730E+01  0.44355433422E+01 -0.12674255399E+02  0.14446382610E+02  0.51100000000E-03 0. -1.
        -11    1    3    3    0    0  0.73309814117E+01 -0.27964934708E+02  0.28653823719E+02  0.40704084263E+02  0.51100000000E-03 0.  1.
        -12    1    3    3    0    0 -0.47445691479E+01  0.16641881334E+02 -0.46844012818E+00  0.17311342723E+02  0.00000000000E+00 0.  1.
</event>
<event>
 7    1  0.1283194E-013  0.7246155E+02  0.7816164E-02  0.1226708E+00
        -11   -1    0    0    0    0  0.00000000000E+00  0.00000000000E+00  0.45593999997E+02  0.45594000000E+02  0.51100000000E-03 0.  1.
         11   -1    0    0    0    0 -0.00000000000E+00 -0.00000000000E+00 -0.45593999997E+02  0.45594000000E+02  0.51100000000E-03 0. -1.
    9900012    2    1    2    0    0 -0.57530528348E+01 -0.17564375992E+02 -0.30124900441E+01  0.72461547662E+02  0.69999970517E+02 0.  0.
         12    1    1    2    0    0  0.57530528348E+01  0.17564375992E+02  0.30124900441E+01  0.18726452338E+02  0.00000000000E+00 0. -1.
         11    1    3    3    0    0 -0.42202304875E+01 -0.47489932879E+01 -0.63586663158E+01  0.89886550826E+01  0.51100000000E-03 0. -1.
        -11    1    3    3    0    0  0.22522612310E+02  0.13822520783E+02 -0.43051593111E+01  0.26774326192E+02  0.51100000000E-03 0.  1.
        -12    1    3    3    0    0 -0.24055434658E+02 -0.26637903486E+02  0.76513355828E+01  0.36698566388E+02  0.00000000000E+00 0.  1.
</event>
<event>
 7    1  0.1283194E-013  0.7246157E+02  0.7816164E-02  0.1226708E+00
        -11   -1    0    0    0    0  0.00000000000E+00  0.00000000000E+00  0.45593999997E+02  0.45594000000E+02  0.51100000000E-03 0. -1.
         11   -1    0    0    0    0 -0.00000000000E+00 -0.00000000000E+00 -0.45593999997E+02  0.45594000000E+02  0.51100000000E-03 0.  1.
    9900012    2    1    2    0    0  0.12327238358E+02  0.12668443699E+02 -0.61829637507E+01  0.72461566489E+02  0.69999995043E+02 0.  0.
         12    1    1    2    0    0 -0.12327238358E+02 -0.12668443699E+02  0.61829637507E+01  0.18726433511E+02  0.00000000000E+00 0. -1.
         11    1    3    3    0    0  0.25891502036E+02  0.27381561288E+02  0.42814200183E+01  0.37926907782E+02  0.51100000000E-03 0.  1.
        -11    1    3    3    0    0 -0.17366852519E+02 -0.15412044314E+02  0.16923503568E+00  0.23219976682E+02  0.51100000000E-03 0. -1.
        -12    1    3    3    0    0  0.38025888400E+01  0.69892672478E+00 -0.10633618805E+02  0.11314682025E+02  0.00000000000E+00 0.  1.
</event>
<event>
 7    1  0.1283194E-013  0.7246153E+02  0.7816164E-02  0.1226708E+00
        -11   -1    0    0    0    0  0.00000000000E+00  0.00000000000E+00  0.45593999997E+02  0.45594000000E+02  0.51100000000E-03 0. -1.
         11   -1    0    0    0    0 -0.00000000000E+00 -0.00000000000E+00 -0.45593999997E+02  0.45594000000E+02  0.51100000000E-03 0.  1.
    9900012    2    1    2    0    0  0.85714453427E+01 -0.16256561990E+02 -0.35965364620E+01  0.72461533235E+02  0.69999951723E+02 0.  0.
         12    1    1    2    0    0 -0.85714453427E+01  0.16256561990E+02  0.35965364620E+01  0.18726466765E+02  0.00000000000E+00 0. -1.
         11    1    3    3    0    0  0.11823526359E+02 -0.50068986627E+01  0.59810648546E+01  0.14164672493E+02  0.51100000000E-03 0. -1.
        -11    1    3    3    0    0 -0.13622832441E+02 -0.31466633236E+02 -0.20091043304E+01  0.34347737500E+02  0.51100000000E-03 0.  1.
        -12    1    3    3    0    0  0.10370751424E+02  0.20216969909E+02 -0.75684969861E+01  0.23949123241E+02  0.00000000000E+00 0.  1.
</event>
<event>
 7    1  0.1283194E-013  0.7246159E+02  0.7816164E-02  0.1226708E+00
        -11   -1    0    0    0    0  0.00000000000E+00  0.00000000000E+00  0.45593999997E+02  0.45594000000E+02  0.51100000000E-03 0.  1.
         11   -1    0    0    0    0 -0.00000000000E+00 -0.00000000000E+00 -0.45593999997E+02  0.45594000000E+02  0.51100000000E-03 0. -1.
    9900012    2    1    2    0    0 -0.14596463668E+02  0.47818451592E+01  0.10712406966E+02  0.72461589299E+02  0.70000024757E+02 0.  0.
         12    1    1    2    0    0  0.14596463668E+02 -0.47818451592E+01 -0.10712406966E+02  0.18726410701E+02  0.00000000000E+00 0. -1.
         11    1    3    3    0    0 -0.23985252872E+01 -0.13972369806E+01 -0.13235442729E+01  0.30752177869E+01  0.51100000000E-03 0. -1.
        -11    1    3    3    0    0 -0.11535547453E+02  0.34673868780E+02  0.17252697901E+02  0.40410414701E+02  0.51100000000E-03 0.  1.
        -12    1    3    3    0    0 -0.66239092841E+00 -0.28494786640E+02 -0.52167466617E+01  0.28975956811E+02  0.00000000000E+00 0.  1.
</event>
<event>
 7    1  0.1283194E-013  0.7246155E+02  0.7816164E-02  0.1226708E+00
        -11   -1    0    0    0    0  0.00000000000E+00  0.00000000000E+00  0.45593999997E+02  0.45594000000E+02  0.51100000000E-03 0.  1.
         11   -1    0    0    0    0 -0.00000000000E+00 -0.00000000000E+00 -0.45593999997E+02  0.45594000000E+02  0.51100000000E-03 0. -1.
    9900012    2    1    2    0    0  0.97539890265E+01 -0.73623575724E+01  0.14189262349E+02  0.72461554076E+02  0.69999978872E+02 0.  0.
         12    1    1    2    0    0 -0.97539890265E+01  0.73623575724E+01 -0.14189262349E+02  0.18726445924E+02  0.00000000000E+00 0. -1.
         11    1    3    3    0    0  0.14492071214E+02  0.40408774192E+01 -0.13948410890E+02  0.20516017767E+02  0.51100000000E-03 0. -1.
        -11    1    3    3    0    0  0.88689611149E+01  0.17595162168E+01  0.31452025299E+02  0.32725895927E+02  0.51100000000E-03 0.  1.
         12    1    3    3    0    0 -0.13607043303E+02 -0.13162751208E+02 -0.33143520602E+01  0.19219640381E+02  0.00000000000E+00 0. -1.
</event>
<event>
 7    1  0.1283194E-013  0.7246158E+02  0.7816164E-02  0.1226708E+00
        -11   -1    0    0    0    0  0.00000000000E+00  0.00000000000E+00  0.45593999997E+02  0.45594000000E+02  0.51100000000E-03 0.  1.
         11   -1    0    0    0    0 -0.00000000000E+00 -0.00000000000E+00 -0.45593999997E+02  0.45594000000E+02  0.51100000000E-03 0. -1.
    9900012    2    1    2    0    0 -0.11854455877E+02 -0.46071355598E+01  0.13744991830E+02  0.72461584897E+02  0.70000019023E+02 0.  0.
         12    1    1    2    0    0  0.11854455877E+02  0.46071355598E+01 -0.13744991830E+02  0.18726415103E+02  0.00000000000E+00 0. -1.
         11    1    3    3    0    0 -0.12820925310E+02 -0.18617060347E+02 -0.23292204406E+02  0.32457631585E+02  0.51100000000E-03 0. -1.
        -11    1    3    3    0    0 -0.22725950782E+01  0.43713746630E+01  0.13147377053E+02  0.14040196881E+02  0.51100000000E-03 0.  1.
         12    1    3    3    0    0  0.32390645117E+01  0.96385501242E+01  0.23889819183E+02  0.25963756431E+02  0.00000000000E+00 0. -1.
</event>
<event>
 7    1  0.1283194E-013  0.7246158E+02  0.7816164E-02  0.1226708E+00
        -11   -1    0    0    0    0  0.00000000000E+00  0.00000000000E+00  0.45593999997E+02  0.45594000000E+02  0.51100000000E-03 0. -1.
         11   -1    0    0    0    0 -0.00000000000E+00 -0.00000000000E+00 -0.45593999997E+02  0.45594000000E+02  0.51100000000E-03 0.  1.
    9900012    2    1    2    0    0 -0.38365481090E+01  0.76257731150E+01 -0.16667553423E+02  0.72461578716E+02  0.70000010971E+02 0.  0.
         12    1    1    2    0    0  0.38365481090E+01 -0.76257731150E+01  0.16667553423E+02  0.18726421284E+02  0.00000000000E+00 0. -1.
         11    1    3    3    0    0  0.25684642169E+02 -0.12549950567E+02  0.37137009222E+01  0.28826960946E+02  0.51100000000E-03 0. -1.
        -11    1    3    3    0    0 -0.11266280479E+00  0.37799035417E+01 -0.58425518962E+01  0.69595816406E+01  0.51100000000E-03 0.  1.
         12    1    3    3    0    0 -0.29408527473E+02  0.16395820140E+02 -0.14538702449E+02  0.36675036130E+02  0.00000000000E+00 0. -1.
</event>
<event>
 7    1  0.1283194E-013  0.7246168E+02  0.7816164E-02  0.1226708E+00
        -11   -1    0    0    0    0  0.00000000000E+00  0.00000000000E+00  0.45593999997E+02  0.45594000000E+02  0.51100000000E-03 0.  1.
         11   -1    0    0    0    0 -0.00000000000E+00 -0.00000000000E+00 -0.45593999997E+02  0.45594000000E+02  0.51100000000E-03 0. -1.
    9900012    2    1    2    0    0  0.18518854111E+02  0.26706634930E+01  0.77103411600E+00  0.72461684434E+02  0.70000148688E+02 0.  0.
         12    1    1    2    0    0 -0.18518854111E+02 -0.26706634930E+01 -0.77103411600E+00  0.18726315566E+02  0.00000000000E+00 0. -1.
         11    1    3    3    0    0 -0.10873688601E+02 -0.69517811481E+01 -0.67274078502E+01  0.14554119059E+02  0.51100000000E-03 0. -1.
        -11    1    3    3    0    0  0.41430115408E+02  0.23185987951E+01  0.11878939487E+02  0.43161783637E+02  0.51100000000E-03 0.  1.
        -12    1    3    3    0    0 -0.12037572696E+02  0.73038458460E+01 -0.43804975209E+01  0.14745781739E+02  0.00000000000E+00 0.  1.
</event>
<event>
 7    1  0.1283194E-013  0.7246157E+02  0.7816164E-02  0.1226708E+00
        -11   -1    0    0    0    0  0.00000000000E+00  0.00000000000E+00  0.45593999997E+02  0.45594000000E+02  0.51100000000E-03 0.  1.
         11   -1    0    0    0    0 -0.00000000000E+00 -0.00000000000E+00 -0.45593999997E+02  0.45594000000E+02  0.51100000000E-03 0. -1.
    9900012    2    1    2    0    0 -0.13838619445E+02  0.35641096712E+00  0.12611296031E+02  0.72461569360E+02  0.69999998783E+02 0.  0.
         12    1    1    2    0    0  0.13838619445E+02 -0.35641096712E+00 -0.12611296031E+02  0.18726430640E+02  0.00000000000E+00 0. -1.
         11    1    3    3    0    0 -0.31498785936E+02 -0.13088656351E+02  0.14247984870E+02  0.36966085993E+02  0.51100000000E-03 0. -1.
        -11    1    3    3    0    0  0.18411375206E+02  0.20822835069E+02  0.42479299709E+00  0.27798374892E+02  0.51100000000E-03 0.  1.
        -12    1    3    3    0    0 -0.75120871563E+00 -0.73777677507E+01 -0.20614818364E+01  0.76971084753E+01  0.00000000000E+00 0.  1.
</event>
<event>
 7    1  0.1283194E-013  0.7246155E+02  0.7816164E-02  0.1226708E+00
        -11   -1    0    0    0    0  0.00000000000E+00  0.00000000000E+00  0.45593999997E+02  0.45594000000E+02  0.51100000000E-03 0. -1.
         11   -1    0    0    0    0 -0.00000000000E+00 -0.00000000000E+00 -0.45593999997E+02  0.45594000000E+02  0.51100000000E-03 0.  1.
    9900012    2    1    2    0    0  0.82407966911E+01  0.11542029264E+02 -0.12229093772E+02  0.72461550680E+02  0.69999974449E+02 0.  0.
         12    1    1    2    0    0 -0.82407966911E+01 -0.11542029264E+02  0.12229093772E+02  0.18726449320E+02  0.00000000000E+00 0. -1.
         11    1    3    3    0    0 -0.13371623283E+02 -0.63542930604E+01 -0.39465983129E+01  0.15321650956E+02  0.51100000000E-03 0. -1.
        -11    1    3    3    0    0  0.62553093882E+01  0.33051767007E+02 -0.11004530430E+02  0.35392766041E+02  0.51100000000E-03 0.  1.
        -12    1    3    3    0    0  0.15357110586E+02 -0.15155444682E+02  0.27220349706E+01  0.21747133683E+02  0.00000000000E+00 0.  1.
</event>
<event>
 7    1  0.1283194E-013  0.7246158E+02  0.7816164E-02  0.1226708E+00
        -11   -1    0    0    0    0  0.00000000000E+00  0.00000000000E+00  0.45593999997E+02  0.45594000000E+02  0.51100000000E-03 0. -1.
         11   -1    0    0    0    0 -0.00000000000E+00 -0.00000000000E+00 -0.45593999997E+02  0.45594000000E+02  0.51100000000E-03 0.  1.
    9900012    2    1    2    0    0  0.26986994802E+01  0.70452395362E+01 -0.17139442946E+02  0.72461577931E+02  0.70000009949E+02 0.  0.
         12    1    1    2    0    0 -0.26986994802E+01 -0.70452395362E+01  0.17139442946E+02  0.18726422069E+02  0.00000000000E+00 0. -1.
         11    1    3    3    0    0  0.32489039443E+02 -0.32955969005E+01 -0.27799696851E+01  0.32773874879E+02  0.51100000000E-03 0. -1.
        -11    1    3    3    0    0 -0.17605762312E+02  0.12544800087E+02 -0.16404745337E+02  0.27137622329E+02  0.51100000000E-03 0.  1.
         12    1    3    3    0    0 -0.12184577651E+02 -0.22039636505E+01  0.20452720761E+01  0.12550080723E+02  0.00000000000E+00 0. -1.
</event>
<event>
 7    1  0.1283194E-013  0.7246160E+02  0.7816164E-02  0.1226708E+00
        -11   -1    0    0    0    0  0.00000000000E+00  0.00000000000E+00  0.45593999997E+02  0.45594000000E+02  0.51100000000E-03 0.  1.
         11   -1    0    0    0    0 -0.00000000000E+00 -0.00000000000E+00 -0.45593999997E+02  0.45594000000E+02  0.51100000000E-03 0. -1.
    9900012    2    1    2    0    0  0.56428527704E+01  0.10375965228E+02  0.14531886141E+02  0.72461597339E+02  0.70000035231E+02 0.  0.
         12    1    1    2    0    0 -0.56428527704E+01 -0.10375965228E+02 -0.14531886141E+02  0.18726402661E+02  0.00000000000E+00 0. -1.
         11    1    3    3    0    0  0.91564869933E+01 -0.50562628646E+01 -0.17579559026E+02  0.20456000196E+02  0.51100000000E-03 0. -1.
        -11    1    3    3    0    0  0.20957533643E+01  0.27156428897E+02  0.25957856852E+02  0.37625445448E+02  0.51100000000E-03 0.  1.
         12    1    3    3    0    0 -0.56093875872E+01 -0.11724200804E+02  0.61535883158E+01  0.14380151695E+02  0.00000000000E+00 0. -1.
</event>
<event>
 7    1  0.1283194E-013  0.7246157E+02  0.7816164E-02  0.1226708E+00
        -11   -1    0    0    0    0  0.00000000000E+00  0.00000000000E+00  0.45593999997E+02  0.45594000000E+02  0.51100000000E-03 0.  1.
         11   -1    0    0    0    0 -0.00000000000E+00 -0.00000000000E+00 -0.45593999997E+02  0.45594000000E+02  0.51100000000E-03 0. -1.
    9900012    2    1    2    0    0 -0.76991797057E+01 -0.15562384618E+02  0.70152706200E+01  0.72461569347E+02  0.69999998766E+02 0.  0.
         12    1    1    2    0    0  0.76991797057E+01  0.15562384618E+02 -0.70152706200E+01  0.18726430653E+02  0.00000000000E+00 0. -1.
         11    1    3    3    0    0 -0.26622993605E+01 -0.11998669119E+02 -0.35336508850E+01  0.12788377042E+02  0.51100000000E-03 0. -1.
        -11    1    3    3    0    0 -0.26248564868E+02  0.62113807466E+01  0.20903460728E+02  0.34125109218E+02  0.51100000000E-03 0.  1.
        -12    1    3    3    0    0  0.21211684523E+02 -0.97750962451E+01 -0.10354539223E+02  0.25548083087E+02  0.00000000000E+00 0.  1.
</event>
<event>
 7    1  0.1283194E-013  0.7246160E+02  0.7816164E-02  0.1226708E+00
        -11   -1    0    0    0    0  0.00000000000E+00  0.00000000000E+00  0.45593999997E+02  0.45594000000E+02  0.51100000000E-03 0. -1.
         11   -1    0    0    0    0 -0.00000000000E+00 -0.00000000000E+00 -0.45593999997E+02  0.45594000000E+02  0.51100000000E-03 0.  1.
    9900012    2    1    2    0    0 -0.99983448679E+01  0.78479189489E+01 -0.13752140364E+02  0.72461598944E+02  0.70000037321E+02 0.  0.
         12    1    1    2    0    0  0.99983448679E+01 -0.78479189489E+01  0.13752140364E+02  0.18726401056E+02  0.00000000000E+00 0. -1.
         11    1    3    3    0    0  0.58535030967E+01 -0.20136645774E+02 -0.15494784072E+01  0.21027336615E+02  0.51100000000E-03 0. -1.
        -11    1    3    3    0    0 -0.14135450070E+02  0.20481136150E+02 -0.25777070172E+02  0.35829390639E+02  0.51100000000E-03 0.  1.
         12    1    3    3    0    0 -0.17163978946E+01  0.75034285723E+01  0.13574408215E+02  0.15604871690E+02  0.00000000000E+00 0. -1.
</event>
<event>
 7    1  0.1283194E-013  0.7246156E+02  0.7816164E-02  0.1226708E+00
        -11   -1    0    0    0    0  0.00000000000E+00  0.00000000000E+00  0.45593999997E+02  0.45594000000E+02  0.51100000000E-03 0.  1.
         11   -1    0    0    0    0 -0.00000000000E+00 -0.00000000000E+00 -0.45593999997E+02  0.45594000000E+02  0.51100000000E-03 0. -1.
    9900012    2    1    2    0    0  0.12445721408E+01  0.17752407912E+02  0.58294735151E+01  0.72461555918E+02  0.69999981272E+02 0.  0.
         12    1    1    2    0    0 -0.12445721408E+01 -0.17752407912E+02 -0.58294735151E+01  0.18726444082E+02  0.00000000000E+00 0. -1.
         11    1    3    3    0    0 -0.31744958968E+01  0.32038296596E+02  0.31169218668E+01  0.32345711851E+02  0.51100000000E-03 0. -1.
        -11    1    3    3    0    0 -0.89216369289E+01 -0.16853669774E+02 -0.99805342723E+01  0.21523309573E+02  0.51100000000E-03 0.  1.
        -12    1    3    3    0    0  0.13340704967E+02  0.25677810906E+01  0.12693085921E+02  0.18592534494E+02  0.00000000000E+00 0.  1.
</event>
<event>
 7    1  0.1283194E-013  0.7246158E+02  0.7816164E-02  0.1226708E+00
        -11   -1    0    0    0    0  0.00000000000E+00  0.00000000000E+00  0.45593999997E+02  0.45594000000E+02  0.51100000000E-03 0.  1.
         11   -1    0    0    0    0 -0.00000000000E+00 -0.00000000000E+00 -0.45593999997E+02  0.45594000000E+02  0.51100000000E-03 0. -1.
    9900012    2    1    2    0    0 -0.58754116161E+01  0.33632897869E+01  0.17459858104E+02  0.72461579497E+02  0.70000011988E+02 0.  0.
         12    1    1    2    0    0  0.58754116161E+01 -0.33632897869E+01 -0.17459858104E+02  0.18726420503E+02  0.00000000000E+00 0. -1.
         11    1    3    3    0    0  0.11408931082E+02 -0.74146084043E+01 -0.16074744951E+02  0.21060331235E+02  0.51100000000E-03 0. -1.
        -11    1    3    3    0    0 -0.17268211203E+02  0.20644790061E+02  0.16084008687E+02  0.31354326823E+02  0.51100000000E-03 0.  1.
         12    1    3    3    0    0 -0.16131494983E-01 -0.98668918698E+01  0.17450594367E+02  0.20046921439E+02  0.00000000000E+00 0. -1.
</event>
<event>
 7    1  0.1283194E-013  0.7246168E+02  0.7816164E-02  0.1226708E+00
        -11   -1    0    0    0    0  0.00000000000E+00  0.00000000000E+00  0.45593999997E+02  0.45594000000E+02  0.51100000000E-03 0.  1.
         11   -1    0    0    0    0 -0.00000000000E+00 -0.00000000000E+00 -0.45593999997E+02  0.45594000000E+02  0.51100000000E-03 0. -1.
    9900012    2    1    2    0    0  0.14447938876E+02  0.82321562187E+00  0.11885045853E+02  0.72461683313E+02  0.70000147228E+02 0.  0.
         12    1    1    2    0    0 -0.14447938876E+02 -0.82321562187E+00 -0.11885045853E+02  0.18726316687E+02  0.00000000000E+00 0. -1.
         11    1    3    3    0    0  0.12383182813E+01  0.21221656171E+02 -0.18162995887E+02  0.27960446039E+02  0.51100000000E-03 0. -1.
        -11    1    3    3    0    0 -0.44123569516E+00 -0.92387279919E+01 -0.46419109369E+00  0.92608993883E+01  0.51100000000E-03 0.  1.
         12    1    3    3    0    0  0.13650856290E+02 -0.11159712558E+02  0.30512232834E+02  0.35240337886E+02  0.00000000000E+00 0. -1.
</event>
<event>
 7    1  0.1283194E-013  0.7246195E+02  0.7816164E-02  0.1226707E+00
        -11   -1    0    0    0    0  0.00000000000E+00  0.00000000000E+00  0.45593999997E+02  0.45594000000E+02  0.51100000000E-03 0.  1.
         11   -1    0    0    0    0 -0.00000000000E+00 -0.00000000000E+00 -0.45593999997E+02  0.45594000000E+02  0.51100000000E-03 0. -1.
    9900012    2    1    2    0    0  0.10978910469E+02  0.83985172246E+01  0.12633023772E+02  0.72461952465E+02  0.70000497846E+02 0.  0.
         12    1    1    2    0    0 -0.10978910469E+02 -0.83985172246E+01 -0.12633023772E+02  0.18726047535E+02  0.00000000000E+00 0. -1.
         11    1    3    3    0    0  0.16328726653E+02  0.23974003082E+02  0.87349551683E+01  0.30293226634E+02  0.51100000000E-03 0. -1.
        -11    1    3    3    0    0 -0.18884357971E+02 -0.40509680165E-01  0.90345260783E+01  0.20934260883E+02  0.51100000000E-03 0.  1.
         12    1    3    3    0    0  0.13534541787E+02 -0.15534976177E+02 -0.51364574747E+01  0.21234464947E+02  0.00000000000E+00 0. -1.
</event>
<event>
 7    1  0.1283194E-013  0.7246106E+02  0.7816164E-02  0.1226709E+00
        -11   -1    0    0    0    0  0.00000000000E+00  0.00000000000E+00  0.45593999997E+02  0.45594000000E+02  0.51100000000E-03 0. -1.
         11   -1    0    0    0    0 -0.00000000000E+00 -0.00000000000E+00 -0.45593999997E+02  0.45594000000E+02  0.51100000000E-03 0.  1.
    9900012    2    1    2    0    0 -0.13277055763E+02 -0.40150115693E+01 -0.12581639397E+02  0.72461062782E+02  0.69999338868E+02 0.  0.
         12    1    1    2    0    0  0.13277055763E+02  0.40150115693E+01  0.12581639397E+02  0.18726937218E+02  0.00000000000E+00 0. -1.
         11    1    3    3    0    0 -0.67349613424E+01  0.17160606617E+02 -0.17401915002E+02  0.25350991495E+02  0.51100000000E-03 0. -1.
        -11    1    3    3    0    0  0.13075604300E+02 -0.18049591118E+02 -0.77555005936E+01  0.23598876182E+02  0.51100000000E-03 0.  1.
        -12    1    3    3    0    0 -0.19617698720E+02 -0.31260270685E+01  0.12575776199E+02  0.23511195106E+02  0.00000000000E+00 0.  1.
</event>
<event>
 7    1  0.1283194E-013  0.7246152E+02  0.7816164E-02  0.1226708E+00
        -11   -1    0    0    0    0  0.00000000000E+00  0.00000000000E+00  0.45593999997E+02  0.45594000000E+02  0.51100000000E-03 0.  1.
         11   -1    0    0    0    0 -0.00000000000E+00 -0.00000000000E+00 -0.45593999997E+02  0.45594000000E+02  0.51100000000E-03 0. -1.
    9900012    2    1    2    0    0  0.79225288381E+01  0.99199128209E+01  0.13766255458E+02  0.72461523479E+02  0.69999939014E+02 0.  0.
         12    1    1    2    0    0 -0.79225288381E+01 -0.99199128209E+01 -0.13766255458E+02  0.18726476521E+02  0.00000000000E+00 0. -1.
         11    1    3    3    0    0 -0.90444412668E+00  0.15823830235E+02 -0.11707183683E+02  0.19704562227E+02  0.51100000000E-03 0. -1.
        -11    1    3    3    0    0  0.70859673281E+01 -0.23512762013E+02  0.39162175033E+01  0.24867602825E+02  0.51100000000E-03 0.  1.
        -12    1    3    3    0    0  0.17410056367E+01  0.17608844599E+02  0.21557221638E+02  0.27889358427E+02  0.00000000000E+00 0.  1.
</event>
<event>
 7    1  0.1283194E-013  0.7246142E+02  0.7816164E-02  0.1226708E+00
        -11   -1    0    0    0    0  0.00000000000E+00  0.00000000000E+00  0.45593999997E+02  0.45594000000E+02  0.51100000000E-03 0.  1.
         11   -1    0    0    0    0 -0.00000000000E+00 -0.00000000000E+00 -0.45593999997E+02  0.45594000000E+02  0.51100000000E-03 0. -1.
    9900012    2    1    2    0    0  0.76987849815E-01  0.58368929579E+01  0.17793520301E+02  0.72461425000E+02  0.69999810727E+02 0.  0.
         12    1    1    2    0    0 -0.76987849815E-01 -0.58368929579E+01 -0.17793520301E+02  0.18726575000E+02  0.00000000000E+00 0. -1.
         11    1    3    3    0    0  0.19822407922E+02 -0.14869594708E+02 -0.91941365696E+01  0.26430377412E+02  0.51100000000E-03 0. -1.
        -11    1    3    3    0    0 -0.69118185144E+01 -0.39222737832E+01  0.12220121016E+02  0.14576996423E+02  0.51100000000E-03 0.  1.
         12    1    3    3    0    0 -0.12833601558E+02  0.24628761449E+02  0.14767535854E+02  0.31454051165E+02  0.00000000000E+00 0. -1.
</event>
<event>
 7    1  0.1283194E-013  0.7246154E+02  0.7816164E-02  0.1226708E+00
        -11   -1    0    0    0    0  0.00000000000E+00  0.00000000000E+00  0.45593999997E+02  0.45594000000E+02  0.51100000000E-03 0.  1.
         11   -1    0    0    0    0 -0.00000000000E+00 -0.00000000000E+00 -0.45593999997E+02  0.45594000000E+02  0.51100000000E-03 0. -1.
    9900012    2    1    2    0    0  0.18409766184E+02  0.22195039107E+01  0.26143230862E+01  0.72461538141E+02  0.69999958114E+02 0.  0.
         12    1    1    2    0    0 -0.18409766184E+02 -0.22195039107E+01 -0.26143230862E+01  0.18726461859E+02  0.00000000000E+00 0. -1.
         11    1    3    3    0    0  0.42728075662E+02 -0.42098838134E+01 -0.53480718523E+01  0.43266770671E+02  0.51100000000E-03 0.  1.
        -11    1    3    3    0    0 -0.13274886821E+02  0.38486687781E+01  0.10757404517E+02  0.17514468981E+02  0.51100000000E-03 0. -1.
        -12    1    3    3    0    0 -0.11043422656E+02  0.25807189460E+01 -0.27950095789E+01  0.11680298489E+02  0.00000000000E+00 0.  1.
</event>
<event>
 7    1  0.1283194E-013  0.7246154E+02  0.7816164E-02  0.1226708E+00
        -11   -1    0    0    0    0  0.00000000000E+00  0.00000000000E+00  0.45593999997E+02  0.45594000000E+02  0.51100000000E-03 0. -1.
         11   -1    0    0    0    0 -0.00000000000E+00 -0.00000000000E+00 -0.45593999997E+02  0.45594000000E+02  0.51100000000E-03 0.  1.
    9900012    2    1    2    0    0  0.54481332687E+01 -0.17266723741E+01 -0.17833021696E+02  0.72461542342E+02  0.69999963588E+02 0.  0.
         12    1    1    2    0    0 -0.54481332687E+01  0.17266723741E+01  0.17833021696E+02  0.18726457658E+02  0.00000000000E+00 0. -1.
         11    1    3    3    0    0 -0.16140344925E+02  0.12033764978E+01  0.17289062340E+02  0.23682705212E+02  0.51100000000E-03 0. -1.
        -11    1    3    3    0    0  0.45403966844E+01 -0.65704035152E+01 -0.29347588262E+02  0.30414903279E+02  0.51100000000E-03 0.  1.
         12    1    3    3    0    0  0.17048081509E+02  0.36403546433E+01 -0.57744957738E+01  0.18363933852E+02  0.00000000000E+00 0. -1.
</event>
<event>
 7    1  0.1283194E-013  0.7246159E+02  0.7816164E-02  0.1226708E+00
        -11   -1    0    0    0    0  0.00000000000E+00  0.00000000000E+00  0.45593999997E+02  0.45594000000E+02  0.51100000000E-03 0.  1.
         11   -1    0    0    0    0 -0.00000000000E+00 -0.00000000000E+00 -0.45593999997E+02  0.45594000000E+02  0.51100000000E-03 0. -1.
    9900012    2    1    2    0    0  0.91613477581E+01 -0.16038708323E+02  0.30835159110E+01  0.72461587429E+02  0.70000022320E+02 0.  0.
         12    1    1    2    0    0 -0.91613477581E+01  0.16038708323E+02 -0.30835159110E+01  0.18726412571E+02  0.00000000000E+00 0. -1.
         11    1    3    3    0    0  0.16696476290E+02  0.15036352273E+02  0.17014755249E+02  0.28184501178E+02  0.51100000000E-03 0. -1.
        -11    1    3    3    0    0  0.93271062228E+01 -0.12471156594E+02 -0.21824544963E-01  0.15573218481E+02  0.51100000000E-03 0.  1.
         12    1    3    3    0    0 -0.16862234755E+02 -0.18603904002E+02 -0.13909414793E+02  0.28703867770E+02  0.00000000000E+00 0. -1.
</event>
<event>
 7    1  0.1283194E-013  0.7246155E+02  0.7816164E-02  0.1226708E+00
        -11   -1    0    0    0    0  0.00000000000E+00  0.00000000000E+00  0.45593999997E+02  0.45594000000E+02  0.51100000000E-03 0. -1.
         11   -1    0    0    0    0 -0.00000000000E+00 -0.00000000000E+00 -0.45593999997E+02  0.45594000000E+02  0.51100000000E-03 0.  1.
    9900012    2    1    2    0    0  0.10864901880E+02  0.32423409440E+01 -0.14903721181E+02  0.72461554189E+02  0.69999979020E+02 0.  0.
         12    1    1    2    0    0 -0.10864901880E+02 -0.32423409440E+01  0.14903721181E+02  0.18726445811E+02  0.00000000000E+00 0. -1.
         11    1    3    3    0    0 -0.19664297675E+02 -0.13506329800E+01 -0.14551928649E+02  0.24500355919E+02  0.51100000000E-03 0.  1.
        -11    1    3    3    0    0  0.24348290500E+02  0.19702017389E+02  0.23734478294E+01  0.31410857905E+02  0.51100000000E-03 0. -1.
         12    1    3    3    0    0  0.61809090558E+01 -0.15109043465E+02 -0.27252403612E+01  0.16550340365E+02  0.00000000000E+00 0. -1.
</event>
<event>
 7    1  0.1283194E-013  0.7246160E+02  0.7816164E-02  0.1226708E+00
        -11   -1    0    0    0    0  0.00000000000E+00  0.00000000000E+00  0.45593999997E+02  0.45594000000E+02  0.51100000000E-03 0. -1.
         11   -1    0    0    0    0 -0.00000000000E+00 -0.00000000000E+00 -0.45593999997E+02  0.45594000000E+02  0.51100000000E-03 0.  1.
    9900012    2    1    2    0    0  0.17857459613E+01  0.18017133808E+01 -0.18553790232E+02  0.72461596402E+02  0.70000034010E+02 0.  0.
         12    1    1    2    0    0 -0.17857459613E+01 -0.18017133808E+01  0.18553790232E+02  0.18726403598E+02  0.00000000000E+00 0. -1.
         11    1    3    3    0    0  0.16395263695E+02 -0.18765122903E+02  0.84284434834E+01  0.26305382890E+02  0.51100000000E-03 0. -1.
        -11    1    3    3    0    0 -0.11708047612E+02  0.50569319439E+01 -0.27558788061E+02  0.30366720917E+02  0.51100000000E-03 0.  1.
        -12    1    3    3    0    0 -0.29014701221E+01  0.15509904339E+02  0.57655434531E+00  0.15789492595E+02  0.00000000000E+00 0.  1.
</event>
<event>
 7    1  0.1283194E-013  0.7246153E+02  0.7816164E-02  0.1226708E+00
        -11   -1    0    0    0    0  0.00000000000E+00  0.00000000000E+00  0.45593999997E+02  0.45594000000E+02  0.51100000000E-03 0.  1.
         11   -1    0    0    0    0 -0.00000000000E+00 -0.00000000000E+00 -0.45593999997E+02  0.45594000000E+02  0.51100000000E-03 0. -1.
    9900012    2    1    2    0    0 -0.45485044654E+01 -0.94871596845E+01  0.15491463640E+02  0.72461533770E+02  0.69999952421E+02 0.  0.
         12    1    1    2    0    0  0.45485044654E+01  0.94871596845E+01 -0.15491463640E+02  0.18726466230E+02  0.00000000000E+00 0. -1.
         11    1    3    3    0    0 -0.53577660125E+01  0.12412849546E+02  0.26217070741E+02  0.29497784476E+02  0.51100000000E-03 0.  1.
        -11    1    3    3    0    0 -0.42388542614E+01  0.16655076272E+01 -0.17375930789E+02  0.17962872047E+02  0.51100000000E-03 0. -1.
        -12    1    3    3    0    0  0.50481158085E+01 -0.23565516858E+02  0.66503236874E+01  0.25000877247E+02  0.00000000000E+00 0.  1.
</event>
<event>
 7    1  0.1283194E-013  0.7246161E+02  0.7816164E-02  0.1226708E+00
        -11   -1    0    0    0    0  0.00000000000E+00  0.00000000000E+00  0.45593999997E+02  0.45594000000E+02  0.51100000000E-03 0. -1.
         11   -1    0    0    0    0 -0.00000000000E+00 -0.00000000000E+00 -0.45593999997E+02  0.45594000000E+02  0.51100000000E-03 0.  1.
    9900012    2    1    2    0    0  0.18452830976E+02 -0.24983647192E+01 -0.19821545620E+01  0.72461608623E+02  0.70000049930E+02 0.  0.
         12    1    1    2    0    0 -0.18452830976E+02  0.24983647192E+01  0.19821545620E+01  0.18726391377E+02  0.00000000000E+00 0. -1.
         11    1    3    3    0    0  0.38340155835E+02  0.18458254666E+02 -0.38098379549E+01  0.42722237538E+02  0.51100000000E-03 0.  1.
        -11    1    3    3    0    0 -0.17846061066E+02 -0.15100735095E+02  0.42623737033E+00  0.23381526352E+02  0.51100000000E-03 0. -1.
        -12    1    3    3    0    0 -0.20412637927E+01 -0.58558842902E+01  0.14014460226E+01  0.63578447328E+01  0.00000000000E+00 0.  1.
</event>
<event>
 7    1  0.1283194E-013  0.7246141E+02  0.7816164E-02  0.1226708E+00
        -11   -1    0    0    0    0  0.00000000000E+00  0.00000000000E+00  0.45593999997E+02  0.45594000000E+02  0.51100000000E-03 0.  1.
         11   -1    0    0    0    0 -0.00000000000E+00 -0.00000000000E+00 -0.45593999997E+02  0.45594000000E+02  0.51100000000E-03 0. -1.
    9900012    2    1    2    0    0  0.45687052122E+00 -0.15262891271E+02  0.10840684926E+02  0.72461413811E+02  0.69999796152E+02 0.  0.
         12    1    1    2    0    0 -0.45687052122E+00  0.15262891271E+02 -0.10840684926E+02  0.18726586189E+02  0.00000000000E+00 0. -1.
         11    1    3    3    0    0  0.19060038233E+02 -0.88053869280E+01  0.28564261373E+02  0.35450485532E+02  0.51100000000E-03 0.  1.
        -11    1    3    3    0    0 -0.13908675977E+02  0.68500010734E+01 -0.16813009788E+02  0.22870310023E+02  0.51100000000E-03 0. -1.
         12    1    3    3    0    0 -0.46944917349E+01 -0.13307505416E+02 -0.91056665943E+00  0.14140618257E+02  0.00000000000E+00 0. -1.
</event>
<event>
 7    1  0.1283194E-013  0.7246156E+02  0.7816164E-02  0.1226708E+00
        -11   -1    0    0    0    0  0.00000000000E+00  0.00000000000E+00  0.45593999997E+02  0.45594000000E+02  0.51100000000E-03 0. -1.
         11   -1    0    0    0    0 -0.00000000000E+00 -0.00000000000E+00 -0.45593999997E+02  0.45594000000E+02  0.51100000000E-03 0.  1.
    9900012    2    1    2    0    0 -0.11606581851E+01  0.14583653086E+02  0.11689718828E+02  0.72461559040E+02  0.69999985339E+02 0.  0.
         12    1    1    2    0    0  0.11606581851E+01 -0.14583653086E+02 -0.11689718828E+02  0.18726440960E+02  0.00000000000E+00 0. -1.
         11    1    3    3    0    0 -0.81246131451E+00 -0.36518014273E+01 -0.23059873644E+02  0.23361368106E+02  0.51100000000E-03 0. -1.
        -11    1    3    3    0    0  0.79957429560E+01  0.22875043098E+02  0.19478492058E+02  0.31090370781E+02  0.51100000000E-03 0.  1.
         12    1    3    3    0    0 -0.83439398265E+01 -0.46395885852E+01  0.15271100415E+02  0.18009820153E+02  0.00000000000E+00 0. -1.
</event>
<event>
 7    1  0.1283194E-013  0.7246149E+02  0.7816164E-02  0.1226708E+00
        -11   -1    0    0    0    0  0.00000000000E+00  0.00000000000E+00  0.45593999997E+02  0.45594000000E+02  0.51100000000E-03 0.  1.
         11   -1    0    0    0    0 -0.00000000000E+00 -0.00000000000E+00 -0.45593999997E+02  0.45594000000E+02  0.51100000000E-03 0. -1.
    9900012    2    1    2    0    0  0.46422362527E+01  0.41297950767E+01  0.17665688409E+02  0.72461491736E+02  0.69999897663E+02 0.  0.
         12    1    1    2    0    0 -0.46422362527E+01 -0.41297950767E+01 -0.17665688409E+02  0.18726508264E+02  0.00000000000E+00 0. -1.
         11    1    3    3    0    0  0.91920767935E+01  0.25619007019E+01 -0.84415730437E+01  0.12740399001E+02  0.51100000000E-03 0. -1.
        -11    1    3    3    0    0 -0.27345496551E+02  0.90009316405E+01  0.86432364700E+01  0.30058251595E+02  0.51100000000E-03 0.  1.
        -12    1    3    3    0    0  0.22795656010E+02 -0.74330372657E+01  0.17464024982E+02  0.29662841140E+02  0.00000000000E+00 0.  1.
</event>
<event>
 7    1  0.1283194E-013  0.7246152E+02  0.7816164E-02  0.1226708E+00
        -11   -1    0    0    0    0  0.00000000000E+00  0.00000000000E+00  0.45593999997E+02  0.45594000000E+02  0.51100000000E-03 0.  1.
         11   -1    0    0    0    0 -0.00000000000E+00 -0.00000000000E+00 -0.45593999997E+02  0.45594000000E+02  0.51100000000E-03 0. -1.
    9900012    2    1    2    0    0 -0.82656826828E+01 -0.47045543090E+01  0.16131538901E+02  0.72461524390E+02  0.69999940200E+02 0.  0.
         12    1    1    2    0    0  0.82656826828E+01  0.47045543090E+01 -0.16131538901E+02  0.18726475610E+02  0.00000000000E+00 0. -1.
         11    1    3    3    0    0  0.13999058656E+02 -0.22979975334E+02  0.27285351773E+02  0.38321577881E+02  0.51100000000E-03 0. -1.
        -11    1    3    3    0    0 -0.17894047055E+02  0.19023343700E+02 -0.50581152666E+01  0.26602049843E+02  0.51100000000E-03 0.  1.
         12    1    3    3    0    0 -0.43706942836E+01 -0.74792267527E+00 -0.60956976052E+01  0.75378966657E+01  0.00000000000E+00 0. -1.
</event>
<event>
 7    1  0.1283194E-013  0.7246155E+02  0.7816164E-02  0.1226708E+00
        -11   -1    0    0    0    0  0.00000000000E+00  0.00000000000E+00  0.45593999997E+02  0.45594000000E+02  0.51100000000E-03 0.  1.
         11   -1    0    0    0    0 -0.00000000000E+00 -0.00000000000E+00 -0.45593999997E+02  0.45594000000E+02  0.51100000000E-03 0. -1.
    9900012    2    1    2    0    0 -0.77726720918E+01  0.16958047005E+02 -0.16401717369E+01  0.72461549375E+02  0.69999972749E+02 0.  0.
         12    1    1    2    0    0  0.77726720918E+01 -0.16958047005E+02  0.16401717369E+01  0.18726450625E+02  0.00000000000E+00 0. -1.
         11    1    3    3    0    0  0.13212447070E+02  0.74049209469E+01 -0.25063980110E+02  0.29284888783E+02  0.51100000000E-03 0. -1.
        -11    1    3    3    0    0 -0.12518713200E+02  0.19375206192E+02  0.17310856815E+02  0.28840640754E+02  0.51100000000E-03 0.  1.
         12    1    3    3    0    0 -0.84664059622E+01 -0.98220801335E+01  0.61129515581E+01  0.14336019839E+02  0.00000000000E+00 0. -1.
</event>
<event>
 7    1  0.1283194E-013  0.7246158E+02  0.7816164E-02  0.1226708E+00
        -11   -1    0    0    0    0  0.00000000000E+00  0.00000000000E+00  0.45593999997E+02  0.45594000000E+02  0.51100000000E-03 0.  1.
         11   -1    0    0    0    0 -0.00000000000E+00 -0.00000000000E+00 -0.45593999997E+02  0.45594000000E+02  0.51100000000E-03 0. -1.
    9900012    2    1    2    0    0 -0.11139054207E+02  0.10159810149E+01  0.15018919373E+02  0.72461583226E+02  0.70000016846E+02 0.  0.
         12    1    1    2    0    0  0.11139054207E+02 -0.10159810149E+01 -0.15018919373E+02  0.18726416774E+02  0.00000000000E+00 0. -1.
         11    1    3    3    0    0 -0.28239102316E+02  0.12263824709E+02 -0.13468815331E+01  0.30816592710E+02  0.51100000000E-03 0. -1.
        -11    1    3    3    0    0  0.76011230854E+01 -0.21468680391E+02  0.15726989146E+02  0.27677057245E+02  0.51100000000E-03 0.  1.
        -12    1    3    3    0    0  0.94989250236E+01  0.10220836698E+02  0.63881176078E+00  0.13967933271E+02  0.00000000000E+00 0.  1.
</event>
<event>
 7    1  0.1283194E-013  0.7246161E+02  0.7816164E-02  0.1226708E+00
        -11   -1    0    0    0    0  0.00000000000E+00  0.00000000000E+00  0.45593999997E+02  0.45594000000E+02  0.51100000000E-03 0.  1.
         11   -1    0    0    0    0 -0.00000000000E+00 -0.00000000000E+00 -0.45593999997E+02  0.45594000000E+02  0.51100000000E-03 0. -1.
    9900012    2    1    2    0    0  0.13703548134E+02  0.11611021127E+02  0.52985381872E+01  0.72461613536E+02  0.70000056330E+02 0.  0.
         12    1    1    2    0    0 -0.13703548134E+02 -0.11611021127E+02 -0.52985381872E+01  0.18726386464E+02  0.00000000000E+00 0. -1.
         11    1    3    3    0    0  0.13408016689E+02 -0.12440461850E+02 -0.11442972944E+02  0.21575023352E+02  0.51100000000E-03 0. -1.
        -11    1    3    3    0    0  0.97177113273E+01  0.29436011161E+02  0.75430939067E-01  0.30998683143E+02  0.51100000000E-03 0.  1.
        -12    1    3    3    0    0 -0.94221798822E+01 -0.53845281835E+01  0.16666080192E+02  0.19887907041E+02  0.00000000000E+00 0.  1.
</event>
<event>
 7    1  0.1283194E-013  0.7246154E+02  0.7816164E-02  0.1226708E+00
        -11   -1    0    0    0    0  0.00000000000E+00  0.00000000000E+00  0.45593999997E+02  0.45594000000E+02  0.51100000000E-03 0.  1.
         11   -1    0    0    0    0 -0.00000000000E+00 -0.00000000000E+00 -0.45593999997E+02  0.45594000000E+02  0.51100000000E-03 0. -1.
    9900012    2    1    2    0    0  0.11685392562E+02  0.96752435366E+01  0.10978237713E+02  0.72461536369E+02  0.69999955807E+02 0.  0.
         12    1    1    2    0    0 -0.11685392562E+02 -0.96752435366E+01 -0.10978237713E+02  0.18726463631E+02  0.00000000000E+00 0. -1.
         11    1    3    3    0    0 -0.41602759447E+01  0.14917975102E+02  0.12334353310E+01  0.15536255664E+02  0.51100000000E-03 0. -1.
        -11    1    3    3    0    0 -0.21506777839E+01 -0.19990048512E+02  0.22676616994E+02  0.30306045816E+02  0.51100000000E-03 0.  1.
        -12    1    3    3    0    0  0.17996346291E+02  0.14747316946E+02 -0.12931814612E+02  0.26619234889E+02  0.00000000000E+00 0.  1.
</event>
<event>
 7    1  0.1283194E-013  0.7246151E+02  0.7816164E-02  0.1226708E+00
        -11   -1    0    0    0    0  0.00000000000E+00  0.00000000000E+00  0.45593999997E+02  0.45594000000E+02  0.51100000000E-03 0.  1.
         11   -1    0    0    0    0 -0.00000000000E+00 -0.00000000000E+00 -0.45593999997E+02  0.45594000000E+02  0.51100000000E-03 0. -1.
    9900012    2    1    2    0    0  0.15573667880E+02 -0.99396361531E+01 -0.30571133851E+01  0.72461509663E+02  0.69999921016E+02 0.  0.
         12    1    1    2    0    0 -0.15573667880E+02  0.99396361531E+01  0.30571133851E+01  0.18726490337E+02  0.00000000000E+00 0. -1.
         11    1    3    3    0    0  0.16656637547E+02 -0.57597821896E+01 -0.23781856306E+02  0.29600597205E+02  0.51100000000E-03 0. -1.
        -11    1    3    3    0    0 -0.13982751617E+02 -0.14321895358E+02  0.16438782409E+02  0.25901111883E+02  0.51100000000E-03 0.  1.
         12    1    3    3    0    0  0.12899781950E+02  0.10142041395E+02  0.42859605125E+01  0.16959800575E+02  0.00000000000E+00 0. -1.
</event>
<event>
 7    1  0.1283194E-013  0.7246156E+02  0.7816164E-02  0.1226708E+00
        -11   -1    0    0    0    0  0.00000000000E+00  0.00000000000E+00  0.45593999997E+02  0.45594000000E+02  0.51100000000E-03 0. -1.
         11   -1    0    0    0    0 -0.00000000000E+00 -0.00000000000E+00 -0.45593999997E+02  0.45594000000E+02  0.51100000000E-03 0.  1.
    9900012    2    1    2    0    0  0.76852473388E+01 -0.84453810069E+01  0.14842237366E+02  0.72461561549E+02  0.69999988608E+02 0.  0.
         12    1    1    2    0    0 -0.76852473388E+01  0.84453810069E+01 -0.14842237366E+02  0.18726438451E+02  0.00000000000E+00 0. -1.
         11    1    3    3    0    0 -0.81371862896E+00  0.20529695619E+02  0.18323626435E+02  0.27529726228E+02  0.51100000000E-03 0. -1.
        -11    1    3    3    0    0  0.26543643970E+01 -0.73522331333E+01 -0.17041142708E+02  0.18748373995E+02  0.51100000000E-03 0.  1.
         12    1    3    3    0    0  0.58446015707E+01 -0.21622843492E+02  0.13559753640E+02  0.26183461326E+02  0.00000000000E+00 0. -1.
</event>
<event>
 7    1  0.1283194E-013  0.7246159E+02  0.7816164E-02  0.1226708E+00
        -11   -1    0    0    0    0  0.00000000000E+00  0.00000000000E+00  0.45593999997E+02  0.45594000000E+02  0.51100000000E-03 0. -1.
         11   -1    0    0    0    0 -0.00000000000E+00 -0.00000000000E+00 -0.45593999997E+02  0.45594000000E+02  0.51100000000E-03 0.  1.
    9900012    2    1    2    0    0 -0.55139845643E+01 -0.48247180456E+01 -0.17233591253E+02  0.72461585568E+02  0.70000019897E+02 0.  0.
         12    1    1    2    0    0  0.55139845643E+01  0.48247180456E+01  0.17233591253E+02  0.18726414432E+02  0.00000000000E+00 0. -1.
         11    1    3    3    0    0 -0.17125397704E+02 -0.22108077085E-01  0.23061558016E+01  0.17279991034E+02  0.51100000000E-03 0. -1.
        -11    1    3    3    0    0  0.20164384042E+02  0.15575308725E+02 -0.21021738190E+02  0.33031895230E+02  0.51100000000E-03 0.  1.
        -12    1    3    3    0    0 -0.85529709026E+01 -0.20377918694E+02  0.14819911347E+01  0.22149699305E+02  0.00000000000E+00 0.  1.
</event>
<event>
 7    1  0.1283194E-013  0.7246150E+02  0.7816164E-02  0.1226708E+00
        -11   -1    0    0    0    0  0.00000000000E+00  0.00000000000E+00  0.45593999997E+02  0.45594000000E+02  0.51100000000E-03 0.  1.
         11   -1    0    0    0    0 -0.00000000000E+00 -0.00000000000E+00 -0.45593999997E+02  0.45594000000E+02  0.51100000000E-03 0. -1.
    9900012    2    1    2    0    0 -0.32704333579E+01 -0.10309008729E+02  0.15287587919E+02  0.72461501670E+02  0.69999910604E+02 0.  0.
         12    1    1    2    0    0  0.32704333579E+01  0.10309008729E+02 -0.15287587919E+02  0.18726498330E+02  0.00000000000E+00 0. -1.
         11    1    3    3    0    0 -0.26836688802E+01 -0.12296498547E+02 -0.20447568298E+02  0.24010601923E+02  0.51100000000E-03 0. -1.
        -11    1    3    3    0    0  0.49565124854E+01 -0.38581263587E+01  0.39186513373E+02  0.39686710441E+02  0.51100000000E-03 0.  1.
         12    1    3    3    0    0 -0.55432769631E+01  0.58456161763E+01 -0.34513571558E+01  0.87641893058E+01  0.00000000000E+00 0. -1.
</event>
<event>
 7    1  0.1283194E-013  0.7246154E+02  0.7816164E-02  0.1226708E+00
        -11   -1    0    0    0    0  0.00000000000E+00  0.00000000000E+00  0.45593999997E+02  0.45594000000E+02  0.51100000000E-03 0.  1.
         11   -1    0    0    0    0 -0.00000000000E+00 -0.00000000000E+00 -0.45593999997E+02  0.45594000000E+02  0.51100000000E-03 0. -1.
    9900012    2    1    2    0    0 -0.12754398583E+02  0.29092256729E+00  0.13708434177E+02  0.72461535124E+02  0.69999954185E+02 0.  0.
         12    1    1    2    0    0  0.12754398583E+02 -0.29092256729E+00 -0.13708434177E+02  0.18726464876E+02  0.00000000000E+00 0. -1.
         11    1    3    3    0    0 -0.13758876562E+02 -0.66049563530E+01 -0.14098741592E+02  0.20777551526E+02  0.51100000000E-03 0. -1.
        -11    1    3    3    0    0  0.38402389992E+00  0.46904577283E+01  0.39494661920E+02  0.39774064269E+02  0.51100000000E-03 0.  1.
        -12    1    3    3    0    0  0.62045407922E+00  0.22054211920E+01 -0.11687486151E+02  0.11909919329E+02  0.00000000000E+00 0.  1.
</event>
<event>
 7    1  0.1283194E-013  0.7246152E+02  0.7816164E-02  0.1226708E+00
        -11   -1    0    0    0    0  0.00000000000E+00  0.00000000000E+00  0.45593999997E+02  0.45594000000E+02  0.51100000000E-03 0. -1.
         11   -1    0    0    0    0 -0.00000000000E+00 -0.00000000000E+00 -0.45593999997E+02  0.45594000000E+02  0.51100000000E-03 0.  1.
    9900012    2    1    2    0    0 -0.94081134890E+00 -0.51321844597E+01 -0.17984899553E+02  0.72461519945E+02  0.69999934411E+02 0.  0.
         12    1    1    2    0    0  0.94081134890E+00  0.51321844597E+01  0.17984899553E+02  0.18726480055E+02  0.00000000000E+00 0. -1.
         11    1    3    3    0    0 -0.15043461582E+01  0.25803354668E+00  0.49945662880E+01  0.52225789933E+01  0.51100000000E-03 0. -1.
        -11    1    3    3    0    0  0.68400107410E+01  0.24813312601E+02 -0.25570730987E+02  0.36281517507E+02  0.51100000000E-03 0.  1.
        -12    1    3    3    0    0 -0.62764759316E+01 -0.30203530607E+02  0.25912651465E+01  0.30957423444E+02  0.00000000000E+00 0.  1.
</event>
<event>
 7    1  0.1283194E-013  0.7246157E+02  0.7816164E-02  0.1226708E+00
        -11   -1    0    0    0    0  0.00000000000E+00  0.00000000000E+00  0.45593999997E+02  0.45594000000E+02  0.51100000000E-03 0. -1.
         11   -1    0    0    0    0 -0.00000000000E+00 -0.00000000000E+00 -0.45593999997E+02  0.45594000000E+02  0.51100000000E-03 0.  1.
    9900012    2    1    2    0    0 -0.16449285242E+02  0.81082941331E+00 -0.89130576558E+01  0.72461574124E+02  0.70000004989E+02 0.  0.
         12    1    1    2    0    0  0.16449285242E+02 -0.81082941331E+00  0.89130576558E+01  0.18726425876E+02  0.00000000000E+00 0. -1.
         11    1    3    3    0    0 -0.14797721779E+01 -0.19175272961E+02  0.11784922552E+02  0.22555824495E+02  0.51100000000E-03 0. -1.
        -11    1    3    3    0    0 -0.21879334555E+02  0.21527337590E+02 -0.29953547586E+01  0.30839969110E+02  0.51100000000E-03 0.  1.
        -12    1    3    3    0    0  0.69098214903E+01 -0.15412352160E+01 -0.17702625449E+02  0.19065780519E+02  0.00000000000E+00 0.  1.
</event>
<event>
 7    1  0.1283194E-013  0.7246157E+02  0.7816164E-02  0.1226708E+00
        -11   -1    0    0    0    0  0.00000000000E+00  0.00000000000E+00  0.45593999997E+02  0.45594000000E+02  0.51100000000E-03 0. -1.
         11   -1    0    0    0    0 -0.00000000000E+00 -0.00000000000E+00 -0.45593999997E+02  0.45594000000E+02  0.51100000000E-03 0.  1.
    9900012    2    1    2    0    0 -0.39328964495E+01  0.17912411927E+02 -0.37890861990E+01  0.72461565483E+02  0.69999993732E+02 0.  0.
         12    1    1    2    0    0  0.39328964495E+01 -0.17912411927E+02  0.37890861990E+01  0.18726434517E+02  0.00000000000E+00 0. -1.
         11    1    3    3    0    0  0.19093691619E+01 -0.54459899949E+01 -0.58627757882E+01  0.82265811748E+01  0.51100000000E-03 0. -1.
        -11    1    3    3    0    0 -0.24683999966E+02  0.15761372206E+02  0.21339630495E+02  0.36236729131E+02  0.51100000000E-03 0.  1.
        -12    1    3    3    0    0  0.18841734355E+02  0.75970297152E+01 -0.19265940905E+02  0.27998255177E+02  0.00000000000E+00 0.  1.
</event>
<event>
 7    1  0.1283194E-013  0.7246176E+02  0.7816164E-02  0.1226707E+00
        -11   -1    0    0    0    0  0.00000000000E+00  0.00000000000E+00  0.45593999997E+02  0.45594000000E+02  0.51100000000E-03 0. -1.
         11   -1    0    0    0    0 -0.00000000000E+00 -0.00000000000E+00 -0.45593999997E+02  0.45594000000E+02  0.51100000000E-03 0.  1.
    9900012    2    1    2    0    0  0.16588060425E+02  0.86845053141E+01  0.29588068018E+00  0.72461763683E+02  0.70000251924E+02 0.  0.
         12    1    1    2    0    0 -0.16588060425E+02 -0.86845053141E+01 -0.29588068018E+00  0.18726236317E+02  0.00000000000E+00 0. -1.
         11    1    3    3    0    0  0.85075203402E+01  0.10152233330E+02  0.10157574958E+02  0.16691976313E+02  0.51100000000E-03 0. -1.
        -11    1    3    3    0    0  0.87559596365E+01 -0.12286532208E+02 -0.29615591724E+02  0.33237162578E+02  0.51100000000E-03 0.  1.
        -12    1    3    3    0    0 -0.67541955139E+00  0.10818804192E+02  0.19753897446E+02  0.22532624792E+02  0.00000000000E+00 0.  1.
</event>
<event>
 8    1  0.1283194E-013  0.7246156E+02  0.7816164E-02  0.1226708E+00
        -11   -1    0    0    0    0  0.00000000000E+00  0.00000000000E+00  0.45593999997E+02  0.45594000000E+02  0.51100000000E-03 0.  1.
         11   -1    0    0    0    0 -0.00000000000E+00 -0.00000000000E+00 -0.45593999997E+02  0.45594000000E+02  0.51100000000E-03 0. -1.
    9900012    2    1    2    0    0  0.17869614019E+02  0.42588032302E+01  0.36358011842E+01  0.72461559858E+02  0.69999986405E+02 0.  0.
        -24    2    3    3    0    0  0.20466514503E+02  0.85955960467E+01 -0.85979631876E+01  0.59224617046E+02  0.54229768633E+02 0.  0.
         12    1    1    2    0    0 -0.17869614019E+02 -0.42588032302E+01 -0.36358011842E+01  0.18726440142E+02  0.00000000000E+00 0. -1.
         11    1    4    4    0    0  0.27111560288E+02  0.24856083048E+02 -0.16066194672E+02  0.40137067373E+02  0.51100000000E-03 0.  1.
        -11    1    3    3    0    0 -0.25969004840E+01 -0.43367928165E+01  0.12233764372E+02  0.13236942813E+02  0.51100000000E-03 0. -1.
        -12    1    4    4    0    0 -0.66450457855E+01 -0.16260487002E+02  0.74682314845E+01  0.19087549673E+02  0.00000000000E+00 0.  1.
</event>
<event>
 7    1  0.1283194E-013  0.7246156E+02  0.7816164E-02  0.1226708E+00
        -11   -1    0    0    0    0  0.00000000000E+00  0.00000000000E+00  0.45593999997E+02  0.45594000000E+02  0.51100000000E-03 0.  1.
         11   -1    0    0    0    0 -0.00000000000E+00 -0.00000000000E+00 -0.45593999997E+02  0.45594000000E+02  0.51100000000E-03 0. -1.
    9900012    2    1    2    0    0 -0.68854071593E+01  0.67003461392E+01  0.16074082748E+02  0.72461558631E+02  0.69999984807E+02 0.  0.
         12    1    1    2    0    0  0.68854071593E+01 -0.67003461392E+01 -0.16074082748E+02  0.18726441369E+02  0.00000000000E+00 0. -1.
         11    1    3    3    0    0  0.58148966695E+01  0.13970677562E+02 -0.51527645953E+01  0.15985738584E+02  0.51100000000E-03 0. -1.
        -11    1    3    3    0    0  0.20229493013E+00 -0.96421555792E+01  0.35677801905E+02  0.36958322967E+02  0.51100000000E-03 0.  1.
        -12    1    3    3    0    0 -0.12902598759E+02  0.23718241560E+01 -0.14450954562E+02  0.19517497081E+02  0.00000000000E+00 0.  1.
</event>
<event>
 7    1  0.1283194E-013  0.7246156E+02  0.7816164E-02  0.1226708E+00
        -11   -1    0    0    0    0  0.00000000000E+00  0.00000000000E+00  0.45593999997E+02  0.45594000000E+02  0.51100000000E-03 0.  1.
         11   -1    0    0    0    0 -0.00000000000E+00 -0.00000000000E+00 -0.45593999997E+02  0.45594000000E+02  0.51100000000E-03 0. -1.
    9900012    2    1    2    0    0  0.10621235635E+01  0.14340834759E+02  0.11995496832E+02  0.72461559007E+02  0.69999985296E+02 0.  0.
         12    1    1    2    0    0 -0.10621235635E+01 -0.14340834759E+02 -0.11995496832E+02  0.18726440993E+02  0.00000000000E+00 0. -1.
         11    1    3    3    0    0  0.11035562538E+02 -0.69315832306E+01 -0.15902567783E+02  0.20560207902E+02  0.51100000000E-03 0. -1.
        -11    1    3    3    0    0 -0.12239521401E+02 -0.42550666324E+01  0.22110926236E+02  0.25628198053E+02  0.51100000000E-03 0.  1.
         12    1    3    3    0    0  0.22660824268E+01  0.25527484622E+02  0.57871383786E+01  0.26273153052E+02  0.00000000000E+00 0. -1.
</event>
<event>
 7    1  0.1283194E-013  0.7246184E+02  0.7816164E-02  0.1226707E+00
        -11   -1    0    0    0    0  0.00000000000E+00  0.00000000000E+00  0.45593999997E+02  0.45594000000E+02  0.51100000000E-03 0.  1.
         11   -1    0    0    0    0 -0.00000000000E+00 -0.00000000000E+00 -0.45593999997E+02  0.45594000000E+02  0.51100000000E-03 0. -1.
    9900012    2    1    2    0    0  0.14593631438E+02 -0.71180028672E+01  0.93289440802E+01  0.72461835390E+02  0.70000345335E+02 0.  0.
         12    1    1    2    0    0 -0.14593631438E+02  0.71180028672E+01 -0.93289440802E+01  0.18726164610E+02  0.00000000000E+00 0. -1.
         11    1    3    3    0    0 -0.10598736750E+01 -0.65460003278E+01  0.11260800740E+02  0.13068247245E+02  0.51100000000E-03 0. -1.
        -11    1    3    3    0    0  0.36156359253E+02 -0.75770757470E+01 -0.57702120595E+01  0.37389700972E+02  0.51100000000E-03 0.  1.
        -12    1    3    3    0    0 -0.20502854140E+02  0.70050732076E+01  0.38383553998E+01  0.22003887173E+02  0.00000000000E+00 0.  1.
</event>
<event>
 7    1  0.1283194E-013  0.7246190E+02  0.7816164E-02  0.1226707E+00
        -11   -1    0    0    0    0  0.00000000000E+00  0.00000000000E+00  0.45593999997E+02  0.45594000000E+02  0.51100000000E-03 0. -1.
         11   -1    0    0    0    0 -0.00000000000E+00 -0.00000000000E+00 -0.45593999997E+02  0.45594000000E+02  0.51100000000E-03 0.  1.
    9900012    2    1    2    0    0 -0.10578021257E+02  0.51219771031E+01 -0.14578672652E+02  0.72461898444E+02  0.70000427475E+02 0.  0.
         12    1    1    2    0    0  0.10578021257E+02 -0.51219771031E+01  0.14578672652E+02  0.18726101556E+02  0.00000000000E+00 0. -1.
         11    1    3    3    0    0 -0.15519241045E+02 -0.99274764724E+00  0.97073280760E+01  0.18332065054E+02  0.51100000000E-03 0. -1.
        -11    1    3    3    0    0  0.18121069445E+02 -0.86687400343E+01 -0.27510136642E+02  0.34063585101E+02  0.51100000000E-03 0.  1.
        -12    1    3    3    0    0 -0.13179849657E+02  0.14783464785E+02  0.32241359140E+01  0.20066248290E+02  0.00000000000E+00 0.  1.
</event>
<event>
 7    1  0.1283194E-013  0.7246156E+02  0.7816164E-02  0.1226708E+00
        -11   -1    0    0    0    0  0.00000000000E+00  0.00000000000E+00  0.45593999997E+02  0.45594000000E+02  0.51100000000E-03 0. -1.
         11   -1    0    0    0    0 -0.00000000000E+00 -0.00000000000E+00 -0.45593999997E+02  0.45594000000E+02  0.51100000000E-03 0.  1.
    9900012    2    1    2    0    0 -0.14128554830E+01  0.15801267401E+02 -0.99500405241E+01  0.72461560976E+02  0.69999987861E+02 0.  0.
         12    1    1    2    0    0  0.14128554830E+01 -0.15801267401E+02  0.99500405241E+01  0.18726439024E+02  0.00000000000E+00 0. -1.
         11    1    3    3    0    0  0.17200147126E+01  0.22250214820E+02  0.14631997895E+02  0.26685686665E+02  0.51100000000E-03 0. -1.
        -11    1    3    3    0    0 -0.36157092664E+01 -0.22378046885E+02 -0.13900593136E+02  0.26590916225E+02  0.51100000000E-03 0.  1.
         12    1    3    3    0    0  0.48283907084E+00  0.15929099467E+02 -0.10681445284E+02  0.19184958086E+02  0.00000000000E+00 0. -1.
</event>
<event>
 7    1  0.1283194E-013  0.7246150E+02  0.7816164E-02  0.1226708E+00
        -11   -1    0    0    0    0  0.00000000000E+00  0.00000000000E+00  0.45593999997E+02  0.45594000000E+02  0.51100000000E-03 0. -1.
         11   -1    0    0    0    0 -0.00000000000E+00 -0.00000000000E+00 -0.45593999997E+02  0.45594000000E+02  0.51100000000E-03 0.  1.
    9900012    2    1    2    0    0 -0.17818870941E+02 -0.53122472249E+01 -0.22248259103E+01  0.72461495187E+02  0.69999902158E+02 0.  0.
         12    1    1    2    0    0  0.17818870941E+02  0.53122472249E+01  0.22248259103E+01  0.18726504813E+02  0.00000000000E+00 0. -1.
         11    1    3    3    0    0 -0.20136810721E+02 -0.96005011543E+00 -0.22043382276E+02  0.29871785093E+02  0.51100000000E-03 0.  1.
        -11    1    3    3    0    0  0.65746209732E+01 -0.21770201122E+01  0.30293760573E+02  0.31075343722E+02  0.51100000000E-03 0. -1.
         12    1    3    3    0    0 -0.42566811935E+01 -0.21751769973E+01 -0.10475204208E+02  0.11514366372E+02  0.00000000000E+00 0. -1.
</event>
<event>
 7    1  0.1283194E-013  0.7246161E+02  0.7816164E-02  0.1226708E+00
        -11   -1    0    0    0    0  0.00000000000E+00  0.00000000000E+00  0.45593999997E+02  0.45594000000E+02  0.51100000000E-03 0.  1.
         11   -1    0    0    0    0 -0.00000000000E+00 -0.00000000000E+00 -0.45593999997E+02  0.45594000000E+02  0.51100000000E-03 0. -1.
    9900012    2    1    2    0    0 -0.32071389939E+01  0.62520270340E+01  0.17358112004E+02  0.72461611269E+02  0.70000053377E+02 0.  0.
         12    1    1    2    0    0  0.32071389939E+01 -0.62520270340E+01 -0.17358112004E+02  0.18726388731E+02  0.00000000000E+00 0. -1.
         11    1    3    3    0    0 -0.72283768260E+01  0.15748382488E+02 -0.20385732724E+02  0.26755169248E+02  0.51100000000E-03 0. -1.
        -11    1    3    3    0    0  0.10480365750E+01 -0.15981889337E+02  0.34146903306E+02  0.37716444333E+02  0.51100000000E-03 0.  1.
         12    1    3    3    0    0  0.29732012572E+01  0.64855338830E+01  0.35969414224E+01  0.79899976883E+01  0.00000000000E+00 0. -1.
</event>
<event>
 7    1  0.1283194E-013  0.7246140E+02  0.7816164E-02  0.1226708E+00
        -11   -1    0    0    0    0  0.00000000000E+00  0.00000000000E+00  0.45593999997E+02  0.45594000000E+02  0.51100000000E-03 0. -1.
         11   -1    0    0    0    0 -0.00000000000E+00 -0.00000000000E+00 -0.45593999997E+02  0.45594000000E+02  0.51100000000E-03 0.  1.
    9900012    2    1    2    0    0 -0.29801464967E+01  0.15490984226E+02  0.10091262254E+02  0.72461402891E+02  0.69999781925E+02 0.  0.
         12    1    1    2    0    0  0.29801464967E+01 -0.15490984226E+02 -0.10091262254E+02  0.18726597109E+02  0.00000000000E+00 0. -1.
         11    1    3    3    0    0 -0.24903331877E+02  0.33596353242E+01  0.77834704306E+01  0.26306757693E+02  0.51100000000E-03 0. -1.
        -11    1    3    3    0    0  0.18610366502E+02  0.18603348672E+02 -0.12894233529E+02  0.29303439759E+02  0.51100000000E-03 0.  1.
         12    1    3    3    0    0  0.33128188783E+01 -0.64719997701E+01  0.15202025351E+02  0.16851205439E+02  0.00000000000E+00 0. -1.
</event>
<event>
 7    1  0.1283194E-013  0.7246162E+02  0.7816164E-02  0.1226708E+00
        -11   -1    0    0    0    0  0.00000000000E+00  0.00000000000E+00  0.45593999997E+02  0.45594000000E+02  0.51100000000E-03 0.  1.
         11   -1    0    0    0    0 -0.00000000000E+00 -0.00000000000E+00 -0.45593999997E+02  0.45594000000E+02  0.51100000000E-03 0. -1.
    9900012    2    1    2    0    0  0.80260404612E+00 -0.10136949459E+02  0.15724991049E+02  0.72461621251E+02  0.70000066380E+02 0.  0.
         12    1    1    2    0    0 -0.80260404612E+00  0.10136949459E+02 -0.15724991049E+02  0.18726378749E+02  0.00000000000E+00 0. -1.
         11    1    3    3    0    0  0.75661583374E+01  0.15179655211E+02 -0.10655153712E+01  0.16994234539E+02  0.51100000000E-03 0. -1.
        -11    1    3    3    0    0 -0.17351645009E+02  0.49639166556E+01  0.14777759972E+02  0.23325999295E+02  0.51100000000E-03 0.  1.
         12    1    3    3    0    0  0.10588090718E+02 -0.30280521325E+02  0.20127464478E+01  0.32141387416E+02  0.00000000000E+00 0. -1.
</event>
<event>
 7    1  0.1283194E-013  0.7246156E+02  0.7816164E-02  0.1226708E+00
        -11   -1    0    0    0    0  0.00000000000E+00  0.00000000000E+00  0.45593999997E+02  0.45594000000E+02  0.51100000000E-03 0.  1.
         11   -1    0    0    0    0 -0.00000000000E+00 -0.00000000000E+00 -0.45593999997E+02  0.45594000000E+02  0.51100000000E-03 0. -1.
    9900012    2    1    2    0    0  0.18166290340E+02  0.12542997574E+01  0.43694684631E+01  0.72461558073E+02  0.69999984079E+02 0.  0.
         12    1    1    2    0    0 -0.18166290340E+02 -0.12542997574E+01 -0.43694684631E+01  0.18726441927E+02  0.00000000000E+00 0. -1.
         11    1    3    3    0    0 -0.48065247157E+01  0.27977255299E+02 -0.96483337759E+01  0.29981991909E+02  0.51100000000E-03 0. -1.
        -11    1    3    3    0    0  0.12053668343E+02 -0.95720280589E+00  0.49142516171E+01  0.13052088988E+02  0.51100000000E-03 0.  1.
         12    1    3    3    0    0  0.10919146713E+02 -0.25765752736E+02  0.91035506220E+01  0.29427477175E+02  0.00000000000E+00 0. -1.
</event>
<event>
 7    1  0.1283194E-013  0.7246146E+02  0.7816164E-02  0.1226708E+00
        -11   -1    0    0    0    0  0.00000000000E+00  0.00000000000E+00  0.45593999997E+02  0.45594000000E+02  0.51100000000E-03 0.  1.
         11   -1    0    0    0    0 -0.00000000000E+00 -0.00000000000E+00 -0.45593999997E+02  0.45594000000E+02  0.51100000000E-03 0. -1.
    9900012    2    1    2    0    0  0.10242597673E+02  0.52225290375E+01  0.14781668284E+02  0.72461459104E+02  0.69999855154E+02 0.  0.
         12    1    1    2    0    0 -0.10242597673E+02 -0.52225290375E+01 -0.14781668284E+02  0.18726540896E+02  0.00000000000E+00 0. -1.
         11    1    3    3    0    0  0.11523370314E+02  0.78261586382E+00  0.10781105560E+02  0.15799771781E+02  0.51100000000E-03 0. -1.
        -11    1    3    3    0    0 -0.23054138480E+02 -0.14842148071E+02  0.12335804859E+01  0.27446391047E+02  0.51100000000E-03 0.  1.
        -12    1    3    3    0    0  0.21773365839E+02  0.19282061244E+02  0.27669822385E+01  0.29215296276E+02  0.00000000000E+00 0.  1.
</event>
<event>
 7    1  0.1283194E-013  0.7246196E+02  0.7816164E-02  0.1226707E+00
        -11   -1    0    0    0    0  0.00000000000E+00  0.00000000000E+00  0.45593999997E+02  0.45594000000E+02  0.51100000000E-03 0.  1.
         11   -1    0    0    0    0 -0.00000000000E+00 -0.00000000000E+00 -0.45593999997E+02  0.45594000000E+02  0.51100000000E-03 0. -1.
    9900012    2    1    2    0    0  0.17831402190E+02  0.55705989676E+01 -0.12939322492E+01  0.72461955634E+02  0.70000501975E+02 0.  0.
         12    1    1    2    0    0 -0.17831402190E+02 -0.55705989676E+01  0.12939322492E+01  0.18726044366E+02  0.00000000000E+00 0. -1.
         11    1    3    3    0    0  0.25543679600E+01 -0.60364264547E+01  0.21605389354E+02  0.22577778665E+02  0.51100000000E-03 0.  1.
        -11    1    3    3    0    0  0.19409662835E+02  0.12766849477E+01 -0.30666278987E+02  0.36315087815E+02  0.51100000000E-03 0. -1.
         12    1    3    3    0    0 -0.41326286051E+01  0.10330340475E+02  0.77669573834E+01  0.13569089155E+02  0.00000000000E+00 0. -1.
</event>
<event>
 7    1  0.1283194E-013  0.7246155E+02  0.7816164E-02  0.1226708E+00
        -11   -1    0    0    0    0  0.00000000000E+00  0.00000000000E+00  0.45593999997E+02  0.45594000000E+02  0.51100000000E-03 0.  1.
         11   -1    0    0    0    0 -0.00000000000E+00 -0.00000000000E+00 -0.45593999997E+02  0.45594000000E+02  0.51100000000E-03 0. -1.
    9900012    2    1    2    0    0  0.98907974066E+01  0.69525192096E+01  0.14300851437E+02  0.72461554835E+02  0.69999979861E+02 0.  0.
         12    1    1    2    0    0 -0.98907974066E+01 -0.69525192096E+01 -0.14300851437E+02  0.18726445165E+02  0.00000000000E+00 0. -1.
         11    1    3    3    0    0 -0.22269130072E+02 -0.11702571912E+02 -0.47824041882E+01  0.25607337496E+02  0.51100000000E-03 0. -1.
        -11    1    3    3    0    0  0.15606474708E+02 -0.25567511687E+01  0.57705475782E+01  0.16834436401E+02  0.51100000000E-03 0.  1.
         12    1    3    3    0    0  0.16553452771E+02  0.21211842291E+02  0.13312708047E+02  0.30019780938E+02  0.00000000000E+00 0. -1.
</event>
<event>
 7    1  0.1283194E-013  0.7246160E+02  0.7816164E-02  0.1226708E+00
        -11   -1    0    0    0    0  0.00000000000E+00  0.00000000000E+00  0.45593999997E+02  0.45594000000E+02  0.51100000000E-03 0.  1.
         11   -1    0    0    0    0 -0.00000000000E+00 -0.00000000000E+00 -0.45593999997E+02  0.45594000000E+02  0.51100000000E-03 0. -1.
    9900012    2    1    2    0    0  0.17224012945E+02  0.68835886084E+01 -0.25744544355E+01  0.72461595388E+02  0.70000032689E+02 0.  0.
         12    1    1    2    0    0 -0.17224012945E+02 -0.68835886084E+01  0.25744544355E+01  0.18726404612E+02  0.00000000000E+00 0. -1.
         11    1    3    3    0    0  0.23182589533E+00 -0.10054294981E+02 -0.32220477482E+02  0.33753544410E+02  0.51100000000E-03 0. -1.
        -11    1    3    3    0    0 -0.51562908813E+00  0.92838426864E+00  0.65663510955E+00  0.12485754423E+01  0.51100000000E-03 0.  1.
         12    1    3    3    0    0  0.17507816138E+02  0.16009499321E+02  0.28989387937E+02  0.37459475535E+02  0.00000000000E+00 0. -1.
</event>
<event>
 7    1  0.1283194E-013  0.7246153E+02  0.7816164E-02  0.1226708E+00
        -11   -1    0    0    0    0  0.00000000000E+00  0.00000000000E+00  0.45593999997E+02  0.45594000000E+02  0.51100000000E-03 0. -1.
         11   -1    0    0    0    0 -0.00000000000E+00 -0.00000000000E+00 -0.45593999997E+02  0.45594000000E+02  0.51100000000E-03 0.  1.
    9900012    2    1    2    0    0 -0.17380091552E+02  0.67573594648E+01  0.17179156063E+01  0.72461528808E+02  0.69999945956E+02 0.  0.
         12    1    1    2    0    0  0.17380091552E+02 -0.67573594648E+01 -0.17179156063E+01  0.18726471192E+02  0.00000000000E+00 0. -1.
         11    1    3    3    0    0 -0.90890940879E+01  0.36742677332E+01  0.19603580620E+02  0.21918308514E+02  0.51100000000E-03 0. -1.
        -11    1    3    3    0    0 -0.94553596282E+01 -0.21037464659E+02 -0.10005438271E+02  0.25141351202E+02  0.51100000000E-03 0.  1.
        -12    1    3    3    0    0  0.11643621645E+01  0.24120556391E+02 -0.78802267424E+01  0.25401869092E+02  0.00000000000E+00 0.  1.
</event>
<event>
 7    1  0.1283194E-013  0.7246157E+02  0.7816164E-02  0.1226708E+00
        -11   -1    0    0    0    0  0.00000000000E+00  0.00000000000E+00  0.45593999997E+02  0.45594000000E+02  0.51100000000E-03 0.  1.
         11   -1    0    0    0    0 -0.00000000000E+00 -0.00000000000E+00 -0.45593999997E+02  0.45594000000E+02  0.51100000000E-03 0. -1.
    9900012    2    1    2    0    0 -0.15608836669E+01  0.11244576834E+02  0.14893033373E+02  0.72461566569E+02  0.69999995148E+02 0.  0.
         12    1    1    2    0    0  0.15608836669E+01 -0.11244576834E+02 -0.14893033373E+02  0.18726433431E+02  0.00000000000E+00 0. -1.
         11    1    3    3    0    0 -0.18409567742E+02  0.17267794749E+01 -0.19084724103E+02  0.26572930703E+02  0.51100000000E-03 0. -1.
        -11    1    3    3    0    0  0.65025804384E+01  0.13763053480E+02  0.71382824342E+01  0.16812503378E+02  0.51100000000E-03 0.  1.
         12    1    3    3    0    0  0.10346103637E+02 -0.42452561210E+01  0.26839475041E+02  0.29076132489E+02  0.00000000000E+00 0. -1.
</event>
<event>
 7    1  0.1283194E-013  0.7246156E+02  0.7816164E-02  0.1226708E+00
        -11   -1    0    0    0    0  0.00000000000E+00  0.00000000000E+00  0.45593999997E+02  0.45594000000E+02  0.51100000000E-03 0. -1.
         11   -1    0    0    0    0 -0.00000000000E+00 -0.00000000000E+00 -0.45593999997E+02  0.45594000000E+02  0.51100000000E-03 0.  1.
    9900012    2    1    2    0    0  0.48190248018E+01  0.93158673478E+01 -0.15513576104E+02  0.72461563392E+02  0.69999991009E+02 0.  0.
         12    1    1    2    0    0 -0.48190248018E+01 -0.93158673478E+01  0.15513576104E+02  0.18726436608E+02  0.00000000000E+00 0. -1.
         11    1    3    3    0    0 -0.13917939711E+02 -0.67342989844E+01 -0.24677678640E+02  0.29121257733E+02  0.51100000000E-03 0.  1.
        -11    1    3    3    0    0  0.15041527887E+02  0.26185158492E+02  0.17461123062E+01  0.30248289123E+02  0.51100000000E-03 0. -1.
        -12    1    3    3    0    0  0.36954366260E+01 -0.10134992160E+02  0.74179902298E+01  0.13092016536E+02  0.00000000000E+00 0.  1.
</event>
<event>
 7    1  0.1283194E-013  0.7246160E+02  0.7816164E-02  0.1226708E+00
        -11   -1    0    0    0    0  0.00000000000E+00  0.00000000000E+00  0.45593999997E+02  0.45594000000E+02  0.51100000000E-03 0.  1.
         11   -1    0    0    0    0 -0.00000000000E+00 -0.00000000000E+00 -0.45593999997E+02  0.45594000000E+02  0.51100000000E-03 0. -1.
    9900012    2    1    2    0    0  0.72198534904E+01 -0.16787608658E+02 -0.40899634986E+01  0.72461604450E+02  0.70000044494E+02 0.  0.
         12    1    1    2    0    0 -0.72198534904E+01  0.16787608658E+02  0.40899634986E+01  0.18726395550E+02  0.00000000000E+00 0. -1.
         11    1    3    3    0    0  0.29291530663E+02  0.14829001157E+01 -0.57759069119E+01  0.29892371306E+02  0.51100000000E-03 0. -1.
        -11    1    3    3    0    0 -0.12711603238E+01 -0.70065150111E+01  0.14143390389E+02  0.15834853745E+02  0.51100000000E-03 0.  1.
         12    1    3    3    0    0 -0.20800516849E+02 -0.11263993763E+02 -0.12457446976E+02  0.26734379399E+02  0.00000000000E+00 0. -1.
</event>
<event>
 7    1  0.1283194E-013  0.7246186E+02  0.7816164E-02  0.1226707E+00
        -11   -1    0    0    0    0  0.00000000000E+00  0.00000000000E+00  0.45593999997E+02  0.45594000000E+02  0.51100000000E-03 0. -1.
         11   -1    0    0    0    0 -0.00000000000E+00 -0.00000000000E+00 -0.45593999997E+02  0.45594000000E+02  0.51100000000E-03 0.  1.
    9900012    2    1    2    0    0 -0.22143982432E+00 -0.84680034102E+00 -0.18705670656E+02  0.72461862622E+02  0.70000380810E+02 0.  0.
         12    1    1    2    0    0  0.22143982432E+00  0.84680034102E+00  0.18705670656E+02  0.18726137378E+02  0.00000000000E+00 0. -1.
         11    1    3    3    0    0  0.11148059485E+01 -0.10614249455E+02 -0.65094191199E+00  0.10692465078E+02  0.51100000000E-03 0. -1.
        -11    1    3    3    0    0  0.18488974719E+02  0.35611046508E+01 -0.31731619951E+02  0.36897416677E+02  0.51100000000E-03 0.  1.
        -12    1    3    3    0    0 -0.19825220492E+02  0.62063444635E+01  0.13676891207E+02  0.24871980867E+02  0.00000000000E+00 0.  1.
</event>
<event>
 7    1  0.1283194E-013  0.7246156E+02  0.7816164E-02  0.1226708E+00
        -11   -1    0    0    0    0  0.00000000000E+00  0.00000000000E+00  0.45593999997E+02  0.45594000000E+02  0.51100000000E-03 0. -1.
         11   -1    0    0    0    0 -0.00000000000E+00 -0.00000000000E+00 -0.45593999997E+02  0.45594000000E+02  0.51100000000E-03 0.  1.
    9900012    2    1    2    0    0 -0.18707939780E+02  0.50430912060E+00  0.66211138183E+00  0.72461555330E+02  0.69999980506E+02 0.  0.
         12    1    1    2    0    0  0.18707939780E+02 -0.50430912060E+00 -0.66211138183E+00  0.18726444670E+02  0.00000000000E+00 0. -1.
         11    1    3    3    0    0 -0.24793311410E+02 -0.20878072674E+01  0.17409040964E+02  0.30366790041E+02  0.51100000000E-03 0. -1.
        -11    1    3    3    0    0  0.13347976626E+02 -0.13962328075E+02 -0.13892771271E+02  0.23793364183E+02  0.51100000000E-03 0.  1.
         12    1    3    3    0    0 -0.72626049960E+01  0.16554444463E+02 -0.28541583114E+01  0.18301401107E+02  0.00000000000E+00 0. -1.
</event>
<event>
 7    1  0.1283194E-013  0.7246153E+02  0.7816164E-02  0.1226708E+00
        -11   -1    0    0    0    0  0.00000000000E+00  0.00000000000E+00  0.45593999997E+02  0.45594000000E+02  0.51100000000E-03 0. -1.
         11   -1    0    0    0    0 -0.00000000000E+00 -0.00000000000E+00 -0.45593999997E+02  0.45594000000E+02  0.51100000000E-03 0.  1.
    9900012    2    1    2    0    0 -0.27204177558E+01  0.15978004228E+02 -0.93799400803E+01  0.72461532960E+02  0.69999951365E+02 0.  0.
         12    1    1    2    0    0  0.27204177558E+01 -0.15978004228E+02  0.93799400803E+01  0.18726467040E+02  0.00000000000E+00 0. -1.
         11    1    3    3    0    0  0.17247945834E+02  0.86146295255E+01  0.15985044094E+02  0.25044462707E+02  0.51100000000E-03 0. -1.
        -11    1    3    3    0    0 -0.23120548854E+02  0.17248204601E+02 -0.14116875724E+02  0.32114584253E+02  0.51100000000E-03 0.  1.
        -12    1    3    3    0    0  0.31521852648E+01 -0.98848298983E+01 -0.11248108450E+02  0.15302486000E+02  0.00000000000E+00 0.  1.
</event>
<event>
 7    1  0.1283194E-013  0.7246158E+02  0.7816164E-02  0.1226708E+00
        -11   -1    0    0    0    0  0.00000000000E+00  0.00000000000E+00  0.45593999997E+02  0.45594000000E+02  0.51100000000E-03 0. -1.
         11   -1    0    0    0    0 -0.00000000000E+00 -0.00000000000E+00 -0.45593999997E+02  0.45594000000E+02  0.51100000000E-03 0.  1.
    9900012    2    1    2    0    0 -0.36600511535E+01 -0.23525949618E+00 -0.18363753637E+02  0.72461580985E+02  0.70000013927E+02 0.  0.
         12    1    1    2    0    0  0.36600511535E+01  0.23525949618E+00  0.18363753637E+02  0.18726419015E+02  0.00000000000E+00 0. -1.
         11    1    3    3    0    0 -0.21557236570E+02 -0.20044246761E+02 -0.84723043522E+01  0.30631131518E+02  0.51100000000E-03 0. -1.
        -11    1    3    3    0    0 -0.10178118973E+01  0.12042884285E+02 -0.16400110656E+02  0.20372300625E+02  0.51100000000E-03 0.  1.
         12    1    3    3    0    0  0.18914997314E+02  0.77661029802E+01  0.65086613711E+01  0.21458148842E+02  0.00000000000E+00 0. -1.
</event>
<event>
 7    1  0.1283194E-013  0.7246162E+02  0.7816164E-02  0.1226708E+00
        -11   -1    0    0    0    0  0.00000000000E+00  0.00000000000E+00  0.45593999997E+02  0.45594000000E+02  0.51100000000E-03 0.  1.
         11   -1    0    0    0    0 -0.00000000000E+00 -0.00000000000E+00 -0.45593999997E+02  0.45594000000E+02  0.51100000000E-03 0. -1.
    9900012    2    1    2    0    0  0.24798907667E+00 -0.16307267273E+02  0.92026451884E+01  0.72461624404E+02  0.70000070488E+02 0.  0.
         12    1    1    2    0    0 -0.24798907667E+00  0.16307267273E+02 -0.92026451884E+01  0.18726375596E+02  0.00000000000E+00 0. -1.
         11    1    3    3    0    0 -0.44329486098E+01  0.65969247674E+01 -0.10503095660E+02  0.13171388252E+02  0.51100000000E-03 0. -1.
        -11    1    3    3    0    0 -0.11486271195E+02 -0.25784047405E+02  0.28959988054E+02  0.40440480152E+02  0.51100000000E-03 0.  1.
        -12    1    3    3    0    0  0.16167208882E+02  0.28798553643E+01 -0.92542472055E+01  0.18849756001E+02  0.00000000000E+00 0.  1.
</event>
<event>
 7    1  0.1283194E-013  0.7246163E+02  0.7816164E-02  0.1226708E+00
        -11   -1    0    0    0    0  0.00000000000E+00  0.00000000000E+00  0.45593999997E+02  0.45594000000E+02  0.51100000000E-03 0. -1.
         11   -1    0    0    0    0 -0.00000000000E+00 -0.00000000000E+00 -0.45593999997E+02  0.45594000000E+02  0.51100000000E-03 0.  1.
    9900012    2    1    2    0    0  0.40511843546E+01  0.17844439711E+02 -0.39800657552E+01  0.72461626974E+02  0.70000073836E+02 0.  0.
         12    1    1    2    0    0 -0.40511843546E+01 -0.17844439711E+02  0.39800657552E+01  0.18726373026E+02  0.00000000000E+00 0. -1.
         11    1    3    3    0    0  0.23579929563E+02 -0.14110868624E+02  0.87653036097E+01  0.28843720966E+02  0.51100000000E-03 0. -1.
        -11    1    3    3    0    0 -0.17649510819E+01  0.16456994417E+02 -0.11216681993E+02  0.19994040931E+02  0.51100000000E-03 0.  1.
         12    1    3    3    0    0 -0.17763794127E+02  0.15498313919E+02 -0.15286873716E+01  0.23623865077E+02  0.00000000000E+00 0. -1.
</event>
<event>
 7    1  0.1283194E-013  0.7246157E+02  0.7816164E-02  0.1226708E+00
        -11   -1    0    0    0    0  0.00000000000E+00  0.00000000000E+00  0.45593999997E+02  0.45594000000E+02  0.51100000000E-03 0.  1.
         11   -1    0    0    0    0 -0.00000000000E+00 -0.00000000000E+00 -0.45593999997E+02  0.45594000000E+02  0.51100000000E-03 0. -1.
    9900012    2    1    2    0    0 -0.47120170263E+01 -0.16167137827E+02  0.81914450193E+01  0.72461568907E+02  0.69999998193E+02 0.  0.
         12    1    1    2    0    0  0.47120170263E+01  0.16167137827E+02 -0.81914450193E+01  0.18726431093E+02  0.00000000000E+00 0. -1.
         11    1    3    3    0    0 -0.19457834137E+02  0.58027307287E+01 -0.13877169379E+02  0.24593796442E+02  0.51100000000E-03 0. -1.
        -11    1    3    3    0    0  0.18181364982E+02 -0.10435475541E+02  0.27570073642E+02  0.34634811148E+02  0.51100000000E-03 0.  1.
         12    1    3    3    0    0 -0.34355478718E+01 -0.11534393015E+02 -0.55014592431E+01  0.13232961317E+02  0.00000000000E+00 0. -1.
</event>
<event>
 7    1  0.1283194E-013  0.7246166E+02  0.7816164E-02  0.1226708E+00
        -11   -1    0    0    0    0  0.00000000000E+00  0.00000000000E+00  0.45593999997E+02  0.45594000000E+02  0.51100000000E-03 0.  1.
         11   -1    0    0    0    0 -0.00000000000E+00 -0.00000000000E+00 -0.45593999997E+02  0.45594000000E+02  0.51100000000E-03 0. -1.
    9900012    2    1    2    0    0  0.54750827313E+01 -0.17324202999E+02  0.45355752975E+01  0.72461655355E+02  0.70000110808E+02 0.  0.
         12    1    1    2    0    0 -0.54750827313E+01  0.17324202999E+02 -0.45355752975E+01  0.18726344645E+02  0.00000000000E+00 0. -1.
         11    1    3    3    0    0 -0.56730749894E+01  0.19170015684E+02  0.80837502963E+01  0.21564329349E+02  0.51100000000E-03 0. -1.
        -11    1    3    3    0    0  0.12140772368E+02 -0.20347604015E+02  0.13602269784E+02  0.27321147237E+02  0.51100000000E-03 0.  1.
         12    1    3    3    0    0 -0.99261464774E+00 -0.16146614669E+02 -0.17150444782E+02  0.23576178769E+02  0.00000000000E+00 0. -1.
</event>
<event>
 7    1  0.1283194E-013  0.7246157E+02  0.7816164E-02  0.1226708E+00
        -11   -1    0    0    0    0  0.00000000000E+00  0.00000000000E+00  0.45593999997E+02  0.45594000000E+02  0.51100000000E-03 0.  1.
         11   -1    0    0    0    0 -0.00000000000E+00 -0.00000000000E+00 -0.45593999997E+02  0.45594000000E+02  0.51100000000E-03 0. -1.
    9900012    2    1    2    0    0  0.18585579818E+02 -0.45289802488E+00 -0.22472698405E+01  0.72461571736E+02  0.70000001878E+02 0.  0.
         12    1    1    2    0    0 -0.18585579818E+02  0.45289802488E+00  0.22472698405E+01  0.18726428264E+02  0.00000000000E+00 0. -1.
         11    1    3    3    0    0  0.12586435195E+02  0.13657253458E+02  0.11518400052E+02  0.21854346546E+02  0.51100000000E-03 0.  1.
        -11    1    3    3    0    0 -0.17998990060E+02 -0.12449373363E+02 -0.14980484053E+02  0.26521037744E+02  0.51100000000E-03 0. -1.
        -12    1    3    3    0    0  0.23998134683E+02 -0.16607781206E+01  0.12148141609E+01  0.24086187446E+02  0.00000000000E+00 0.  1.
</event>
<event>
 7    1  0.1283194E-013  0.7246164E+02  0.7816164E-02  0.1226708E+00
        -11   -1    0    0    0    0  0.00000000000E+00  0.00000000000E+00  0.45593999997E+02  0.45594000000E+02  0.51100000000E-03 0. -1.
         11   -1    0    0    0    0 -0.00000000000E+00 -0.00000000000E+00 -0.45593999997E+02  0.45594000000E+02  0.51100000000E-03 0.  1.
    9900012    2    1    2    0    0 -0.24105830109E+01  0.82377067323E+01 -0.16643493109E+02  0.72461639288E+02  0.70000089876E+02 0.  0.
         12    1    1    2    0    0  0.24105830109E+01 -0.82377067323E+01  0.16643493109E+02  0.18726360712E+02  0.00000000000E+00 0. -1.
         11    1    3    3    0    0  0.69429027280E+01  0.22992266002E+01 -0.60087911456E+01  0.94655117423E+01  0.51100000000E-03 0. -1.
        -11    1    3    3    0    0 -0.23052930533E+02  0.57486768690E+00  0.19020417130E+02  0.29892212148E+02  0.51100000000E-03 0.  1.
        -12    1    3    3    0    0  0.13699444795E+02  0.53636124452E+01 -0.29655119094E+02  0.33103915397E+02  0.00000000000E+00 0.  1.
</event>
<event>
 7    1  0.1283194E-013  0.7246156E+02  0.7816164E-02  0.1226708E+00
        -11   -1    0    0    0    0  0.00000000000E+00  0.00000000000E+00  0.45593999997E+02  0.45594000000E+02  0.51100000000E-03 0.  1.
         11   -1    0    0    0    0 -0.00000000000E+00 -0.00000000000E+00 -0.45593999997E+02  0.45594000000E+02  0.51100000000E-03 0. -1.
    9900012    2    1    2    0    0  0.12063329636E+02 -0.16492743170E+01  0.14227981329E+02  0.72461561994E+02  0.69999989187E+02 0.  0.
         12    1    1    2    0    0 -0.12063329636E+02  0.16492743170E+01 -0.14227981329E+02  0.18726438006E+02  0.00000000000E+00 0. -1.
         11    1    3    3    0    0 -0.20179507392E+02  0.18572591809E+02 -0.28474386271E+00  0.27426898557E+02  0.51100000000E-03 0. -1.
        -11    1    3    3    0    0  0.18894991963E+02 -0.66600474984E+00  0.53781262540E+01  0.19656767940E+02  0.51100000000E-03 0.  1.
         12    1    3    3    0    0  0.13347845066E+02 -0.19555861377E+02  0.91345989381E+01  0.25377895497E+02  0.00000000000E+00 0. -1.
</event>
<event>
 7    1  0.1283194E-013  0.7246143E+02  0.7816164E-02  0.1226708E+00
        -11   -1    0    0    0    0  0.00000000000E+00  0.00000000000E+00  0.45593999997E+02  0.45594000000E+02  0.51100000000E-03 0. -1.
         11   -1    0    0    0    0 -0.00000000000E+00 -0.00000000000E+00 -0.45593999997E+02  0.45594000000E+02  0.51100000000E-03 0.  1.
    9900012    2    1    2    0    0 -0.18662656984E+02  0.15283719363E+01 -0.23146198140E+00  0.72461434347E+02  0.69999822904E+02 0.  0.
         12    1    1    2    0    0  0.18662656984E+02 -0.15283719363E+01  0.23146198140E+00  0.18726565653E+02  0.00000000000E+00 0. -1.
         11    1    3    3    0    0 -0.27369284972E+01  0.18081948208E+02  0.20032899336E+02  0.27124982667E+02  0.51100000000E-03 0. -1.
        -11    1    3    3    0    0 -0.18893868771E+02 -0.49353147892E+01 -0.25611478590E+02  0.32206885056E+02  0.51100000000E-03 0.  1.
        -12    1    3    3    0    0  0.29681402838E+01 -0.11618261483E+02  0.53471172723E+01  0.13129566625E+02  0.00000000000E+00 0.  1.
</event>
<event>
 7    1  0.1283194E-013  0.7246156E+02  0.7816164E-02  0.1226708E+00
        -11   -1    0    0    0    0  0.00000000000E+00  0.00000000000E+00  0.45593999997E+02  0.45594000000E+02  0.51100000000E-03 0. -1.
         11   -1    0    0    0    0 -0.00000000000E+00 -0.00000000000E+00 -0.45593999997E+02  0.45594000000E+02  0.51100000000E-03 0.  1.
    9900012    2    1    2    0    0  0.11870198914E+02 -0.14070862096E+02 -0.34334659118E+01  0.72461562257E+02  0.69999989530E+02 0.  0.
         12    1    1    2    0    0 -0.11870198914E+02  0.14070862096E+02  0.34334659118E+01  0.18726437743E+02  0.00000000000E+00 0. -1.
         11    1    3    3    0    0  0.45399999873E+01 -0.26603293887E+02  0.13898081037E+02  0.30356276160E+02  0.51100000000E-03 0.  1.
        -11    1    3    3    0    0  0.43743729712E+01  0.23223718386E+02 -0.27608298708E+01  0.23792822792E+02  0.51100000000E-03 0. -1.
         12    1    3    3    0    0  0.29558259553E+01 -0.10691286595E+02 -0.14570717078E+02  0.18312463305E+02  0.00000000000E+00 0. -1.
</event>
<event>
 7    1  0.1283194E-013  0.7246157E+02  0.7816164E-02  0.1226708E+00
        -11   -1    0    0    0    0  0.00000000000E+00  0.00000000000E+00  0.45593999997E+02  0.45594000000E+02  0.51100000000E-03 0. -1.
         11   -1    0    0    0    0 -0.00000000000E+00 -0.00000000000E+00 -0.45593999997E+02  0.45594000000E+02  0.51100000000E-03 0.  1.
    9900012    2    1    2    0    0  0.15380967127E+02 -0.43875171656E+01 -0.97393344925E+01  0.72461572338E+02  0.70000002662E+02 0.  0.
         12    1    1    2    0    0 -0.15380967127E+02  0.43875171656E+01  0.97393344925E+01  0.18726427662E+02  0.00000000000E+00 0. -1.
         11    1    3    3    0    0 -0.85249089903E+01  0.15855541844E+02 -0.38500762898E+00  0.18006124280E+02  0.51100000000E-03 0. -1.
        -11    1    3    3    0    0  0.34719533002E+02 -0.18279418948E+02  0.11472966460E+01  0.39254291725E+02  0.51100000000E-03 0.  1.
        -12    1    3    3    0    0 -0.10813656885E+02 -0.19636400610E+01 -0.10501623509E+02  0.15201156333E+02  0.00000000000E+00 0.  1.
</event>
<event>
 7    1  0.1283194E-013  0.7246154E+02  0.7816164E-02  0.1226708E+00
        -11   -1    0    0    0    0  0.00000000000E+00  0.00000000000E+00  0.45593999997E+02  0.45594000000E+02  0.51100000000E-03 0.  1.
         11   -1    0    0    0    0 -0.00000000000E+00 -0.00000000000E+00 -0.45593999997E+02  0.45594000000E+02  0.51100000000E-03 0. -1.
    9900012    2    1    2    0    0 -0.56611133113E+01  0.14969906218E+02  0.97228634738E+01  0.72461538235E+02  0.69999958237E+02 0.  0.
         12    1    1    2    0    0  0.56611133113E+01 -0.14969906218E+02 -0.97228634738E+01  0.18726461765E+02  0.00000000000E+00 0. -1.
         11    1    3    3    0    0 -0.18611504199E+02  0.18022780906E+02  0.27282640536E+02  0.37623811543E+02  0.51100000000E-03 0.  1.
        -11    1    3    3    0    0  0.13972431199E+02 -0.84710604889E+01 -0.22245680382E+02  0.27601775221E+02  0.51100000000E-03 0. -1.
         12    1    3    3    0    0 -0.10220403110E+01  0.54181858014E+01  0.46859033199E+01  0.72359514715E+01  0.00000000000E+00 0. -1.
</event>
<event>
 7    1  0.1283194E-013  0.7246164E+02  0.7816164E-02  0.1226708E+00
        -11   -1    0    0    0    0  0.00000000000E+00  0.00000000000E+00  0.45593999997E+02  0.45594000000E+02  0.51100000000E-03 0.  1.
         11   -1    0    0    0    0 -0.00000000000E+00 -0.00000000000E+00 -0.45593999997E+02  0.45594000000E+02  0.51100000000E-03 0. -1.
    9900012    2    1    2    0    0 -0.37576356980E+01 -0.16152488211E+02  0.86979119484E+01  0.72461644943E+02  0.70000097244E+02 0.  0.
         12    1    1    2    0    0  0.37576356980E+01  0.16152488211E+02 -0.86979119484E+01  0.18726355057E+02  0.00000000000E+00 0. -1.
         11    1    3    3    0    0 -0.95525134182E+01 -0.26961521439E+02  0.11393708223E+02  0.30789458233E+02  0.51100000000E-03 0.  1.
        -11    1    3    3    0    0  0.59997660627E+01  0.24961723040E+02 -0.74652934972E+01  0.26736032189E+02  0.51100000000E-03 0. -1.
         12    1    3    3    0    0 -0.20488834252E+00 -0.14152689812E+02  0.47694972227E+01  0.14936154522E+02  0.00000000000E+00 0. -1.
</event>
<event>
 7    1  0.1283194E-013  0.7246157E+02  0.7816164E-02  0.1226708E+00
        -11   -1    0    0    0    0  0.00000000000E+00  0.00000000000E+00  0.45593999997E+02  0.45594000000E+02  0.51100000000E-03 0.  1.
         11   -1    0    0    0    0 -0.00000000000E+00 -0.00000000000E+00 -0.45593999997E+02  0.45594000000E+02  0.51100000000E-03 0. -1.
    9900012    2    1    2    0    0  0.17060360472E+02  0.85763601704E+00  0.76738289093E+01  0.72461572442E+02  0.70000002797E+02 0.  0.
         12    1    1    2    0    0 -0.17060360472E+02 -0.85763601704E+00 -0.76738289093E+01  0.18726427558E+02  0.00000000000E+00 0. -1.
         11    1    3    3    0    0 -0.10781493491E+02  0.26144506929E+02  0.18738300171E+01  0.28342319658E+02  0.51100000000E-03 0. -1.
        -11    1    3    3    0    0  0.16115964835E+02 -0.15098811190E+02 -0.78528039540E+01  0.23438535622E+02  0.51100000000E-03 0.  1.
         12    1    3    3    0    0  0.11725889128E+02 -0.10188059721E+02  0.13652802846E+02  0.20680717161E+02  0.00000000000E+00 0. -1.
</event>
<event>
 7    1  0.1283194E-013  0.7246156E+02  0.7816164E-02  0.1226708E+00
        -11   -1    0    0    0    0  0.00000000000E+00  0.00000000000E+00  0.45593999997E+02  0.45594000000E+02  0.51100000000E-03 0. -1.
         11   -1    0    0    0    0 -0.00000000000E+00 -0.00000000000E+00 -0.45593999997E+02  0.45594000000E+02  0.51100000000E-03 0.  1.
    9900012    2    1    2    0    0 -0.17063778391E+02  0.95054564136E+00 -0.76552794989E+01  0.72461564830E+02  0.69999992881E+02 0.  0.
         12    1    1    2    0    0  0.17063778391E+02 -0.95054564136E+00  0.76552794989E+01  0.18726435170E+02  0.00000000000E+00 0. -1.
         11    1    3    3    0    0  0.14439208204E+02  0.29522103859E+01  0.17306576513E+01  0.14839186497E+02  0.51100000000E-03 0. -1.
        -11    1    3    3    0    0 -0.42003717231E+02  0.30940116622E+01  0.80861357574E+00  0.42125277751E+02  0.51100000000E-03 0.  1.
         12    1    3    3    0    0  0.10500730637E+02 -0.50956764067E+01 -0.10194550726E+02  0.15497100582E+02  0.00000000000E+00 0. -1.
</event>
<event>
 7    1  0.1283194E-013  0.7246157E+02  0.7816164E-02  0.1226708E+00
        -11   -1    0    0    0    0  0.00000000000E+00  0.00000000000E+00  0.45593999997E+02  0.45594000000E+02  0.51100000000E-03 0.  1.
         11   -1    0    0    0    0 -0.00000000000E+00 -0.00000000000E+00 -0.45593999997E+02  0.45594000000E+02  0.51100000000E-03 0. -1.
    9900012    2    1    2    0    0 -0.57901319533E+01  0.13577404001E+02  0.11524214789E+02  0.72461573380E+02  0.70000004019E+02 0.  0.
         12    1    1    2    0    0  0.57901319533E+01 -0.13577404001E+02 -0.11524214789E+02  0.18726426620E+02  0.00000000000E+00 0. -1.
         11    1    3    3    0    0 -0.92086557852E+01  0.54548965173E+01 -0.26647983184E+02  0.28717072368E+02  0.51100000000E-03 0. -1.
        -11    1    3    3    0    0  0.28873732312E+01  0.14406279686E+02  0.30157716021E+02  0.33546470074E+02  0.51100000000E-03 0.  1.
         12    1    3    3    0    0  0.53115060066E+00 -0.62837722018E+01  0.80144819522E+01  0.10198030938E+02  0.00000000000E+00 0. -1.
</event>
<event>
 7    1  0.1283194E-013  0.7246159E+02  0.7816164E-02  0.1226708E+00
        -11   -1    0    0    0    0  0.00000000000E+00  0.00000000000E+00  0.45593999997E+02  0.45594000000E+02  0.51100000000E-03 0. -1.
         11   -1    0    0    0    0 -0.00000000000E+00 -0.00000000000E+00 -0.45593999997E+02  0.45594000000E+02  0.51100000000E-03 0.  1.
    9900012    2    1    2    0    0 -0.12545498164E+02  0.48872907549E+00 -0.13894240634E+02  0.72461593428E+02  0.70000030136E+02 0.  0.
         12    1    1    2    0    0  0.12545498164E+02 -0.48872907549E+00  0.13894240634E+02  0.18726406572E+02  0.00000000000E+00 0. -1.
         11    1    3    3    0    0 -0.34080555964E+01  0.55234475698E+01  0.20703362658E+02  0.21696832525E+02  0.51100000000E-03 0. -1.
        -11    1    3    3    0    0 -0.69234314945E+01  0.80007083475E+01 -0.35949094434E+02  0.37473759200E+02  0.51100000000E-03 0.  1.
        -12    1    3    3    0    0 -0.22140110728E+01 -0.13035426842E+02  0.13514911413E+01  0.13291001704E+02  0.00000000000E+00 0.  1.
</event>
<event>
 7    1  0.1283194E-013  0.7246165E+02  0.7816164E-02  0.1226708E+00
        -11   -1    0    0    0    0  0.00000000000E+00  0.00000000000E+00  0.45593999997E+02  0.45594000000E+02  0.51100000000E-03 0.  1.
         11   -1    0    0    0    0 -0.00000000000E+00 -0.00000000000E+00 -0.45593999997E+02  0.45594000000E+02  0.51100000000E-03 0. -1.
    9900012    2    1    2    0    0 -0.13278820432E+02  0.13178867955E+02 -0.81647086717E+00  0.72461648051E+02  0.70000101292E+02 0.  0.
         12    1    1    2    0    0  0.13278820432E+02 -0.13178867955E+02  0.81647086717E+00  0.18726351949E+02  0.00000000000E+00 0. -1.
         11    1    3    3    0    0  0.14883506367E+02  0.15600895579E+02 -0.73132605160E+01  0.22768190185E+02  0.51100000000E-03 0. -1.
        -11    1    3    3    0    0 -0.23397687131E+02  0.13521684861E+02  0.15104478327E+02  0.30958568933E+02  0.51100000000E-03 0.  1.
        -12    1    3    3    0    0 -0.47646396680E+01 -0.15943712485E+02 -0.86076886784E+01  0.18734888934E+02  0.00000000000E+00 0.  1.
</event>
<event>
 7    1  0.1283194E-013  0.7246161E+02  0.7816164E-02  0.1226708E+00
        -11   -1    0    0    0    0  0.00000000000E+00  0.00000000000E+00  0.45593999997E+02  0.45594000000E+02  0.51100000000E-03 0.  1.
         11   -1    0    0    0    0 -0.00000000000E+00 -0.00000000000E+00 -0.45593999997E+02  0.45594000000E+02  0.51100000000E-03 0. -1.
    9900012    2    1    2    0    0 -0.11074855671E+02 -0.73650560127E+01  0.13182609546E+02  0.72461610261E+02  0.70000052064E+02 0.  0.
         12    1    1    2    0    0  0.11074855671E+02  0.73650560127E+01 -0.13182609546E+02  0.18726389739E+02  0.00000000000E+00 0. -1.
         11    1    3    3    0    0 -0.43013752776E+01  0.25654664285E+02  0.21497251672E+02  0.33746043599E+02  0.51100000000E-03 0. -1.
        -11    1    3    3    0    0 -0.25765241264E+01 -0.16834200451E+02 -0.12914963230E+02  0.21373466188E+02  0.51100000000E-03 0.  1.
         12    1    3    3    0    0 -0.41969562670E+01 -0.16185519847E+02  0.46003211042E+01  0.17342100475E+02  0.00000000000E+00 0. -1.
</event>
<event>
 7    1  0.1283194E-013  0.7246165E+02  0.7816164E-02  0.1226708E+00
        -11   -1    0    0    0    0  0.00000000000E+00  0.00000000000E+00  0.45593999997E+02  0.45594000000E+02  0.51100000000E-03 0.  1.
         11   -1    0    0    0    0 -0.00000000000E+00 -0.00000000000E+00 -0.45593999997E+02  0.45594000000E+02  0.51100000000E-03 0. -1.
    9900012    2    1    2    0    0 -0.46486036831E+01 -0.39368768059E+01  0.17707841106E+02  0.72461650868E+02  0.70000104961E+02 0.  0.
         12    1    1    2    0    0  0.46486036831E+01  0.39368768059E+01 -0.17707841106E+02  0.18726349132E+02  0.00000000000E+00 0. -1.
         11    1    3    3    0    0 -0.73310506998E+01  0.13271404993E+02 -0.20587873554E+02  0.25568242658E+02  0.51100000000E-03 0. -1.
        -11    1    3    3    0    0  0.10480985336E+02 -0.31507340530E+01  0.14221213116E+02  0.17944945847E+02  0.51100000000E-03 0.  1.
         12    1    3    3    0    0 -0.77985383197E+01 -0.14057547746E+02  0.24074501544E+02  0.28948462363E+02  0.00000000000E+00 0. -1.
</event>
<event>
 7    1  0.1283194E-013  0.7246147E+02  0.7816164E-02  0.1226708E+00
        -11   -1    0    0    0    0  0.00000000000E+00  0.00000000000E+00  0.45593999997E+02  0.45594000000E+02  0.51100000000E-03 0. -1.
         11   -1    0    0    0    0 -0.00000000000E+00 -0.00000000000E+00 -0.45593999997E+02  0.45594000000E+02  0.51100000000E-03 0.  1.
    9900012    2    1    2    0    0 -0.13942311887E+02  0.75157457563E+01 -0.99904259404E+01  0.72461465203E+02  0.69999863099E+02 0.  0.
         12    1    1    2    0    0  0.13942311887E+02 -0.75157457563E+01  0.99904259404E+01  0.18726534797E+02  0.00000000000E+00 0. -1.
         11    1    3    3    0    0 -0.28791709994E+02  0.26620072147E+01  0.82991616891E+01  0.30081970211E+02  0.51100000000E-03 0. -1.
        -11    1    3    3    0    0  0.16111996639E+02  0.85045005628E+01  0.49033535319E+01  0.18867057047E+02  0.51100000000E-03 0.  1.
        -12    1    3    3    0    0 -0.12625985320E+01 -0.36507620212E+01 -0.23192941161E+02  0.23512437945E+02  0.00000000000E+00 0.  1.
</event>
<event>
 7    1  0.1283194E-013  0.7246199E+02  0.7816164E-02  0.1226707E+00
        -11   -1    0    0    0    0  0.00000000000E+00  0.00000000000E+00  0.45593999997E+02  0.45594000000E+02  0.51100000000E-03 0. -1.
         11   -1    0    0    0    0 -0.00000000000E+00 -0.00000000000E+00 -0.45593999997E+02  0.45594000000E+02  0.51100000000E-03 0.  1.
    9900012    2    1    2    0    0  0.55966844898E+01 -0.16348739743E+02 -0.72152216246E+01  0.72461986234E+02  0.70000541837E+02 0.  0.
         12    1    1    2    0    0 -0.55966844898E+01  0.16348739743E+02  0.72152216246E+01  0.18726013766E+02  0.00000000000E+00 0. -1.
         11    1    3    3    0    0  0.26041487996E+02 -0.21675114144E+02  0.48792329333E+01  0.34231222364E+02  0.51100000000E-03 0. -1.
        -11    1    3    3    0    0 -0.84225989906E+00  0.13839783625E+02 -0.40490209983E+00  0.13871299813E+02  0.51100000000E-03 0.  1.
         12    1    3    3    0    0 -0.19602543608E+02 -0.85134092239E+01 -0.11689552458E+02  0.24359464058E+02  0.00000000000E+00 0. -1.
</event>
<event>
 7    1  0.1283194E-013  0.7246159E+02  0.7816164E-02  0.1226708E+00
        -11   -1    0    0    0    0  0.00000000000E+00  0.00000000000E+00  0.45593999997E+02  0.45594000000E+02  0.51100000000E-03 0. -1.
         11   -1    0    0    0    0 -0.00000000000E+00 -0.00000000000E+00 -0.45593999997E+02  0.45594000000E+02  0.51100000000E-03 0.  1.
    9900012    2    1    2    0    0 -0.16308422050E+02 -0.91400215444E+01  0.10834745539E+01  0.72461587084E+02  0.70000021871E+02 0.  0.
         12    1    1    2    0    0  0.16308422050E+02  0.91400215444E+01 -0.10834745539E+01  0.18726412916E+02  0.00000000000E+00 0. -1.
         11    1    3    3    0    0 -0.47137489147E+01 -0.57801402820E+01  0.31147695226E+02  0.32028243297E+02  0.51100000000E-03 0. -1.
        -11    1    3    3    0    0  0.35983599460E+01 -0.95520302188E+01 -0.81713335658E+01  0.13075173731E+02  0.51100000000E-03 0.  1.
         12    1    3    3    0    0 -0.15193033082E+02  0.61921489564E+01 -0.21892887107E+02  0.27358170055E+02  0.00000000000E+00 0. -1.
</event>
<event>
 7    1  0.1283194E-013  0.7246151E+02  0.7816164E-02  0.1226708E+00
        -11   -1    0    0    0    0  0.00000000000E+00  0.00000000000E+00  0.45593999997E+02  0.45594000000E+02  0.51100000000E-03 0. -1.
         11   -1    0    0    0    0 -0.00000000000E+00 -0.00000000000E+00 -0.45593999997E+02  0.45594000000E+02  0.51100000000E-03 0.  1.
    9900012    2    1    2    0    0 -0.11217352352E+02  0.17544792660E+01 -0.14892087939E+02  0.72461508752E+02  0.69999919829E+02 0.  0.
         12    1    1    2    0    0  0.11217352352E+02 -0.17544792660E+01  0.14892087939E+02  0.18726491248E+02  0.00000000000E+00 0. -1.
         11    1    3    3    0    0 -0.17954601199E+02  0.23969065705E+02  0.62262366571E+01  0.30588393847E+02  0.51100000000E-03 0. -1.
        -11    1    3    3    0    0 -0.10168414214E+02 -0.33117543114E+01 -0.77370860336E+01  0.13199502445E+02  0.51100000000E-03 0.  1.
         12    1    3    3    0    0  0.16905663061E+02 -0.18902832127E+02 -0.13381238563E+02  0.28673612459E+02  0.00000000000E+00 0. -1.
</event>
<event>
 7    1  0.1283194E-013  0.7246157E+02  0.7816164E-02  0.1226708E+00
        -11   -1    0    0    0    0  0.00000000000E+00  0.00000000000E+00  0.45593999997E+02  0.45594000000E+02  0.51100000000E-03 0. -1.
         11   -1    0    0    0    0 -0.00000000000E+00 -0.00000000000E+00 -0.45593999997E+02  0.45594000000E+02  0.51100000000E-03 0.  1.
    9900012    2    1    2    0    0 -0.73745136720E+01  0.15481853284E+02 -0.75238203839E+01  0.72461571985E+02  0.70000002203E+02 0.  0.
         12    1    1    2    0    0  0.73745136720E+01 -0.15481853284E+02  0.75238203839E+01  0.18726428015E+02  0.00000000000E+00 0. -1.
         11    1    3    3    0    0 -0.51627171465E+01  0.12622516460E+02  0.18016441047E+02  0.22595878349E+02  0.51100000000E-03 0. -1.
        -11    1    3    3    0    0 -0.19072373714E+02 -0.74687647545E+01 -0.21480481319E+02  0.29680784424E+02  0.51100000000E-03 0.  1.
        -12    1    3    3    0    0  0.16860577189E+02  0.10328101579E+02 -0.40597801118E+01  0.20184909212E+02  0.00000000000E+00 0.  1.
</event>
<event>
 7    1  0.1283194E-013  0.7246145E+02  0.7816164E-02  0.1226708E+00
        -11   -1    0    0    0    0  0.00000000000E+00  0.00000000000E+00  0.45593999997E+02  0.45594000000E+02  0.51100000000E-03 0. -1.
         11   -1    0    0    0    0 -0.00000000000E+00 -0.00000000000E+00 -0.45593999997E+02  0.45594000000E+02  0.51100000000E-03 0.  1.
    9900012    2    1    2    0    0 -0.53667247561E+01  0.16964040823E+02 -0.58397986623E+01  0.72461450289E+02  0.69999843671E+02 0.  0.
         12    1    1    2    0    0  0.53667247561E+01 -0.16964040823E+02  0.58397986623E+01  0.18726549711E+02  0.00000000000E+00 0. -1.
         11    1    3    3    0    0 -0.20973712735E+02  0.20220955801E+02  0.50641253927E+01  0.29570746451E+02  0.51100000000E-03 0. -1.
        -11    1    3    3    0    0  0.13757239110E+02 -0.19185421640E+02 -0.19651241394E+00  0.23608910369E+02  0.51100000000E-03 0.  1.
        -12    1    3    3    0    0  0.18497488692E+01  0.15928506661E+02 -0.10707411641E+02  0.19281793469E+02  0.00000000000E+00 0.  1.
</event>
<event>
 7    1  0.1283194E-013  0.7246157E+02  0.7816164E-02  0.1226708E+00
        -11   -1    0    0    0    0  0.00000000000E+00  0.00000000000E+00  0.45593999997E+02  0.45594000000E+02  0.51100000000E-03 0. -1.
         11   -1    0    0    0    0 -0.00000000000E+00 -0.00000000000E+00 -0.45593999997E+02  0.45594000000E+02  0.51100000000E-03 0.  1.
    9900012    2    1    2    0    0 -0.36411672533E+01 -0.18150439346E+02  0.28253569473E+01  0.72461569767E+02  0.69999999313E+02 0.  0.
         12    1    1    2    0    0  0.36411672533E+01  0.18150439346E+02 -0.28253569473E+01  0.18726430233E+02  0.00000000000E+00 0. -1.
         11    1    3    3    0    0 -0.56534693651E+01 -0.26717397043E+02 -0.98565562531E+01  0.29033303671E+02  0.51100000000E-03 0. -1.
        -11    1    3    3    0    0  0.37611647542E+01  0.19531184139E+02 -0.67868759388E+01  0.21016070029E+02  0.51100000000E-03 0.  1.
         12    1    3    3    0    0 -0.17488626424E+01 -0.10964226442E+02  0.19468789139E+02  0.22412196067E+02  0.00000000000E+00 0. -1.
</event>
<event>
 7    1  0.1283194E-013  0.7246159E+02  0.7816164E-02  0.1226708E+00
        -11   -1    0    0    0    0  0.00000000000E+00  0.00000000000E+00  0.45593999997E+02  0.45594000000E+02  0.51100000000E-03 0.  1.
         11   -1    0    0    0    0 -0.00000000000E+00 -0.00000000000E+00 -0.45593999997E+02  0.45594000000E+02  0.51100000000E-03 0. -1.
    9900012    2    1    2    0    0  0.16987977566E+02 -0.78386523853E+01 -0.80169380305E+00  0.72461586410E+02  0.70000020994E+02 0.  0.
         12    1    1    2    0    0 -0.16987977566E+02  0.78386523853E+01  0.80169380305E+00  0.18726413590E+02  0.00000000000E+00 0. -1.
         11    1    3    3    0    0 -0.18233157096E+02 -0.30504387415E+01  0.13612900821E+02  0.22957880199E+02  0.51100000000E-03 0. -1.
        -11    1    3    3    0    0  0.15914851047E+02  0.11976561476E+02 -0.13221300847E+02  0.23906553599E+02  0.51100000000E-03 0.  1.
        -12    1    3    3    0    0  0.19306283615E+02 -0.16764775120E+02 -0.11932937769E+01  0.25597152612E+02  0.00000000000E+00 0.  1.
</event>
<event>
 7    1  0.1283194E-013  0.7246153E+02  0.7816164E-02  0.1226708E+00
        -11   -1    0    0    0    0  0.00000000000E+00  0.00000000000E+00  0.45593999997E+02  0.45594000000E+02  0.51100000000E-03 0. -1.
         11   -1    0    0    0    0 -0.00000000000E+00 -0.00000000000E+00 -0.45593999997E+02  0.45594000000E+02  0.51100000000E-03 0.  1.
    9900012    2    1    2    0    0  0.10607754095E+02 -0.57732820583E+01 -0.14311718645E+02  0.72461534149E+02  0.69999952914E+02 0.  0.
         12    1    1    2    0    0 -0.10607754095E+02  0.57732820583E+01  0.14311718645E+02  0.18726465851E+02  0.00000000000E+00 0. -1.
         11    1    3    3    0    0 -0.83030648313E+01  0.10954609335E+02 -0.20779984477E+02  0.24914897279E+02  0.51100000000E-03 0. -1.
        -11    1    3    3    0    0  0.30613057530E+02 -0.82969230226E+01 -0.53797013330E-01  0.31717520668E+02  0.51100000000E-03 0.  1.
        -12    1    3    3    0    0 -0.11702238603E+02 -0.84309683706E+01  0.65220628452E+01  0.15829116202E+02  0.00000000000E+00 0.  1.
</event>
<event>
 7    1  0.1283194E-013  0.7246166E+02  0.7816164E-02  0.1226708E+00
        -11   -1    0    0    0    0  0.00000000000E+00  0.00000000000E+00  0.45593999997E+02  0.45594000000E+02  0.51100000000E-03 0. -1.
         11   -1    0    0    0    0 -0.00000000000E+00 -0.00000000000E+00 -0.45593999997E+02  0.45594000000E+02  0.51100000000E-03 0.  1.
    9900012    2    1    2    0    0 -0.16230288379E+02 -0.85984449469E+00 -0.93012990582E+01  0.72461661394E+02  0.70000118674E+02 0.  0.
         12    1    1    2    0    0  0.16230288379E+02  0.85984449469E+00  0.93012990582E+01  0.18726338606E+02  0.00000000000E+00 0. -1.
         11    1    3    3    0    0  0.19584415705E+01 -0.22206090158E+02  0.92115395719E+01  0.24120497405E+02  0.51100000000E-03 0. -1.
        -11    1    3    3    0    0 -0.46143451369E+01  0.27743064319E+02 -0.17870061597E+02  0.33321298003E+02  0.51100000000E-03 0.  1.
         12    1    3    3    0    0 -0.13574384812E+02 -0.63968186549E+01 -0.64277703265E+00  0.15019865986E+02  0.00000000000E+00 0. -1.
</event>
<event>
 7    1  0.1283194E-013  0.7246160E+02  0.7816164E-02  0.1226708E+00
        -11   -1    0    0    0    0  0.00000000000E+00  0.00000000000E+00  0.45593999997E+02  0.45594000000E+02  0.51100000000E-03 0.  1.
         11   -1    0    0    0    0 -0.00000000000E+00 -0.00000000000E+00 -0.45593999997E+02  0.45594000000E+02  0.51100000000E-03 0. -1.
    9900012    2    1    2    0    0 -0.15679928222E+02 -0.10013281146E+02 -0.21335623676E+01  0.72461600540E+02  0.70000039400E+02 0.  0.
         12    1    1    2    0    0  0.15679928222E+02  0.10013281146E+02  0.21335623676E+01  0.18726399460E+02  0.00000000000E+00 0. -1.
         11    1    3    3    0    0 -0.36393005906E+01 -0.16683394382E+02 -0.16672510986E+02  0.23865304937E+02  0.51100000000E-03 0. -1.
        -11    1    3    3    0    0 -0.19936109364E+02  0.21642301035E+02  0.85605473132E+01  0.30645074991E+02  0.51100000000E-03 0.  1.
        -12    1    3    3    0    0  0.78954817322E+01 -0.14972187799E+02  0.59784013054E+01  0.17951220612E+02  0.00000000000E+00 0.  1.
</event>
<event>
 7    1  0.1283194E-013  0.7246167E+02  0.7816164E-02  0.1226708E+00
        -11   -1    0    0    0    0  0.00000000000E+00  0.00000000000E+00  0.45593999997E+02  0.45594000000E+02  0.51100000000E-03 0.  1.
         11   -1    0    0    0    0 -0.00000000000E+00 -0.00000000000E+00 -0.45593999997E+02  0.45594000000E+02  0.51100000000E-03 0. -1.
    9900012    2    1    2    0    0 -0.14676304821E+02 -0.91675526563E+01  0.71580348809E+01  0.72461670721E+02  0.70000130824E+02 0.  0.
         12    1    1    2    0    0  0.14676304821E+02  0.91675526563E+01 -0.71580348809E+01  0.18726329279E+02  0.00000000000E+00 0. -1.
         11    1    3    3    0    0 -0.24527547231E+02 -0.11968324549E+02 -0.24759596293E+01  0.27403863634E+02  0.51100000000E-03 0. -1.
        -11    1    3    3    0    0  0.12064370723E+01  0.21675883373E+02  0.10833861555E+02  0.24262563073E+02  0.51100000000E-03 0.  1.
        -12    1    3    3    0    0  0.86448053376E+01 -0.18875111480E+02 -0.11998670451E+01  0.20795244014E+02  0.00000000000E+00 0.  1.
</event>
<event>
 7    1  0.1283194E-013  0.7246158E+02  0.7816164E-02  0.1226708E+00
        -11   -1    0    0    0    0  0.00000000000E+00  0.00000000000E+00  0.45593999997E+02  0.45594000000E+02  0.51100000000E-03 0.  1.
         11   -1    0    0    0    0 -0.00000000000E+00 -0.00000000000E+00 -0.45593999997E+02  0.45594000000E+02  0.51100000000E-03 0. -1.
    9900012    2    1    2    0    0 -0.12142026936E+02 -0.14203419929E+02 -0.12299789464E+01  0.72461580054E+02  0.70000012713E+02 0.  0.
         12    1    1    2    0    0  0.12142026936E+02  0.14203419929E+02  0.12299789464E+01  0.18726419946E+02  0.00000000000E+00 0. -1.
         11    1    3    3    0    0  0.28539477600E+02 -0.60432241062E+01 -0.39242898205E+01  0.29435053764E+02  0.51100000000E-03 0. -1.
        -11    1    3    3    0    0 -0.10724212166E+02  0.23645324680E+01 -0.11522375315E+01  0.11042073717E+02  0.51100000000E-03 0.  1.
         12    1    3    3    0    0 -0.29957292370E+02 -0.10524728291E+02  0.38465484057E+01  0.31984452572E+02  0.00000000000E+00 0. -1.
</event>
<event>
 7    1  0.1283194E-013  0.7246144E+02  0.7816164E-02  0.1226708E+00
        -11   -1    0    0    0    0  0.00000000000E+00  0.00000000000E+00  0.45593999997E+02  0.45594000000E+02  0.51100000000E-03 0.  1.
         11   -1    0    0    0    0 -0.00000000000E+00 -0.00000000000E+00 -0.45593999997E+02  0.45594000000E+02  0.51100000000E-03 0. -1.
    9900012    2    1    2    0    0 -0.99499586848E+01 -0.95102199527E+01  0.12697949510E+02  0.72461444440E+02  0.69999836051E+02 0.  0.
         12    1    1    2    0    0  0.99499586848E+01  0.95102199527E+01 -0.12697949510E+02  0.18726555560E+02  0.00000000000E+00 0. -1.
         11    1    3    3    0    0 -0.31550027587E+01 -0.11765449036E+02 -0.17453221300E+02  0.21283673730E+02  0.51100000000E-03 0. -1.
        -11    1    3    3    0    0  0.40868266697E+01 -0.17529539940E+02  0.18332856881E+02  0.25692033093E+02  0.51100000000E-03 0.  1.
         12    1    3    3    0    0 -0.10881782596E+02  0.19784769024E+02  0.11818313929E+02  0.25485737617E+02  0.00000000000E+00 0. -1.
</event>
<event>
 7    1  0.1283194E-013  0.7246157E+02  0.7816164E-02  0.1226708E+00
        -11   -1    0    0    0    0  0.00000000000E+00  0.00000000000E+00  0.45593999997E+02  0.45594000000E+02  0.51100000000E-03 0. -1.
         11   -1    0    0    0    0 -0.00000000000E+00 -0.00000000000E+00 -0.45593999997E+02  0.45594000000E+02  0.51100000000E-03 0.  1.
    9900012    2    1    2    0    0 -0.31384158687E+01 -0.86536583085E+01 -0.16307777946E+02  0.72461572743E+02  0.70000003189E+02 0.  0.
         12    1    1    2    0    0  0.31384158687E+01  0.86536583085E+01  0.16307777946E+02  0.18726427257E+02  0.00000000000E+00 0. -1.
         11    1    3    3    0    0 -0.11339399292E+02 -0.16185124650E+02 -0.13570658673E+02  0.23972964216E+02  0.51100000000E-03 0. -1.
        -11    1    3    3    0    0 -0.10516431191E+02  0.22243092082E+02 -0.14916120279E+01  0.24649044141E+02  0.51100000000E-03 0.  1.
        -12    1    3    3    0    0  0.18717414614E+02 -0.14711625741E+02 -0.12455072457E+01  0.23839564385E+02  0.00000000000E+00 0.  1.
</event>
<event>
 8    1  0.1283194E-013  0.7246155E+02  0.7816164E-02  0.1226708E+00
        -11   -1    0    0    0    0  0.00000000000E+00  0.00000000000E+00  0.45593999997E+02  0.45594000000E+02  0.51100000000E-03 0. -1.
         11   -1    0    0    0    0 -0.00000000000E+00 -0.00000000000E+00 -0.45593999997E+02  0.45594000000E+02  0.51100000000E-03 0.  1.
    9900012    2    1    2    0    0  0.18641965247E+02  0.22931642686E+00 -0.17619454381E+01  0.72461550629E+02  0.69999974383E+02 0.  0.
        -24    2    3    3    0    0  0.18175401661E+02 -0.25446505616E+01  0.13400913252E+02  0.57039979427E+02  0.52317820148E+02 0.  0.
         12    1    1    2    0    0 -0.18641965247E+02 -0.22931642686E+00  0.17619454381E+01  0.18726449371E+02  0.00000000000E+00 0. -1.
         11    1    4    4    0    0 -0.42564225797E+00 -0.16046502665E+02  0.26204103584E+02  0.30729895281E+02  0.51100000000E-03 0. -1.
        -11    1    3    3    0    0  0.46656358651E+00  0.27739669884E+01 -0.15162858690E+02  0.15421571202E+02  0.51100000000E-03 0.  1.
        -12    1    4    4    0    0  0.18601043919E+02  0.13501852103E+02 -0.12803190332E+02  0.26310084146E+02  0.00000000000E+00 0.  1.
</event>
<event>
 7    1  0.1283194E-013  0.7246151E+02  0.7816164E-02  0.1226708E+00
        -11   -1    0    0    0    0  0.00000000000E+00  0.00000000000E+00  0.45593999997E+02  0.45594000000E+02  0.51100000000E-03 0. -1.
         11   -1    0    0    0    0 -0.00000000000E+00 -0.00000000000E+00 -0.45593999997E+02  0.45594000000E+02  0.51100000000E-03 0.  1.
    9900012    2    1    2    0    0  0.60660936179E+01 -0.77520866564E+00  0.17699804916E+02  0.72461507154E+02  0.69999917747E+02 0.  0.
         12    1    1    2    0    0 -0.60660936179E+01  0.77520866564E+00 -0.17699804916E+02  0.18726492846E+02  0.00000000000E+00 0. -1.
         11    1    3    3    0    0  0.14701622583E+02  0.85322256057E+01  0.22718502316E+00  0.16999652751E+02  0.51100000000E-03 0. -1.
        -11    1    3    3    0    0 -0.21134456713E+02 -0.12585862723E+02 -0.88474650333E+01  0.26140903557E+02  0.51100000000E-03 0.  1.
        -12    1    3    3    0    0  0.12498927748E+02  0.32784284512E+01  0.26320084926E+02  0.29320950845E+02  0.00000000000E+00 0.  1.
</event>
<event>
 7    1  0.1283194E-013  0.7246153E+02  0.7816164E-02  0.1226708E+00
        -11   -1    0    0    0    0  0.00000000000E+00  0.00000000000E+00  0.45593999997E+02  0.45594000000E+02  0.51100000000E-03 0.  1.
         11   -1    0    0    0    0 -0.00000000000E+00 -0.00000000000E+00 -0.45593999997E+02  0.45594000000E+02  0.51100000000E-03 0. -1.
    9900012    2    1    2    0    0  0.15009833886E+02  0.10692839865E+01  0.11146405233E+02  0.72461525929E+02  0.69999942206E+02 0.  0.
         12    1    1    2    0    0 -0.15009833886E+02 -0.10692839865E+01 -0.11146405233E+02  0.18726474071E+02  0.00000000000E+00 0. -1.
         11    1    3    3    0    0 -0.17789291494E+02  0.23782851130E+01 -0.60273828309E+01  0.18932629928E+02  0.51100000000E-03 0. -1.
        -11    1    3    3    0    0  0.19572640279E+02 -0.19647551067E+02  0.12596421274E+02  0.30459552518E+02  0.51100000000E-03 0.  1.
        -12    1    3    3    0    0  0.13226485100E+02  0.18338549940E+02  0.45773667903E+01  0.23069343483E+02  0.00000000000E+00 0.  1.
</event>
<event>
 7    1  0.1283194E-013  0.7246159E+02  0.7816164E-02  0.1226708E+00
        -11   -1    0    0    0    0  0.00000000000E+00  0.00000000000E+00  0.45593999997E+02  0.45594000000E+02  0.51100000000E-03 0. -1.
         11   -1    0    0    0    0 -0.00000000000E+00 -0.00000000000E+00 -0.45593999997E+02  0.45594000000E+02  0.51100000000E-03 0.  1.
    9900012    2    1    2    0    0  0.14898742543E+02  0.11330823708E+02 -0.56426819333E+00  0.72461588335E+02  0.70000023501E+02 0.  0.
         12    1    1    2    0    0 -0.14898742543E+02 -0.11330823708E+02  0.56426819333E+00  0.18726411665E+02  0.00000000000E+00 0. -1.
         11    1    3    3    0    0  0.42512928980E+01 -0.21203764544E+02  0.58727615178E+01  0.22408981463E+02  0.51100000000E-03 0.  1.
        -11    1    3    3    0    0  0.17011867351E+02  0.36759099768E+02 -0.71976389779E+00  0.40511147933E+02  0.51100000000E-03 0. -1.
         12    1    3    3    0    0 -0.63644177054E+01 -0.42245115171E+01 -0.57172658133E+01  0.95414589381E+01  0.00000000000E+00 0. -1.
</event>
<event>
 7    1  0.1283194E-013  0.7246164E+02  0.7816164E-02  0.1226708E+00
        -11   -1    0    0    0    0  0.00000000000E+00  0.00000000000E+00  0.45593999997E+02  0.45594000000E+02  0.51100000000E-03 0.  1.
         11   -1    0    0    0    0 -0.00000000000E+00 -0.00000000000E+00 -0.45593999997E+02  0.45594000000E+02  0.51100000000E-03 0. -1.
    9900012    2    1    2    0    0 -0.65675832390E+01 -0.10088405457E+02  0.14344600867E+02  0.72461637612E+02  0.70000087694E+02 0.  0.
         12    1    1    2    0    0  0.65675832390E+01  0.10088405457E+02 -0.14344600867E+02  0.18726362388E+02  0.00000000000E+00 0. -1.
         11    1    3    3    0    0 -0.29600725075E+02 -0.89621144941E+01  0.17781061476E+02  0.35674760948E+02  0.51100000000E-03 0. -1.
        -11    1    3    3    0    0  0.26549269642E+02 -0.68508037872E+01 -0.81215404870E+01  0.28596444730E+02  0.51100000000E-03 0.  1.
        -12    1    3    3    0    0 -0.35161278053E+01  0.57245128243E+01  0.46850798771E+01  0.81904319345E+01  0.00000000000E+00 0.  1.
</event>
<event>
 7    1  0.1283194E-013  0.7246158E+02  0.7816164E-02  0.1226708E+00
        -11   -1    0    0    0    0  0.00000000000E+00  0.00000000000E+00  0.45593999997E+02  0.45594000000E+02  0.51100000000E-03 0.  1.
         11   -1    0    0    0    0 -0.00000000000E+00 -0.00000000000E+00 -0.45593999997E+02  0.45594000000E+02  0.51100000000E-03 0. -1.
    9900012    2    1    2    0    0  0.12941807583E+01 -0.13609473383E+02  0.12797897974E+02  0.72461578501E+02  0.70000010691E+02 0.  0.
         12    1    1    2    0    0 -0.12941807583E+01  0.13609473383E+02 -0.12797897974E+02  0.18726421499E+02  0.00000000000E+00 0. -1.
         11    1    3    3    0    0  0.11983187166E+02 -0.29201868936E+02  0.27820269387E+02  0.42075091361E+02  0.51100000000E-03 0.  1.
        -11    1    3    3    0    0 -0.78276464651E+01  0.46415049434E+01 -0.16627271060E+02  0.18954729238E+02  0.51100000000E-03 0. -1.
         12    1    3    3    0    0 -0.28613599430E+01  0.10950890609E+02  0.16048996471E+01  0.11431757902E+02  0.00000000000E+00 0. -1.
</event>
<event>
 7    1  0.1450641E-013  0.7246153E+02  0.7816164E-02  0.1226708E+00
        -11   -1    0    0    0    0  0.00000000000E+00  0.00000000000E+00  0.45593999997E+02  0.45594000000E+02  0.51100000000E-03 0. -1.
         11   -1    0    0    0    0 -0.00000000000E+00 -0.00000000000E+00 -0.45593999997E+02  0.45594000000E+02  0.51100000000E-03 0.  1.
    9900012    2    1    2    0    0  0.12301463397E+02  0.72001972661E+01 -0.12145445133E+02  0.72461529968E+02  0.69999947467E+02 0.  0.
         12    1    1    2    0    0 -0.12301463397E+02 -0.72001972661E+01  0.12145445133E+02  0.18726470032E+02  0.00000000000E+00 0. -1.
         11    1    3    3    0    0 -0.55848074676E+01 -0.16202601466E+02  0.14288134457E+02  0.22312892130E+02  0.51100000000E-03 0. -1.
        -11    1    3    3    0    0  0.15733457319E+02 -0.18808651497E+01 -0.16561473247E+02  0.22920770696E+02  0.51100000000E-03 0.  1.
         12    1    3    3    0    0  0.21528135455E+01  0.25283663881E+02 -0.98721063436E+01  0.27227867142E+02  0.00000000000E+00 0. -1.
</event>
<event>
 7    1  0.1283194E-013  0.7246130E+02  0.7816164E-02  0.1226709E+00
        -11   -1    0    0    0    0  0.00000000000E+00  0.00000000000E+00  0.45593999997E+02  0.45594000000E+02  0.51100000000E-03 0.  1.
         11   -1    0    0    0    0 -0.00000000000E+00 -0.00000000000E+00 -0.45593999997E+02  0.45594000000E+02  0.51100000000E-03 0. -1.
    9900012    2    1    2    0    0 -0.56592973251E+01  0.17603933360E+02  0.29602387231E+01  0.72461304369E+02  0.69999653582E+02 0.  0.
         12    1    1    2    0    0  0.56592973251E+01 -0.17603933360E+02 -0.29602387231E+01  0.18726695631E+02  0.00000000000E+00 0. -1.
         11    1    3    3    0    0  0.10568157901E+02 -0.34973179601E+01 -0.26676092141E+02  0.28905554596E+02  0.51100000000E-03 0. -1.
        -11    1    3    3    0    0 -0.55422410182E+01 -0.28718620327E+00  0.13809673199E+02  0.14883077153E+02  0.51100000000E-03 0.  1.
         12    1    3    3    0    0 -0.10685214208E+02  0.21388437523E+02  0.15826657665E+02  0.28672672621E+02  0.00000000000E+00 0. -1.
</event>
<event>
 7    1  0.1283194E-013  0.7246135E+02  0.7816164E-02  0.1226709E+00
        -11   -1    0    0    0    0  0.00000000000E+00  0.00000000000E+00  0.45593999997E+02  0.45594000000E+02  0.51100000000E-03 0.  1.
         11   -1    0    0    0    0 -0.00000000000E+00 -0.00000000000E+00 -0.45593999997E+02  0.45594000000E+02  0.51100000000E-03 0. -1.
    9900012    2    1    2    0    0  0.19084948452E+01  0.12017611538E+02  0.14234542217E+02  0.72461347022E+02  0.69999709145E+02 0.  0.
         12    1    1    2    0    0 -0.19084948452E+01 -0.12017611538E+02 -0.14234542217E+02  0.18726652978E+02  0.00000000000E+00 0. -1.
         11    1    3    3    0    0  0.22968383137E+01  0.15152242593E+02 -0.12189495157E+02  0.19581872083E+02  0.51100000000E-03 0. -1.
        -11    1    3    3    0    0 -0.17312313980E+02  0.11218765990E+02  0.22171784422E+02  0.30284731308E+02  0.51100000000E-03 0.  1.
        -12    1    3    3    0    0  0.16923970511E+02 -0.14353397044E+02  0.42522529509E+01  0.22594743631E+02  0.00000000000E+00 0.  1.
</event>
<event>
 7    1  0.1283194E-013  0.7246157E+02  0.7816164E-02  0.1226708E+00
        -11   -1    0    0    0    0  0.00000000000E+00  0.00000000000E+00  0.45593999997E+02  0.45594000000E+02  0.51100000000E-03 0.  1.
         11   -1    0    0    0    0 -0.00000000000E+00 -0.00000000000E+00 -0.45593999997E+02  0.45594000000E+02  0.51100000000E-03 0. -1.
    9900012    2    1    2    0    0  0.64532178213E+01  0.10948434970E+02  0.13753801643E+02  0.72461566592E+02  0.69999995177E+02 0.  0.
         12    1    1    2    0    0 -0.64532178213E+01 -0.10948434970E+02 -0.13753801643E+02  0.18726433408E+02  0.00000000000E+00 0. -1.
         11    1    3    3    0    0  0.86388836842E+01 -0.47841329398E+01 -0.18464003802E+02  0.20938903409E+02  0.51100000000E-03 0. -1.
        -11    1    3    3    0    0  0.75151621682E+01  0.25222583591E+02  0.18110145939E+02  0.31947359384E+02  0.51100000000E-03 0.  1.
        -12    1    3    3    0    0 -0.97008280312E+01 -0.94900156813E+01  0.14107659505E+02  0.19575303800E+02  0.00000000000E+00 0.  1.
</event>
<event>
 7    1  0.1283194E-013  0.7246160E+02  0.7816164E-02  0.1226708E+00
        -11   -1    0    0    0    0  0.00000000000E+00  0.00000000000E+00  0.45593999997E+02  0.45594000000E+02  0.51100000000E-03 0.  1.
         11   -1    0    0    0    0 -0.00000000000E+00 -0.00000000000E+00 -0.45593999997E+02  0.45594000000E+02  0.51100000000E-03 0. -1.
    9900012    2    1    2    0    0 -0.11716741798E+01  0.14616844055E+02  0.11647015129E+02  0.72461603872E+02  0.70000043742E+02 0.  0.
         12    1    1    2    0    0  0.11716741798E+01 -0.14616844055E+02 -0.11647015129E+02  0.18726396128E+02  0.00000000000E+00 0. -1.
         11    1    3    3    0    0  0.70439958654E+01  0.10299457883E+02 -0.20154306444E+02  0.23704277651E+02  0.51100000000E-03 0. -1.
        -11    1    3    3    0    0  0.58723644048E+01  0.16103281556E+02  0.22151862030E+02  0.28009022336E+02  0.51100000000E-03 0.  1.
        -12    1    3    3    0    0 -0.14088034450E+02 -0.11785895384E+02  0.96494595432E+01  0.20748303886E+02  0.00000000000E+00 0.  1.
</event>
<event>
 7    1  0.1283194E-013  0.7246158E+02  0.7816164E-02  0.1226708E+00
        -11   -1    0    0    0    0  0.00000000000E+00  0.00000000000E+00  0.45593999997E+02  0.45594000000E+02  0.51100000000E-03 0. -1.
         11   -1    0    0    0    0 -0.00000000000E+00 -0.00000000000E+00 -0.45593999997E+02  0.45594000000E+02  0.51100000000E-03 0.  1.
    9900012    2    1    2    0    0  0.48362480907E+01  0.10397478411E+02  0.14804800999E+02  0.72461575207E+02  0.70000006400E+02 0.  0.
         12    1    1    2    0    0 -0.48362480907E+01 -0.10397478411E+02 -0.14804800999E+02  0.18726424793E+02  0.00000000000E+00 0. -1.
         11    1    3    3    0    0  0.67493983743E+01  0.28824606629E+02  0.17689449847E+02  0.34486649039E+02  0.51100000000E-03 0. -1.
        -11    1    3    3    0    0  0.11575844245E+02 -0.19094827961E+02  0.42043057471E+01  0.22721989612E+02  0.51100000000E-03 0.  1.
         12    1    3    3    0    0 -0.13488994529E+02  0.66769974278E+00 -0.70889545949E+01  0.15252936556E+02  0.00000000000E+00 0. -1.
</event>
<event>
 7    1  0.1283194E-013  0.7246158E+02  0.7816164E-02  0.1226708E+00
        -11   -1    0    0    0    0  0.00000000000E+00  0.00000000000E+00  0.45593999997E+02  0.45594000000E+02  0.51100000000E-03 0.  1.
         11   -1    0    0    0    0 -0.00000000000E+00 -0.00000000000E+00 -0.45593999997E+02  0.45594000000E+02  0.51100000000E-03 0. -1.
    9900012    2    1    2    0    0  0.17984767682E+02  0.93899314715E+00  0.51327753110E+01  0.72461575913E+02  0.70000007319E+02 0.  0.
         12    1    1    2    0    0 -0.17984767682E+02 -0.93899314715E+00 -0.51327753110E+01  0.18726424087E+02  0.00000000000E+00 0. -1.
         11    1    3    3    0    0 -0.15225914359E+02  0.22748662659E+02  0.23243931833E+01  0.27472402967E+02  0.51100000000E-03 0. -1.
        -11    1    3    3    0    0  0.25428909121E+02 -0.71864991973E+01 -0.46359342470E+01  0.26828475104E+02  0.51100000000E-03 0.  1.
         12    1    3    3    0    0  0.77817729208E+01 -0.14623170314E+02  0.74443163746E+01  0.18160697842E+02  0.00000000000E+00 0. -1.
</event>
<event>
 7    1  0.1283194E-013  0.7246155E+02  0.7816164E-02  0.1226708E+00
        -11   -1    0    0    0    0  0.00000000000E+00  0.00000000000E+00  0.45593999997E+02  0.45594000000E+02  0.51100000000E-03 0. -1.
         11   -1    0    0    0    0 -0.00000000000E+00 -0.00000000000E+00 -0.45593999997E+02  0.45594000000E+02  0.51100000000E-03 0.  1.
    9900012    2    1    2    0    0  0.12522652057E+02  0.13482647125E+02 -0.34758123404E+01  0.72461551873E+02  0.69999976003E+02 0.  0.
         12    1    1    2    0    0 -0.12522652057E+02 -0.13482647125E+02  0.34758123404E+01  0.18726448127E+02  0.00000000000E+00 0. -1.
         11    1    3    3    0    0  0.37101525119E+02  0.22776749159E+02  0.28898936767E+01  0.43630894491E+02  0.51100000000E-03 0. -1.
        -11    1    3    3    0    0 -0.44226028158E+01  0.20403119527E+01 -0.21544843888E+01  0.53257949428E+01  0.51100000000E-03 0.  1.
         12    1    3    3    0    0 -0.20156270247E+02 -0.11334413986E+02 -0.42112216284E+01  0.23504862439E+02  0.00000000000E+00 0. -1.
</event>
<event>
 7    1  0.1283194E-013  0.7246157E+02  0.7816164E-02  0.1226708E+00
        -11   -1    0    0    0    0  0.00000000000E+00  0.00000000000E+00  0.45593999997E+02  0.45594000000E+02  0.51100000000E-03 0.  1.
         11   -1    0    0    0    0 -0.00000000000E+00 -0.00000000000E+00 -0.45593999997E+02  0.45594000000E+02  0.51100000000E-03 0. -1.
    9900012    2    1    2    0    0 -0.35752501675E+01 -0.16883861079E+02  0.72685603527E+01  0.72461570861E+02  0.70000000738E+02 0.  0.
         12    1    1    2    0    0  0.35752501675E+01  0.16883861079E+02 -0.72685603527E+01  0.18726429139E+02  0.00000000000E+00 0. -1.
         11    1    3    3    0    0 -0.23171482137E+02 -0.21969169209E+02 -0.16460116942E+02  0.35923494125E+02  0.51100000000E-03 0. -1.
        -11    1    3    3    0    0 -0.77464265958E+00  0.52887459353E+01  0.10846350627E+00  0.53462762191E+01  0.51100000000E-03 0.  1.
         12    1    3    3    0    0  0.20370874629E+02 -0.20343780587E+00  0.23620213788E+02  0.31191800517E+02  0.00000000000E+00 0. -1.
</event>
<event>
 7    1  0.1283194E-013  0.7246157E+02  0.7816164E-02  0.1226708E+00
        -11   -1    0    0    0    0  0.00000000000E+00  0.00000000000E+00  0.45593999997E+02  0.45594000000E+02  0.51100000000E-03 0.  1.
         11   -1    0    0    0    0 -0.00000000000E+00 -0.00000000000E+00 -0.45593999997E+02  0.45594000000E+02  0.51100000000E-03 0. -1.
    9900012    2    1    2    0    0  0.35838289052E+01 -0.18264637299E+02  0.20587552233E+01  0.72461567388E+02  0.69999996214E+02 0.  0.
         12    1    1    2    0    0 -0.35838289052E+01  0.18264637299E+02 -0.20587552233E+01  0.18726432612E+02  0.00000000000E+00 0. -1.
         11    1    3    3    0    0  0.52382698107E+01  0.12830835110E+02  0.18337556790E+02  0.22985556106E+02  0.51100000000E-03 0. -1.
        -11    1    3    3    0    0  0.49822856878E+01 -0.12904516351E+02 -0.24739756980E+02  0.28344404891E+02  0.51100000000E-03 0.  1.
        -12    1    3    3    0    0 -0.66367265933E+01 -0.18190956058E+02  0.84609554127E+01  0.21131606391E+02  0.00000000000E+00 0.  1.
</event>
<event>
 7    1  0.1283194E-013  0.7246158E+02  0.7816164E-02  0.1226708E+00
        -11   -1    0    0    0    0  0.00000000000E+00  0.00000000000E+00  0.45593999997E+02  0.45594000000E+02  0.51100000000E-03 0.  1.
         11   -1    0    0    0    0 -0.00000000000E+00 -0.00000000000E+00 -0.45593999997E+02  0.45594000000E+02  0.51100000000E-03 0. -1.
    9900012    2    1    2    0    0  0.12394457142E+01  0.17189703130E+02 -0.73250780461E+01  0.72461577817E+02  0.70000009800E+02 0.  0.
         12    1    1    2    0    0 -0.12394457142E+01 -0.17189703130E+02  0.73250780461E+01  0.18726422183E+02  0.00000000000E+00 0. -1.
         11    1    3    3    0    0 -0.23752188970E+02  0.22755707162E+01 -0.19793736178E+02  0.31002204681E+02  0.51100000000E-03 0.  1.
        -11    1    3    3    0    0  0.19586440129E+02  0.21852114356E+02  0.14030334884E+02  0.32526817182E+02  0.51100000000E-03 0. -1.
        -12    1    3    3    0    0  0.54051945552E+01 -0.69379819418E+01 -0.15616767530E+01  0.89325559547E+01  0.00000000000E+00 0.  1.
</event>
<event>
 7    1  0.1283194E-013  0.7246158E+02  0.7816164E-02  0.1226708E+00
        -11   -1    0    0    0    0  0.00000000000E+00  0.00000000000E+00  0.45593999997E+02  0.45594000000E+02  0.51100000000E-03 0.  1.
         11   -1    0    0    0    0 -0.00000000000E+00 -0.00000000000E+00 -0.45593999997E+02  0.45594000000E+02  0.51100000000E-03 0. -1.
    9900012    2    1    2    0    0 -0.99634568443E+01  0.62605466951E+01  0.14567562631E+02  0.72461580208E+02  0.70000012914E+02 0.  0.
         12    1    1    2    0    0  0.99634568443E+01 -0.62605466951E+01 -0.14567562631E+02  0.18726419792E+02  0.00000000000E+00 0. -1.
         11    1    3    3    0    0  0.99692110274E+01  0.24061463466E+02 -0.78854978914E+01  0.27212502088E+02  0.51100000000E-03 0. -1.
        -11    1    3    3    0    0  0.39232897902E+00 -0.17737809887E+02  0.16089432028E+02  0.23951067718E+02  0.51100000000E-03 0.  1.
         12    1    3    3    0    0 -0.20324996851E+02 -0.63106883649E-01  0.63636284953E+01  0.21298010402E+02  0.00000000000E+00 0. -1.
</event>
<event>
 7    1  0.1283194E-013  0.7246160E+02  0.7816164E-02  0.1226708E+00
        -11   -1    0    0    0    0  0.00000000000E+00  0.00000000000E+00  0.45593999997E+02  0.45594000000E+02  0.51100000000E-03 0.  1.
         11   -1    0    0    0    0 -0.00000000000E+00 -0.00000000000E+00 -0.45593999997E+02  0.45594000000E+02  0.51100000000E-03 0. -1.
    9900012    2    1    2    0    0 -0.15554629248E+02  0.10169278154E+02  0.23059426819E+01  0.72461599361E+02  0.70000037865E+02 0.  0.
         12    1    1    2    0    0  0.15554629248E+02 -0.10169278154E+02 -0.23059426819E+01  0.18726400639E+02  0.00000000000E+00 0. -1.
         11    1    3    3    0    0  0.13369133432E+02 -0.32207338272E+01  0.33107105615E+00  0.13755597530E+02  0.51100000000E-03 0. -1.
        -11    1    3    3    0    0 -0.10958330818E+02  0.15533253234E+02  0.23733376979E+02  0.30407896235E+02  0.51100000000E-03 0.  1.
        -12    1    3    3    0    0 -0.17965431863E+02 -0.21432412527E+01 -0.21758505354E+02  0.28298105596E+02  0.00000000000E+00 0.  1.
</event>
<event>
 7    1  0.1283194E-013  0.7246154E+02  0.7816164E-02  0.1226708E+00
        -11   -1    0    0    0    0  0.00000000000E+00  0.00000000000E+00  0.45593999997E+02  0.45594000000E+02  0.51100000000E-03 0.  1.
         11   -1    0    0    0    0 -0.00000000000E+00 -0.00000000000E+00 -0.45593999997E+02  0.45594000000E+02  0.51100000000E-03 0. -1.
    9900012    2    1    2    0    0  0.53934075780E+00 -0.11531674223E+02  0.14744828548E+02  0.72461538301E+02  0.69999958323E+02 0.  0.
         12    1    1    2    0    0 -0.53934075780E+00  0.11531674223E+02 -0.14744828548E+02  0.18726461699E+02  0.00000000000E+00 0. -1.
         11    1    3    3    0    0  0.93936500040E+01  0.21638097020E+02  0.24975137578E+01  0.23720992354E+02  0.51100000000E-03 0. -1.
        -11    1    3    3    0    0 -0.11530387843E+02 -0.33301067363E+02 -0.97029721206E+00  0.35254111934E+02  0.51100000000E-03 0.  1.
         12    1    3    3    0    0  0.26760785973E+01  0.13129612060E+00  0.13217612002E+02  0.13486434013E+02  0.00000000000E+00 0. -1.
</event>
<event>
 7    1  0.1283194E-013  0.7246119E+02  0.7816164E-02  0.1226709E+00
        -11   -1    0    0    0    0  0.00000000000E+00  0.00000000000E+00  0.45593999997E+02  0.45594000000E+02  0.51100000000E-03 0.  1.
         11   -1    0    0    0    0 -0.00000000000E+00 -0.00000000000E+00 -0.45593999997E+02  0.45594000000E+02  0.51100000000E-03 0. -1.
    9900012    2    1    2    0    0  0.98593905722E+01  0.10926698567E+02 -0.11579856844E+02  0.72461190113E+02  0.69999504741E+02 0.  0.
         12    1    1    2    0    0 -0.98593905722E+01 -0.10926698567E+02  0.11579856844E+02  0.18726809887E+02  0.00000000000E+00 0. -1.
         11    1    3    3    0    0 -0.21019798903E+02  0.20121135904E+01 -0.13846355723E+02  0.25250784425E+02  0.51100000000E-03 0. -1.
        -11    1    3    3    0    0  0.28261984613E+02  0.14666439392E+02 -0.10031556384E+02  0.33383773641E+02  0.51100000000E-03 0.  1.
        -12    1    3    3    0    0  0.26172048618E+01 -0.57518544153E+01  0.12298055263E+02  0.13826632047E+02  0.00000000000E+00 0.  1.
</event>
<event>
 7    1  0.1283194E-013  0.7246157E+02  0.7816164E-02  0.1226708E+00
        -11   -1    0    0    0    0  0.00000000000E+00  0.00000000000E+00  0.45593999997E+02  0.45594000000E+02  0.51100000000E-03 0.  1.
         11   -1    0    0    0    0 -0.00000000000E+00 -0.00000000000E+00 -0.45593999997E+02  0.45594000000E+02  0.51100000000E-03 0. -1.
    9900012    2    1    2    0    0 -0.11924054838E+02  0.43738599452E+01  0.13761012540E+02  0.72461569461E+02  0.69999998914E+02 0.  0.
         12    1    1    2    0    0  0.11924054838E+02 -0.43738599452E+01 -0.13761012540E+02  0.18726430539E+02  0.00000000000E+00 0. -1.
         11    1    3    3    0    0  0.15916503660E+02 -0.10024340239E+02 -0.42278835398E+01  0.19279457604E+02  0.51100000000E-03 0. -1.
        -11    1    3    3    0    0 -0.32282416632E+02  0.23444128775E+02  0.15495362802E+02  0.42800559182E+02  0.51100000000E-03 0.  1.
        -12    1    3    3    0    0  0.44418581336E+01 -0.90459285909E+01  0.24935332779E+01  0.10381552676E+02  0.00000000000E+00 0.  1.
</event>
<event>
 7    1  0.1283194E-013  0.7246159E+02  0.7816164E-02  0.1226708E+00
        -11   -1    0    0    0    0  0.00000000000E+00  0.00000000000E+00  0.45593999997E+02  0.45594000000E+02  0.51100000000E-03 0.  1.
         11   -1    0    0    0    0 -0.00000000000E+00 -0.00000000000E+00 -0.45593999997E+02  0.45594000000E+02  0.51100000000E-03 0. -1.
    9900012    2    1    2    0    0  0.39158417775E+01  0.15668296575E+02 -0.94788806983E+01  0.72461587806E+02  0.70000022812E+02 0.  0.
         12    1    1    2    0    0 -0.39158417775E+01 -0.15668296575E+02  0.94788806983E+01  0.18726412194E+02  0.00000000000E+00 0. -1.
         11    1    3    3    0    0  0.69157539585E+01  0.28570580188E+02 -0.10560690370E+02  0.31235138649E+02  0.51100000000E-03 0. -1.
        -11    1    3    3    0    0 -0.94568564397E+01 -0.24350857305E+02 -0.52371299001E+01  0.26642520809E+02  0.51100000000E-03 0.  1.
        -12    1    3    3    0    0  0.64569442587E+01  0.11448573692E+02  0.63189395720E+01  0.14583928348E+02  0.00000000000E+00 0.  1.
</event>
<event>
 7    1  0.1283194E-013  0.7246152E+02  0.7816164E-02  0.1226708E+00
        -11   -1    0    0    0    0  0.00000000000E+00  0.00000000000E+00  0.45593999997E+02  0.45594000000E+02  0.51100000000E-03 0.  1.
         11   -1    0    0    0    0 -0.00000000000E+00 -0.00000000000E+00 -0.45593999997E+02  0.45594000000E+02  0.51100000000E-03 0. -1.
    9900012    2    1    2    0    0 -0.61288782144E+01  0.97429826814E+01 -0.14771326776E+02  0.72461522637E+02  0.69999937918E+02 0.  0.
         12    1    1    2    0    0  0.61288782144E+01 -0.97429826814E+01  0.14771326776E+02  0.18726477363E+02  0.00000000000E+00 0. -1.
         11    1    3    3    0    0 -0.13985158878E+02  0.18658760449E+02 -0.35175092467E+02  0.42202146162E+02  0.51100000000E-03 0. -1.
        -11    1    3    3    0    0 -0.28606178892E+01 -0.10314254538E+02  0.14251029248E+02  0.17822985616E+02  0.51100000000E-03 0.  1.
         12    1    3    3    0    0  0.10716898553E+02  0.13984767697E+01  0.61527364433E+01  0.12436390859E+02  0.00000000000E+00 0. -1.
</event>
<event>
 7    1  0.1283194E-013  0.7246187E+02  0.7816164E-02  0.1226707E+00
        -11   -1    0    0    0    0  0.00000000000E+00  0.00000000000E+00  0.45593999997E+02  0.45594000000E+02  0.51100000000E-03 0. -1.
         11   -1    0    0    0    0 -0.00000000000E+00 -0.00000000000E+00 -0.45593999997E+02  0.45594000000E+02  0.51100000000E-03 0.  1.
    9900012    2    1    2    0    0 -0.49883143122E+01  0.17002783094E+02 -0.60572398061E+01  0.72461866745E+02  0.70000386181E+02 0.  0.
         12    1    1    2    0    0  0.49883143122E+01 -0.17002783094E+02  0.60572398061E+01  0.18726133255E+02  0.00000000000E+00 0. -1.
         11    1    3    3    0    0 -0.29593093511E+01  0.12720089479E+02  0.17715386545E+02  0.22008932479E+02  0.51100000000E-03 0. -1.
        -11    1    3    3    0    0  0.84998349096E+01 -0.13647714651E+02 -0.24888174771E+02  0.29629859135E+02  0.51100000000E-03 0.  1.
        -12    1    3    3    0    0 -0.10528839871E+02  0.17930408266E+02  0.11155484199E+01  0.20823075131E+02  0.00000000000E+00 0.  1.
</event>
<event>
 7    1  0.1283194E-013  0.7246121E+02  0.7816164E-02  0.1226709E+00
        -11   -1    0    0    0    0  0.00000000000E+00  0.00000000000E+00  0.45593999997E+02  0.45594000000E+02  0.51100000000E-03 0.  1.
         11   -1    0    0    0    0 -0.00000000000E+00 -0.00000000000E+00 -0.45593999997E+02  0.45594000000E+02  0.51100000000E-03 0. -1.
    9900012    2    1    2    0    0 -0.61077748512E+01  0.44699657021E+01  0.17129134390E+02  0.72461207643E+02  0.69999527578E+02 0.  0.
         12    1    1    2    0    0  0.61077748512E+01 -0.44699657021E+01 -0.17129134390E+02  0.18726792357E+02  0.00000000000E+00 0. -1.
         11    1    3    3    0    0 -0.25776484900E+02  0.15268166732E+02 -0.29988977006E+01  0.30108760799E+02  0.51100000000E-03 0.  1.
        -11    1    3    3    0    0  0.19790030988E+02  0.40381744729E+01  0.42860387666E+01  0.20647573904E+02  0.51100000000E-03 0. -1.
        -12    1    3    3    0    0 -0.12132093853E+00 -0.14836375503E+02  0.15841993324E+02  0.21704872940E+02  0.00000000000E+00 0.  1.
</event>
<event>
 7    1  0.1283194E-013  0.7246159E+02  0.7816164E-02  0.1226708E+00
        -11   -1    0    0    0    0  0.00000000000E+00  0.00000000000E+00  0.45593999997E+02  0.45594000000E+02  0.51100000000E-03 0.  1.
         11   -1    0    0    0    0 -0.00000000000E+00 -0.00000000000E+00 -0.45593999997E+02  0.45594000000E+02  0.51100000000E-03 0. -1.
    9900012    2    1    2    0    0  0.50245924630E+01 -0.10542908884E+02  0.14638265205E+02  0.72461594436E+02  0.70000031448E+02 0.  0.
         12    1    1    2    0    0 -0.50245924630E+01  0.10542908884E+02 -0.14638265205E+02  0.18726405564E+02  0.00000000000E+00 0. -1.
         11    1    3    3    0    0 -0.17214305556E+02 -0.32345541350E+01 -0.16996265837E+02  0.24406304696E+02  0.51100000000E-03 0. -1.
        -11    1    3    3    0    0  0.23073442614E+02 -0.12310421132E+02  0.33633358068E+02  0.42604377682E+02  0.51100000000E-03 0.  1.
         12    1    3    3    0    0 -0.83454459425E+00  0.50020663826E+01 -0.19988270268E+01  0.54509120575E+01  0.00000000000E+00 0. -1.
</event>
<event>
 7    1  0.1283194E-013  0.7246157E+02  0.7816164E-02  0.1226708E+00
        -11   -1    0    0    0    0  0.00000000000E+00  0.00000000000E+00  0.45593999997E+02  0.45594000000E+02  0.51100000000E-03 0.  1.
         11   -1    0    0    0    0 -0.00000000000E+00 -0.00000000000E+00 -0.45593999997E+02  0.45594000000E+02  0.51100000000E-03 0. -1.
    9900012    2    1    2    0    0  0.65273065031E+01  0.17211702201E+02  0.34395829220E+01  0.72461570722E+02  0.70000000557E+02 0.  0.
         12    1    1    2    0    0 -0.65273065031E+01 -0.17211702201E+02 -0.34395829220E+01  0.18726429278E+02  0.00000000000E+00 0. -1.
         11    1    3    3    0    0 -0.21393745381E+02 -0.30074992101E-01 -0.13589318127E+02  0.25344877458E+02  0.51100000000E-03 0. -1.
        -11    1    3    3    0    0  0.30375845953E+02  0.63951103755E+01  0.63213853354E+01  0.31678847310E+02  0.51100000000E-03 0.  1.
        -12    1    3    3    0    0 -0.24547940681E+01  0.10846666817E+02  0.10707515713E+02  0.15437845954E+02  0.00000000000E+00 0.  1.
</event>
<event>
 7    1  0.1283194E-013  0.7246162E+02  0.7816164E-02  0.1226708E+00
        -11   -1    0    0    0    0  0.00000000000E+00  0.00000000000E+00  0.45593999997E+02  0.45594000000E+02  0.51100000000E-03 0.  1.
         11   -1    0    0    0    0 -0.00000000000E+00 -0.00000000000E+00 -0.45593999997E+02  0.45594000000E+02  0.51100000000E-03 0. -1.
    9900012    2    1    2    0    0  0.15712654010E+02 -0.99825719969E+01 -0.20342622503E+01  0.72461615869E+02  0.70000059370E+02 0.  0.
         12    1    1    2    0    0 -0.15712654010E+02  0.99825719969E+01  0.20342622503E+01  0.18726384131E+02  0.00000000000E+00 0. -1.
         11    1    3    3    0    0 -0.15685497860E+02 -0.10102792460E+02  0.11230876652E+02  0.21776910921E+02  0.51100000000E-03 0. -1.
        -11    1    3    3    0    0  0.42611522574E+01 -0.57305508203E+01 -0.20740341982E+02  0.21935323500E+02  0.51100000000E-03 0.  1.
        -12    1    3    3    0    0  0.27136999612E+02  0.58507712839E+01  0.74752030800E+01  0.28749381448E+02  0.00000000000E+00 0.  1.
</event>
<event>
 7    1  0.1283194E-013  0.7246157E+02  0.7816164E-02  0.1226708E+00
        -11   -1    0    0    0    0  0.00000000000E+00  0.00000000000E+00  0.45593999997E+02  0.45594000000E+02  0.51100000000E-03 0.  1.
         11   -1    0    0    0    0 -0.00000000000E+00 -0.00000000000E+00 -0.45593999997E+02  0.45594000000E+02  0.51100000000E-03 0. -1.
    9900012    2    1    2    0    0 -0.89750262186E+01  0.14307694718E+02  0.80881370907E+01  0.72461569872E+02  0.69999999449E+02 0.  0.
         12    1    1    2    0    0  0.89750262186E+01 -0.14307694718E+02 -0.80881370907E+01  0.18726430128E+02  0.00000000000E+00 0. -1.
         11    1    3    3    0    0 -0.30959310400E+02  0.19631809651E+02  0.65095432436E+01  0.37232526158E+02  0.51100000000E-03 0. -1.
        -11    1    3    3    0    0  0.21607198398E+02  0.63426542144E+01 -0.29443293954E+01  0.22710556157E+02  0.51100000000E-03 0.  1.
         12    1    3    3    0    0  0.37708578296E+00 -0.11666769148E+02  0.45229232425E+01  0.12518487556E+02  0.00000000000E+00 0. -1.
</event>
<event>
 7    1  0.1283194E-013  0.7246154E+02  0.7816164E-02  0.1226708E+00
        -11   -1    0    0    0    0  0.00000000000E+00  0.00000000000E+00  0.45593999997E+02  0.45594000000E+02  0.51100000000E-03 0.  1.
         11   -1    0    0    0    0 -0.00000000000E+00 -0.00000000000E+00 -0.45593999997E+02  0.45594000000E+02  0.51100000000E-03 0. -1.
    9900012    2    1    2    0    0  0.37709016181E+01 -0.63097263442E+01  0.17223469264E+02  0.72461541738E+02  0.69999962800E+02 0.  0.
         12    1    1    2    0    0 -0.37709016181E+01  0.63097263442E+01 -0.17223469264E+02  0.18726458262E+02  0.00000000000E+00 0. -1.
         11    1    3    3    0    0  0.32501847752E+01 -0.64213917313E+01 -0.26046955002E+02  0.27022987214E+02  0.51100000000E-03 0. -1.
        -11    1    3    3    0    0 -0.30952173860E+01  0.55528932864E+01  0.29759980399E+02  0.30431421724E+02  0.51100000000E-03 0.  1.
         12    1    3    3    0    0  0.36159342288E+01 -0.54412278992E+01  0.13510443867E+02  0.15007132800E+02  0.00000000000E+00 0. -1.
</event>
<event>
 7    1  0.1283194E-013  0.7246157E+02  0.7816164E-02  0.1226708E+00
        -11   -1    0    0    0    0  0.00000000000E+00  0.00000000000E+00  0.45593999997E+02  0.45594000000E+02  0.51100000000E-03 0.  1.
         11   -1    0    0    0    0 -0.00000000000E+00 -0.00000000000E+00 -0.45593999997E+02  0.45594000000E+02  0.51100000000E-03 0. -1.
    9900012    2    1    2    0    0  0.15261535378E+02  0.86642912763E+01  0.65341123551E+01  0.72461574028E+02  0.70000004863E+02 0.  0.
         12    1    1    2    0    0 -0.15261535378E+02 -0.86642912763E+01 -0.65341123551E+01  0.18726425972E+02  0.00000000000E+00 0. -1.
         11    1    3    3    0    0  0.12452419394E+02  0.76753545655E+01 -0.15208087794E+02  0.21101178902E+02  0.51100000000E-03 0. -1.
        -11    1    3    3    0    0 -0.10320313858E+02 -0.16289067701E+02  0.22517676446E+02  0.29646051296E+02  0.51100000000E-03 0.  1.
        -12    1    3    3    0    0  0.13129429842E+02  0.17278004412E+02 -0.77547629710E+00  0.21714343829E+02  0.00000000000E+00 0.  1.
</event>
<event>
 7    1  0.1283194E-013  0.7246160E+02  0.7816164E-02  0.1226708E+00
        -11   -1    0    0    0    0  0.00000000000E+00  0.00000000000E+00  0.45593999997E+02  0.45594000000E+02  0.51100000000E-03 0. -1.
         11   -1    0    0    0    0 -0.00000000000E+00 -0.00000000000E+00 -0.45593999997E+02  0.45594000000E+02  0.51100000000E-03 0.  1.
    9900012    2    1    2    0    0 -0.10012886277E+01 -0.21492698454E+01 -0.18575688250E+02  0.72461597950E+02  0.70000036027E+02 0.  0.
         12    1    1    2    0    0  0.10012886277E+01  0.21492698454E+01  0.18575688250E+02  0.18726402050E+02  0.00000000000E+00 0. -1.
         11    1    3    3    0    0 -0.91115391079E-02  0.35275115605E+01  0.20143777518E+02  0.20450310359E+02  0.51100000000E-03 0. -1.
        -11    1    3    3    0    0  0.62952971843E+01 -0.18625733120E+02 -0.24832702450E+02  0.31673519100E+02  0.51100000000E-03 0.  1.
        -12    1    3    3    0    0 -0.72874742729E+01  0.12948951714E+02 -0.13886763317E+02  0.20337768491E+02  0.00000000000E+00 0.  1.
</event>
<event>
 7    1  0.1283194E-013  0.7246160E+02  0.7816164E-02  0.1226708E+00
        -11   -1    0    0    0    0  0.00000000000E+00  0.00000000000E+00  0.45593999997E+02  0.45594000000E+02  0.51100000000E-03 0. -1.
         11   -1    0    0    0    0 -0.00000000000E+00 -0.00000000000E+00 -0.45593999997E+02  0.45594000000E+02  0.51100000000E-03 0.  1.
    9900012    2    1    2    0    0  0.17703447948E+02  0.60791105211E+01  0.55702021631E+00  0.72461603510E+02  0.70000043269E+02 0.  0.
         12    1    1    2    0    0 -0.17703447948E+02 -0.60791105211E+01 -0.55702021631E+00  0.18726396490E+02  0.00000000000E+00 0. -1.
         11    1    3    3    0    0  0.18723840730E+01 -0.13406452462E+02  0.25164404133E+01  0.13768488020E+02  0.51100000000E-03 0. -1.
        -11    1    3    3    0    0 -0.44167670177E+00  0.22610829643E+02 -0.22769397995E+02  0.32091902106E+02  0.51100000000E-03 0.  1.
        -12    1    3    3    0    0  0.16272740577E+02 -0.31252666596E+01  0.20809977798E+02  0.26601213385E+02  0.00000000000E+00 0.  1.
</event>
<event>
 7    1  0.1283194E-013  0.7246154E+02  0.7816164E-02  0.1226708E+00
        -11   -1    0    0    0    0  0.00000000000E+00  0.00000000000E+00  0.45593999997E+02  0.45594000000E+02  0.51100000000E-03 0. -1.
         11   -1    0    0    0    0 -0.00000000000E+00 -0.00000000000E+00 -0.45593999997E+02  0.45594000000E+02  0.51100000000E-03 0.  1.
    9900012    2    1    2    0    0 -0.95917885622E+01 -0.16053888099E+02  0.97492806956E+00  0.72461542362E+02  0.69999963613E+02 0.  0.
         12    1    1    2    0    0  0.95917885622E+01  0.16053888099E+02 -0.97492806956E+00  0.18726457638E+02  0.00000000000E+00 0. -1.
         11    1    3    3    0    0  0.18069413894E+02 -0.19400889459E+02  0.10256309993E+02  0.28426926060E+02  0.51100000000E-03 0. -1.
        -11    1    3    3    0    0 -0.31068696282E+02 -0.68995444363E+01 -0.42034646546E+01  0.32101973732E+02  0.51100000000E-03 0.  1.
         12    1    3    3    0    0  0.34074938258E+01  0.10246545796E+02 -0.50779172693E+01  0.11932642570E+02  0.00000000000E+00 0. -1.
</event>
<event>
 7    1  0.1283194E-013  0.7246143E+02  0.7816164E-02  0.1226708E+00
        -11   -1    0    0    0    0  0.00000000000E+00  0.00000000000E+00  0.45593999997E+02  0.45594000000E+02  0.51100000000E-03 0.  1.
         11   -1    0    0    0    0 -0.00000000000E+00 -0.00000000000E+00 -0.45593999997E+02  0.45594000000E+02  0.51100000000E-03 0. -1.
    9900012    2    1    2    0    0 -0.13859149136E+02 -0.10708579061E+02  0.66283228376E+01  0.72461432137E+02  0.69999820024E+02 0.  0.
         12    1    1    2    0    0  0.13859149136E+02  0.10708579061E+02 -0.66283228376E+01  0.18726567863E+02  0.00000000000E+00 0. -1.
         11    1    3    3    0    0 -0.30877219334E+02 -0.13776269116E+02 -0.10907646557E+02  0.35526961849E+02  0.51100000000E-03 0. -1.
        -11    1    3    3    0    0 -0.38509861697E+01 -0.13739637153E+01  0.14882108920E+02  0.15433568509E+02  0.51100000000E-03 0.  1.
         12    1    3    3    0    0  0.20869056368E+02  0.44416537701E+01  0.26538604752E+01  0.21500901779E+02  0.00000000000E+00 0. -1.
</event>
<event>
 7    1  0.1283194E-013  0.7246134E+02  0.7816164E-02  0.1226709E+00
        -11   -1    0    0    0    0  0.00000000000E+00  0.00000000000E+00  0.45593999997E+02  0.45594000000E+02  0.51100000000E-03 0.  1.
         11   -1    0    0    0    0 -0.00000000000E+00 -0.00000000000E+00 -0.45593999997E+02  0.45594000000E+02  0.51100000000E-03 0. -1.
    9900012    2    1    2    0    0 -0.11658817668E+02 -0.33737791823E+01  0.14261040518E+02  0.72461342742E+02  0.69999703571E+02 0.  0.
         12    1    1    2    0    0  0.11658817668E+02  0.33737791823E+01 -0.14261040518E+02  0.18726657258E+02  0.00000000000E+00 0. -1.
         11    1    3    3    0    0  0.20607338704E+02 -0.16177847716E+02 -0.55302315995E+01  0.26776269849E+02  0.51100000000E-03 0. -1.
        -11    1    3    3    0    0 -0.20877928134E+02 -0.36160077827E+01  0.10507720190E+02  0.23651122157E+02  0.51100000000E-03 0.  1.
        -12    1    3    3    0    0 -0.11388228238E+02  0.16420076317E+02  0.92835519280E+01  0.22033950736E+02  0.00000000000E+00 0.  1.
</event>
<event>
 7    1  0.1283194E-013  0.7246158E+02  0.7816164E-02  0.1226708E+00
        -11   -1    0    0    0    0  0.00000000000E+00  0.00000000000E+00  0.45593999997E+02  0.45594000000E+02  0.51100000000E-03 0. -1.
         11   -1    0    0    0    0 -0.00000000000E+00 -0.00000000000E+00 -0.45593999997E+02  0.45594000000E+02  0.51100000000E-03 0.  1.
    9900012    2    1    2    0    0 -0.14303315011E+02  0.10692692065E+02 -0.56356371921E+01  0.72461577745E+02  0.70000009706E+02 0.  0.
         12    1    1    2    0    0  0.14303315011E+02 -0.10692692065E+02  0.56356371921E+01  0.18726422255E+02  0.00000000000E+00 0. -1.
         11    1    3    3    0    0  0.55114438361E+01 -0.23427871320E+02  0.45524491200E+01  0.24494202600E+02  0.51100000000E-03 0. -1.
        -11    1    3    3    0    0 -0.16727742947E+01  0.27181311464E+02 -0.82084506825E+01  0.28442934617E+02  0.51100000000E-03 0.  1.
         12    1    3    3    0    0 -0.18141984553E+02  0.69392519206E+01 -0.19796356297E+01  0.19524440529E+02  0.00000000000E+00 0. -1.
</event>
<event>
 7    1  0.1283194E-013  0.7246106E+02  0.7816164E-02  0.1226709E+00
        -11   -1    0    0    0    0  0.00000000000E+00  0.00000000000E+00  0.45593999997E+02  0.45594000000E+02  0.51100000000E-03 0. -1.
         11   -1    0    0    0    0 -0.00000000000E+00 -0.00000000000E+00 -0.45593999997E+02  0.45594000000E+02  0.51100000000E-03 0.  1.
    9900012    2    1    2    0    0 -0.14791270145E+02 -0.32692516433E+01 -0.11010381680E+02  0.72461062622E+02  0.69999338660E+02 0.  0.
         12    1    1    2    0    0  0.14791270145E+02  0.32692516433E+01  0.11010381680E+02  0.18726937378E+02  0.00000000000E+00 0. -1.
         11    1    3    3    0    0  0.20424949444E+01 -0.27010063524E+02 -0.44979085274E+01  0.27458086215E+02  0.51100000000E-03 0. -1.
        -11    1    3    3    0    0 -0.11628222446E+02  0.19405616058E+02 -0.19815741910E+02  0.30074193582E+02  0.51100000000E-03 0.  1.
         12    1    3    3    0    0 -0.52055426431E+01  0.43351958226E+01  0.13303268758E+02  0.14928782826E+02  0.00000000000E+00 0. -1.
</event>
<event>
 7    1  0.1283194E-013  0.7246157E+02  0.7816164E-02  0.1226708E+00
        -11   -1    0    0    0    0  0.00000000000E+00  0.00000000000E+00  0.45593999997E+02  0.45594000000E+02  0.51100000000E-03 0.  1.
         11   -1    0    0    0    0 -0.00000000000E+00 -0.00000000000E+00 -0.45593999997E+02  0.45594000000E+02  0.51100000000E-03 0. -1.
    9900012    2    1    2    0    0 -0.78558463770E+01  0.30880321253E+01  0.16716122498E+02  0.72461574391E+02  0.70000005337E+02 0.  0.
         12    1    1    2    0    0  0.78558463770E+01 -0.30880321253E+01 -0.16716122498E+02  0.18726425609E+02  0.00000000000E+00 0. -1.
         11    1    3    3    0    0  0.39846221205E+01 -0.12597014136E+01 -0.99009581327E+01  0.10746768505E+02  0.51100000000E-03 0. -1.
        -11    1    3    3    0    0  0.82754570218E-01  0.24308862976E+02  0.29567352608E+02  0.38277356335E+02  0.51100000000E-03 0.  1.
        -12    1    3    3    0    0 -0.11923223068E+02 -0.19961129437E+02 -0.29502719771E+01  0.23437449551E+02  0.00000000000E+00 0.  1.
</event>
<event>
 7    1  0.1283194E-013  0.7246157E+02  0.7816164E-02  0.1226708E+00
        -11   -1    0    0    0    0  0.00000000000E+00  0.00000000000E+00  0.45593999997E+02  0.45594000000E+02  0.51100000000E-03 0.  1.
         11   -1    0    0    0    0 -0.00000000000E+00 -0.00000000000E+00 -0.45593999997E+02  0.45594000000E+02  0.51100000000E-03 0. -1.
    9900012    2    1    2    0    0  0.17257436103E+01 -0.13532953161E+02  0.12828102723E+02  0.72461568633E+02  0.69999997836E+02 0.  0.
         12    1    1    2    0    0 -0.17257436103E+01  0.13532953161E+02 -0.12828102723E+02  0.18726431367E+02  0.00000000000E+00 0. -1.
         11    1    3    3    0    0 -0.14832718262E+02  0.13966742966E+02  0.16439285539E+02  0.26178799617E+02  0.51100000000E-03 0. -1.
        -11    1    3    3    0    0  0.71636883605E+01 -0.23056495289E+02  0.12440606675E+02  0.27160432630E+02  0.51100000000E-03 0.  1.
         12    1    3    3    0    0  0.93947735123E+01 -0.44432008376E+01 -0.16051789490E+02  0.19122336386E+02  0.00000000000E+00 0. -1.
</event>
<event>
 7    1  0.1283194E-013  0.7246155E+02  0.7816164E-02  0.1226708E+00
        -11   -1    0    0    0    0  0.00000000000E+00  0.00000000000E+00  0.45593999997E+02  0.45594000000E+02  0.51100000000E-03 0.  1.
         11   -1    0    0    0    0 -0.00000000000E+00 -0.00000000000E+00 -0.45593999997E+02  0.45594000000E+02  0.51100000000E-03 0. -1.
    9900012    2    1    2    0    0  0.23860872892E+01 -0.18436912133E+02 -0.22509596454E+01  0.72461549165E+02  0.69999972475E+02 0.  0.
         12    1    1    2    0    0 -0.23860872892E+01  0.18436912133E+02  0.22509596454E+01  0.18726450835E+02  0.00000000000E+00 0. -1.
         11    1    3    3    0    0  0.28824967627E+02 -0.23174538864E+01 -0.20679191839E+02  0.35551066462E+02  0.51100000000E-03 0. -1.
        -11    1    3    3    0    0 -0.13911017204E+02 -0.82210389664E+01  0.14193284737E+02  0.21507003818E+02  0.51100000000E-03 0.  1.
         12    1    3    3    0    0 -0.12527863134E+02 -0.78984192800E+01  0.42349474571E+01  0.15403478886E+02  0.00000000000E+00 0. -1.
</event>
<event>
 7    1  0.1283194E-013  0.7246157E+02  0.7816164E-02  0.1226708E+00
        -11   -1    0    0    0    0  0.00000000000E+00  0.00000000000E+00  0.45593999997E+02  0.45594000000E+02  0.51100000000E-03 0.  1.
         11   -1    0    0    0    0 -0.00000000000E+00 -0.00000000000E+00 -0.45593999997E+02  0.45594000000E+02  0.51100000000E-03 0. -1.
    9900012    2    1    2    0    0 -0.27606462373E+01  0.30456195446E+01  0.18269707658E+02  0.72461569909E+02  0.69999999498E+02 0.  0.
         12    1    1    2    0    0  0.27606462373E+01 -0.30456195446E+01 -0.18269707658E+02  0.18726430091E+02  0.00000000000E+00 0. -1.
         11    1    3    3    0    0 -0.12011016059E+02  0.18568547951E+02  0.34272859674E+02  0.40788287415E+02  0.51100000000E-03 0.  1.
        -11    1    3    3    0    0  0.12778972130E+02 -0.52436651066E+01 -0.20146868712E+01  0.13959123035E+02  0.51100000000E-03 0. -1.
         12    1    3    3    0    0 -0.35286023086E+01 -0.10279263300E+02 -0.13988465145E+02  0.17714159459E+02  0.00000000000E+00 0. -1.
</event>
<event>
 7    1  0.1283194E-013  0.7246180E+02  0.7816164E-02  0.1226707E+00
        -11   -1    0    0    0    0  0.00000000000E+00  0.00000000000E+00  0.45593999997E+02  0.45594000000E+02  0.51100000000E-03 0.  1.
         11   -1    0    0    0    0 -0.00000000000E+00 -0.00000000000E+00 -0.45593999997E+02  0.45594000000E+02  0.51100000000E-03 0. -1.
    9900012    2    1    2    0    0 -0.22512263797E+01 -0.13959478809E+02  0.12277436475E+02  0.72461801368E+02  0.70000301015E+02 0.  0.
         12    1    1    2    0    0  0.22512263797E+01  0.13959478809E+02 -0.12277436475E+02  0.18726198632E+02  0.00000000000E+00 0. -1.
         11    1    3    3    0    0 -0.23938647722E+01  0.10362026434E+02 -0.25037005439E+01  0.10925689774E+02  0.51100000000E-03 0. -1.
        -11    1    3    3    0    0  0.14813512625E+02 -0.37304872630E+02  0.10313691610E+02  0.41442320315E+02  0.51100000000E-03 0.  1.
        -12    1    3    3    0    0 -0.14670874233E+02  0.12983367387E+02  0.44674454089E+01  0.20093791278E+02  0.00000000000E+00 0.  1.
</event>
<event>
 7    1  0.1283194E-013  0.7246155E+02  0.7816164E-02  0.1226708E+00
        -11   -1    0    0    0    0  0.00000000000E+00  0.00000000000E+00  0.45593999997E+02  0.45594000000E+02  0.51100000000E-03 0.  1.
         11   -1    0    0    0    0 -0.00000000000E+00 -0.00000000000E+00 -0.45593999997E+02  0.45594000000E+02  0.51100000000E-03 0. -1.
    9900012    2    1    2    0    0 -0.11180216196E+02  0.14981750682E+02  0.11090307277E+01  0.72461547137E+02  0.69999969833E+02 0.  0.
         12    1    1    2    0    0  0.11180216196E+02 -0.14981750682E+02 -0.11090307277E+01  0.18726452863E+02  0.00000000000E+00 0. -1.
         11    1    3    3    0    0 -0.20026750788E+02 -0.15594185234E+02 -0.66572947913E+01  0.26240597067E+02  0.51100000000E-03 0. -1.
        -11    1    3    3    0    0  0.30660546732E+01  0.20031525930E+02  0.20417332368E+02  0.28766824358E+02  0.51100000000E-03 0.  1.
         12    1    3    3    0    0  0.57804799186E+01  0.10544409986E+02 -0.12651006849E+02  0.17454125711E+02  0.00000000000E+00 0. -1.
</event>
<event>
 7    1  0.1283194E-013  0.7246154E+02  0.7816164E-02  0.1226708E+00
        -11   -1    0    0    0    0  0.00000000000E+00  0.00000000000E+00  0.45593999997E+02  0.45594000000E+02  0.51100000000E-03 0. -1.
         11   -1    0    0    0    0 -0.00000000000E+00 -0.00000000000E+00 -0.45593999997E+02  0.45594000000E+02  0.51100000000E-03 0.  1.
    9900012    2    1    2    0    0  0.16548138394E+02  0.87535479833E+01 -0.46354261812E+00  0.72461538552E+02  0.69999958650E+02 0.  0.
         12    1    1    2    0    0 -0.16548138394E+02 -0.87535479833E+01  0.46354261812E+00  0.18726461448E+02  0.00000000000E+00 0. -1.
         11    1    3    3    0    0 -0.16554263116E+02  0.70427493861E+01  0.11027856793E+02  0.21101127267E+02  0.51100000000E-03 0.  1.
        -11    1    3    3    0    0  0.19841792587E+02 -0.17644170933E+02 -0.71795918938E+01  0.27505636531E+02  0.51100000000E-03 0. -1.
        -12    1    3    3    0    0  0.13260608922E+02  0.19354969530E+02 -0.43118075177E+01  0.23854774754E+02  0.00000000000E+00 0.  1.
</event>
<event>
 7    1  0.1283194E-013  0.7246157E+02  0.7816164E-02  0.1226708E+00
        -11   -1    0    0    0    0  0.00000000000E+00  0.00000000000E+00  0.45593999997E+02  0.45594000000E+02  0.51100000000E-03 0.  1.
         11   -1    0    0    0    0 -0.00000000000E+00 -0.00000000000E+00 -0.45593999997E+02  0.45594000000E+02  0.51100000000E-03 0. -1.
    9900012    2    1    2    0    0  0.10516445477E+02  0.15349708531E+02 -0.21142202425E+01  0.72461572025E+02  0.70000002255E+02 0.  0.
         12    1    1    2    0    0 -0.10516445477E+02 -0.15349708531E+02  0.21142202425E+01  0.18726427975E+02  0.00000000000E+00 0. -1.
         11    1    3    3    0    0  0.22827189734E+02  0.22896835469E+02  0.19608217932E+02  0.37813064890E+02  0.51100000000E-03 0.  1.
        -11    1    3    3    0    0 -0.11640505820E+02 -0.15023455360E+02 -0.12457067121E+02  0.22724086521E+02  0.51100000000E-03 0. -1.
        -12    1    3    3    0    0 -0.67023843631E+00  0.74763284218E+01 -0.92653710532E+01  0.11924420614E+02  0.00000000000E+00 0.  1.
</event>
<event>
 7    1  0.1283194E-013  0.7246158E+02  0.7816164E-02  0.1226708E+00
        -11   -1    0    0    0    0  0.00000000000E+00  0.00000000000E+00  0.45593999997E+02  0.45594000000E+02  0.51100000000E-03 0. -1.
         11   -1    0    0    0    0 -0.00000000000E+00 -0.00000000000E+00 -0.45593999997E+02  0.45594000000E+02  0.51100000000E-03 0.  1.
    9900012    2    1    2    0    0  0.62674226525E+01  0.25516762006E+01 -0.17461017934E+02  0.72461580550E+02  0.70000013360E+02 0.  0.
         12    1    1    2    0    0 -0.62674226525E+01 -0.25516762006E+01  0.17461017934E+02  0.18726419450E+02  0.00000000000E+00 0. -1.
         11    1    3    3    0    0 -0.34369365994E+01 -0.57947274550E+01 -0.63449497663E+01  0.92547170278E+01  0.51100000000E-03 0. -1.
        -11    1    3    3    0    0 -0.11523097976E+02  0.28174999597E+02  0.35851368526E+01  0.30650703023E+02  0.51100000000E-03 0.  1.
        -12    1    3    3    0    0  0.21227457228E+02 -0.19828595942E+02 -0.14701205020E+02  0.32556160499E+02  0.00000000000E+00 0.  1.
</event>
<event>
 7    1  0.1283194E-013  0.7246150E+02  0.7816164E-02  0.1226708E+00
        -11   -1    0    0    0    0  0.00000000000E+00  0.00000000000E+00  0.45593999997E+02  0.45594000000E+02  0.51100000000E-03 0. -1.
         11   -1    0    0    0    0 -0.00000000000E+00 -0.00000000000E+00 -0.45593999997E+02  0.45594000000E+02  0.51100000000E-03 0.  1.
    9900012    2    1    2    0    0  0.20467752158E+01  0.12351809003E+02 -0.13925702547E+02  0.72461503642E+02  0.69999913173E+02 0.  0.
         12    1    1    2    0    0 -0.20467752158E+01 -0.12351809003E+02  0.13925702547E+02  0.18726496358E+02  0.00000000000E+00 0. -1.
         11    1    3    3    0    0 -0.23941340459E+02 -0.16303983956E+02 -0.86600275251E+01  0.30232494982E+02  0.51100000000E-03 0. -1.
        -11    1    3    3    0    0  0.80189819832E+01  0.18980315259E+02  0.16747256712E+01  0.20672715006E+02  0.51100000000E-03 0.  1.
        -12    1    3    3    0    0  0.17969133691E+02  0.96754776999E+01 -0.69404006927E+01  0.21556293654E+02  0.00000000000E+00 0.  1.
</event>
<event>
 7    1  0.1283194E-013  0.7246151E+02  0.7816164E-02  0.1226708E+00
        -11   -1    0    0    0    0  0.00000000000E+00  0.00000000000E+00  0.45593999997E+02  0.45594000000E+02  0.51100000000E-03 0.  1.
         11   -1    0    0    0    0 -0.00000000000E+00 -0.00000000000E+00 -0.45593999997E+02  0.45594000000E+02  0.51100000000E-03 0. -1.
    9900012    2    1    2    0    0 -0.25319864479E+01  0.43427898431E+01  0.18039145167E+02  0.72461507073E+02  0.69999917643E+02 0.  0.
         12    1    1    2    0    0  0.25319864479E+01 -0.43427898431E+01 -0.18039145167E+02  0.18726492927E+02  0.00000000000E+00 0. -1.
         11    1    3    3    0    0 -0.47630147877E+01 -0.29975205667E+02  0.92167510554E+00  0.30365255637E+02  0.51100000000E-03 0. -1.
        -11    1    3    3    0    0  0.65915997623E+01  0.22615240390E+02  0.17896092796E+02  0.29583245646E+02  0.51100000000E-03 0.  1.
         12    1    3    3    0    0 -0.43605714225E+01  0.11702755120E+02 -0.77862273489E+00  0.12513005790E+02  0.00000000000E+00 0. -1.
</event>
<event>
 7    1  0.1283194E-013  0.7246157E+02  0.7816164E-02  0.1226708E+00
        -11   -1    0    0    0    0  0.00000000000E+00  0.00000000000E+00  0.45593999997E+02  0.45594000000E+02  0.51100000000E-03 0. -1.
         11   -1    0    0    0    0 -0.00000000000E+00 -0.00000000000E+00 -0.45593999997E+02  0.45594000000E+02  0.51100000000E-03 0.  1.
    9900012    2    1    2    0    0  0.13598676409E+02 -0.37715570650E+01 -0.12309779888E+02  0.72461566179E+02  0.69999994639E+02 0.  0.
         12    1    1    2    0    0 -0.13598676409E+02  0.37715570650E+01  0.12309779888E+02  0.18726433821E+02  0.00000000000E+00 0. -1.
         11    1    3    3    0    0  0.41873471675E+01  0.10714334386E+02  0.11347327008E+02  0.16158362173E+02  0.51100000000E-03 0. -1.
        -11    1    3    3    0    0  0.72273890702E+01 -0.20933870787E+02  0.82837342072E+01  0.23644922321E+02  0.51100000000E-03 0.  1.
        -12    1    3    3    0    0  0.21839401708E+01  0.64479793360E+01 -0.31940841104E+02  0.32658281685E+02  0.00000000000E+00 0.  1.
</event>
<event>
 7    1  0.1283194E-013  0.7246164E+02  0.7816164E-02  0.1226708E+00
        -11   -1    0    0    0    0  0.00000000000E+00  0.00000000000E+00  0.45593999997E+02  0.45594000000E+02  0.51100000000E-03 0.  1.
         11   -1    0    0    0    0 -0.00000000000E+00 -0.00000000000E+00 -0.45593999997E+02  0.45594000000E+02  0.51100000000E-03 0. -1.
    9900012    2    1    2    0    0  0.13765590318E+02  0.18428592178E+01  0.12561407699E+02  0.72461639695E+02  0.70000090408E+02 0.  0.
         12    1    1    2    0    0 -0.13765590318E+02 -0.18428592178E+01 -0.12561407699E+02  0.18726360305E+02  0.00000000000E+00 0. -1.
         11    1    3    3    0    0  0.52112884819E+00 -0.22693520844E+02 -0.14793732853E+02  0.27094685743E+02  0.51100000000E-03 0. -1.
        -11    1    3    3    0    0  0.14304001073E+02  0.31522764015E+01  0.92126591924E+01  0.17303594507E+02  0.51100000000E-03 0.  1.
         12    1    3    3    0    0 -0.10595396031E+01  0.21384103660E+02  0.18142481359E+02  0.28063359445E+02  0.00000000000E+00 0. -1.
</event>
<event>
 7    1  0.1283194E-013  0.7246158E+02  0.7816164E-02  0.1226708E+00
        -11   -1    0    0    0    0  0.00000000000E+00  0.00000000000E+00  0.45593999997E+02  0.45594000000E+02  0.51100000000E-03 0. -1.
         11   -1    0    0    0    0 -0.00000000000E+00 -0.00000000000E+00 -0.45593999997E+02  0.45594000000E+02  0.51100000000E-03 0.  1.
    9900012    2    1    2    0    0 -0.71753333482E+01 -0.16909024897E+02 -0.36439501457E+01  0.72461577376E+02  0.70000009225E+02 0.  0.
         12    1    1    2    0    0  0.71753333482E+01  0.16909024897E+02  0.36439501457E+01  0.18726422624E+02  0.00000000000E+00 0. -1.
         11    1    3    3    0    0 -0.11857190873E+02  0.85282596586E+01  0.24680398964E+02  0.28678324245E+02  0.51100000000E-03 0. -1.
        -11    1    3    3    0    0  0.49461150942E+01 -0.76829364599E+01 -0.23750148828E+02  0.25447222575E+02  0.51100000000E-03 0.  1.
         12    1    3    3    0    0 -0.26425756934E+00 -0.17754348096E+02 -0.45742002820E+01  0.18336030557E+02  0.00000000000E+00 0. -1.
</event>
<event>
 7    1  0.1283194E-013  0.7246152E+02  0.7816164E-02  0.1226708E+00
        -11   -1    0    0    0    0  0.00000000000E+00  0.00000000000E+00  0.45593999997E+02  0.45594000000E+02  0.51100000000E-03 0. -1.
         11   -1    0    0    0    0 -0.00000000000E+00 -0.00000000000E+00 -0.45593999997E+02  0.45594000000E+02  0.51100000000E-03 0.  1.
    9900012    2    1    2    0    0  0.11515163372E+02  0.18544807198E+01 -0.14650699652E+02  0.72461519111E+02  0.69999933324E+02 0.  0.
         12    1    1    2    0    0 -0.11515163372E+02 -0.18544807198E+01  0.14650699652E+02  0.18726480889E+02  0.00000000000E+00 0. -1.
         11    1    3    3    0    0 -0.11884371540E+02 -0.83346073622E+01 -0.20995289158E+02  0.25524618192E+02  0.51100000000E-03 0. -1.
        -11    1    3    3    0    0  0.29807812900E+02  0.20689628872E+01  0.15014547489E+02  0.33439840817E+02  0.51100000000E-03 0.  1.
        -12    1    3    3    0    0 -0.64082779887E+01  0.81201251948E+01 -0.86699579825E+01  0.13497060101E+02  0.00000000000E+00 0.  1.
</event>
<event>
 7    1  0.1283194E-013  0.7246153E+02  0.7816164E-02  0.1226708E+00
        -11   -1    0    0    0    0  0.00000000000E+00  0.00000000000E+00  0.45593999997E+02  0.45594000000E+02  0.51100000000E-03 0. -1.
         11   -1    0    0    0    0 -0.00000000000E+00 -0.00000000000E+00 -0.45593999997E+02  0.45594000000E+02  0.51100000000E-03 0.  1.
    9900012    2    1    2    0    0  0.14799520213E+02 -0.10268843191E+02 -0.51191650471E+01  0.72461527033E+02  0.69999943644E+02 0.  0.
         12    1    1    2    0    0 -0.14799520213E+02  0.10268843191E+02  0.51191650471E+01  0.18726472967E+02  0.00000000000E+00 0. -1.
         11    1    3    3    0    0 -0.65795731985E+01 -0.34379978606E+02  0.53372376073E+01  0.35408470992E+02  0.51100000000E-03 0. -1.
        -11    1    3    3    0    0  0.77089560289E+01  0.11812090842E+01  0.12590601511E+01  0.78999044729E+01  0.51100000000E-03 0.  1.
         12    1    3    3    0    0  0.13670137382E+02  0.22929926332E+02 -0.11715462805E+02  0.29153151568E+02  0.00000000000E+00 0. -1.
</event>
<event>
 7    1  0.1283194E-013  0.7246158E+02  0.7816164E-02  0.1226708E+00
        -11   -1    0    0    0    0  0.00000000000E+00  0.00000000000E+00  0.45593999997E+02  0.45594000000E+02  0.51100000000E-03 0.  1.
         11   -1    0    0    0    0 -0.00000000000E+00 -0.00000000000E+00 -0.45593999997E+02  0.45594000000E+02  0.51100000000E-03 0. -1.
    9900012    2    1    2    0    0  0.49829197122E+01  0.10762103471E+01  0.18019188393E+02  0.72461578347E+02  0.70000010491E+02 0.  0.
         12    1    1    2    0    0 -0.49829197122E+01 -0.10762103471E+01 -0.18019188393E+02  0.18726421653E+02  0.00000000000E+00 0. -1.
         11    1    3    3    0    0 -0.91319552668E+01  0.76932242731E+01  0.39201947318E+02  0.40980129093E+02  0.51100000000E-03 0.  1.
        -11    1    3    3    0    0  0.62514685195E+01  0.39734971240E+01 -0.15380087639E+02  0.17070929502E+02  0.51100000000E-03 0. -1.
        -12    1    3    3    0    0  0.78634064595E+01 -0.10590511050E+02 -0.58026712865E+01  0.14410519752E+02  0.00000000000E+00 0.  1.
</event>
<event>
 7    1  0.1283194E-013  0.7246161E+02  0.7816164E-02  0.1226708E+00
        -11   -1    0    0    0    0  0.00000000000E+00  0.00000000000E+00  0.45593999997E+02  0.45594000000E+02  0.51100000000E-03 0. -1.
         11   -1    0    0    0    0 -0.00000000000E+00 -0.00000000000E+00 -0.45593999997E+02  0.45594000000E+02  0.51100000000E-03 0.  1.
    9900012    2    1    2    0    0  0.17522664477E+02  0.11824217555E+01 -0.64989092484E+01  0.72461609184E+02  0.70000050661E+02 0.  0.
         12    1    1    2    0    0 -0.17522664477E+02 -0.11824217555E+01  0.64989092484E+01  0.18726390816E+02  0.00000000000E+00 0. -1.
         11    1    3    3    0    0 -0.10573796075E+02 -0.11096242498E+02  0.55774486026E+01  0.16310723288E+02  0.51100000000E-03 0. -1.
        -11    1    3    3    0    0  0.35621628493E+02  0.17886344833E+02 -0.19320302411E+02  0.44295550944E+02  0.51100000000E-03 0.  1.
         12    1    3    3    0    0 -0.75251679411E+01 -0.56076805788E+01  0.72439445602E+01  0.11855334951E+02  0.00000000000E+00 0. -1.
</event>
<event>
 7    1  0.1283194E-013  0.7246159E+02  0.7816164E-02  0.1226708E+00
        -11   -1    0    0    0    0  0.00000000000E+00  0.00000000000E+00  0.45593999997E+02  0.45594000000E+02  0.51100000000E-03 0.  1.
         11   -1    0    0    0    0 -0.00000000000E+00 -0.00000000000E+00 -0.45593999997E+02  0.45594000000E+02  0.51100000000E-03 0. -1.
    9900012    2    1    2    0    0  0.99044863724E+01  0.11222924320E+01  0.15853077811E+02  0.72461589060E+02  0.70000024446E+02 0.  0.
         12    1    1    2    0    0 -0.99044863724E+01 -0.11222924320E+01 -0.15853077811E+02  0.18726410940E+02  0.00000000000E+00 0. -1.
         11    1    3    3    0    0  0.27042993104E+02  0.13271900670E+02  0.18606142999E+02  0.35406996215E+02  0.51100000000E-03 0. -1.
        -11    1    3    3    0    0 -0.16255980714E+02  0.41694628014E+01  0.68191959747E+01  0.18114711232E+02  0.51100000000E-03 0.  1.
         12    1    3    3    0    0 -0.88252601835E+00 -0.16319071039E+02 -0.95722611622E+01  0.18939881613E+02  0.00000000000E+00 0. -1.
</event>
<event>
 7    1  0.1283194E-013  0.7246155E+02  0.7816164E-02  0.1226708E+00
        -11   -1    0    0    0    0  0.00000000000E+00  0.00000000000E+00  0.45593999997E+02  0.45594000000E+02  0.51100000000E-03 0.  1.
         11   -1    0    0    0    0 -0.00000000000E+00 -0.00000000000E+00 -0.45593999997E+02  0.45594000000E+02  0.51100000000E-03 0. -1.
    9900012    2    1    2    0    0  0.61413063467E+01 -0.11552386782E+02  0.13398010061E+02  0.72461549253E+02  0.69999972589E+02 0.  0.
         12    1    1    2    0    0 -0.61413063467E+01  0.11552386782E+02 -0.13398010061E+02  0.18726450747E+02  0.00000000000E+00 0. -1.
         11    1    3    3    0    0 -0.70196765513E+01 -0.12700519160E+02  0.33564645096E-01  0.14511380798E+02  0.51100000000E-03 0. -1.
        -11    1    3    3    0    0  0.32613722203E+01  0.22400947419E+02 -0.10092688002E+02  0.24785103297E+02  0.51100000000E-03 0.  1.
        -12    1    3    3    0    0  0.98996106776E+01 -0.21252815041E+02  0.23457133418E+02  0.33165065158E+02  0.00000000000E+00 0.  1.
</event>
<event>
 7    1  0.1283194E-013  0.7246164E+02  0.7816164E-02  0.1226708E+00
        -11   -1    0    0    0    0  0.00000000000E+00  0.00000000000E+00  0.45593999997E+02  0.45594000000E+02  0.51100000000E-03 0.  1.
         11   -1    0    0    0    0 -0.00000000000E+00 -0.00000000000E+00 -0.45593999997E+02  0.45594000000E+02  0.51100000000E-03 0. -1.
    9900012    2    1    2    0    0  0.67841962873E+00 -0.16952117094E+01  0.18637124341E+02  0.72461644251E+02  0.70000096343E+02 0.  0.
         12    1    1    2    0    0 -0.67841962873E+00  0.16952117094E+01 -0.18637124341E+02  0.18726355749E+02  0.00000000000E+00 0. -1.
         11    1    3    3    0    0  0.12198823111E+02  0.25496796342E+02  0.96054929153E+01  0.29852360098E+02  0.51100000000E-03 0.  1.
        -11    1    3    3    0    0 -0.95253248820E+01 -0.24981127229E+02 -0.59040014242E+01  0.27379659692E+02  0.51100000000E-03 0. -1.
        -12    1    3    3    0    0 -0.19950786005E+01 -0.22108808223E+01  0.14935632850E+02  0.15229624462E+02  0.00000000000E+00 0.  1.
</event>
<event>
 7    1  0.1283194E-013  0.7246117E+02  0.7816164E-02  0.1226709E+00
        -11   -1    0    0    0    0  0.00000000000E+00  0.00000000000E+00  0.45593999997E+02  0.45594000000E+02  0.51100000000E-03 0. -1.
         11   -1    0    0    0    0 -0.00000000000E+00 -0.00000000000E+00 -0.45593999997E+02  0.45594000000E+02  0.51100000000E-03 0.  1.
    9900012    2    1    2    0    0  0.68125682149E+01 -0.16765975215E+02 -0.48150831011E+01  0.72461173363E+02  0.69999482922E+02 0.  0.
         12    1    1    2    0    0 -0.68125682149E+01  0.16765975215E+02  0.48150831011E+01  0.18726826637E+02  0.00000000000E+00 0. -1.
         11    1    3    3    0    0 -0.42843994234E+01 -0.25970860668E+02 -0.59369141554E+01  0.26983117541E+02  0.51100000000E-03 0. -1.
        -11    1    3    3    0    0 -0.10901356080E+02  0.17947988141E+02  0.47492815039E+01  0.21529642769E+02  0.51100000000E-03 0.  1.
        -12    1    3    3    0    0  0.21998323719E+02 -0.87431026879E+01 -0.36274504496E+01  0.23948413054E+02  0.00000000000E+00 0.  1.
</event>
<event>
 7    1  0.1283194E-013  0.7246155E+02  0.7816164E-02  0.1226708E+00
        -11   -1    0    0    0    0  0.00000000000E+00  0.00000000000E+00  0.45593999997E+02  0.45594000000E+02  0.51100000000E-03 0.  1.
         11   -1    0    0    0    0 -0.00000000000E+00 -0.00000000000E+00 -0.45593999997E+02  0.45594000000E+02  0.51100000000E-03 0. -1.
    9900012    2    1    2    0    0  0.90299221888E+01  0.16987853643E+01  0.16317303759E+02  0.72461554304E+02  0.69999979169E+02 0.  0.
         12    1    1    2    0    0 -0.90299221888E+01 -0.16987853643E+01 -0.16317303759E+02  0.18726445696E+02  0.00000000000E+00 0. -1.
         11    1    3    3    0    0  0.25508669621E+02 -0.18579467487E+02 -0.58550303720E+01  0.32096264874E+02  0.51100000000E-03 0. -1.
        -11    1    3    3    0    0 -0.20699539343E+02  0.18795789352E+02  0.14530007745E+02  0.31509899265E+02  0.51100000000E-03 0.  1.
         12    1    3    3    0    0  0.42207919107E+01  0.14824634994E+01  0.76423263857E+01  0.88553901646E+01  0.00000000000E+00 0. -1.
</event>
<event>
 7    1  0.1283194E-013  0.7246150E+02  0.7816164E-02  0.1226708E+00
        -11   -1    0    0    0    0  0.00000000000E+00  0.00000000000E+00  0.45593999997E+02  0.45594000000E+02  0.51100000000E-03 0.  1.
         11   -1    0    0    0    0 -0.00000000000E+00 -0.00000000000E+00 -0.45593999997E+02  0.45594000000E+02  0.51100000000E-03 0. -1.
    9900012    2    1    2    0    0 -0.38291901667E+01 -0.13134211713E+02  0.12787171836E+02  0.72461495302E+02  0.69999902308E+02 0.  0.
         12    1    1    2    0    0  0.38291901667E+01  0.13134211713E+02 -0.12787171836E+02  0.18726504698E+02  0.00000000000E+00 0. -1.
         11    1    3    3    0    0  0.15358459337E+02  0.10663599016E+00 -0.17483533887E+02  0.23271605055E+02  0.51100000000E-03 0. -1.
        -11    1    3    3    0    0 -0.81196800009E+01 -0.18186272176E+02  0.40806665579E+01  0.20330310839E+02  0.51100000000E-03 0.  1.
         12    1    3    3    0    0 -0.11067969502E+02  0.49454244732E+01  0.26190039165E+02  0.28859579407E+02  0.00000000000E+00 0. -1.
</event>
<event>
 7    1  0.1283194E-013  0.7246157E+02  0.7816164E-02  0.1226708E+00
        -11   -1    0    0    0    0  0.00000000000E+00  0.00000000000E+00  0.45593999997E+02  0.45594000000E+02  0.51100000000E-03 0. -1.
         11   -1    0    0    0    0 -0.00000000000E+00 -0.00000000000E+00 -0.45593999997E+02  0.45594000000E+02  0.51100000000E-03 0.  1.
    9900012    2    1    2    0    0 -0.74768761651E+01 -0.47522855148E+01 -0.16498221810E+02  0.72461569008E+02  0.69999998325E+02 0.  0.
         12    1    1    2    0    0  0.74768761651E+01  0.47522855148E+01  0.16498221810E+02  0.18726430992E+02  0.00000000000E+00 0. -1.
         11    1    3    3    0    0 -0.30559021657E+02 -0.17064730740E+02 -0.18098593921E+02  0.39403273240E+02  0.51100000000E-03 0. -1.
        -11    1    3    3    0    0  0.50533729217E+01 -0.53561748286E+01 -0.18176420671E+01  0.75847880409E+01  0.51100000000E-03 0.  1.
         12    1    3    3    0    0  0.18028772571E+02  0.17668620053E+02  0.34180141783E+01  0.25473507727E+02  0.00000000000E+00 0. -1.
</event>
<event>
 7    1  0.1283194E-013  0.7246159E+02  0.7816164E-02  0.1226708E+00
        -11   -1    0    0    0    0  0.00000000000E+00  0.00000000000E+00  0.45593999997E+02  0.45594000000E+02  0.51100000000E-03 0.  1.
         11   -1    0    0    0    0 -0.00000000000E+00 -0.00000000000E+00 -0.45593999997E+02  0.45594000000E+02  0.51100000000E-03 0. -1.
    9900012    2    1    2    0    0 -0.68767204614E+01 -0.10377272337E+02  0.13989331584E+02  0.72461589142E+02  0.70000024553E+02 0.  0.
         12    1    1    2    0    0  0.68767204614E+01  0.10377272337E+02 -0.13989331584E+02  0.18726410858E+02  0.00000000000E+00 0. -1.
         11    1    3    3    0    0  0.37671525949E+01 -0.12573016671E+02  0.71256676148E+01  0.14934769034E+02  0.51100000000E-03 0. -1.
        -11    1    3    3    0    0 -0.19043537963E+02 -0.48945837631E+01  0.27699796532E+02  0.33968986098E+02  0.51100000000E-03 0.  1.
        -12    1    3    3    0    0  0.83996649071E+01  0.70903280972E+01 -0.20836132563E+02  0.23557834010E+02  0.00000000000E+00 0.  1.
</event>
<event>
 7    1  0.1283194E-013  0.7246165E+02  0.7816164E-02  0.1226708E+00
        -11   -1    0    0    0    0  0.00000000000E+00  0.00000000000E+00  0.45593999997E+02  0.45594000000E+02  0.51100000000E-03 0.  1.
         11   -1    0    0    0    0 -0.00000000000E+00 -0.00000000000E+00 -0.45593999997E+02  0.45594000000E+02  0.51100000000E-03 0. -1.
    9900012    2    1    2    0    0  0.14255700930E+02 -0.93168297198E+01  0.77876801789E+01  0.72461647243E+02  0.70000100239E+02 0.  0.
         12    1    1    2    0    0 -0.14255700930E+02  0.93168297198E+01 -0.77876801789E+01  0.18726352757E+02  0.00000000000E+00 0. -1.
         11    1    3    3    0    0  0.22018442349E+02  0.14887895956E+02  0.16634420079E+02  0.31355464932E+02  0.51100000000E-03 0. -1.
        -11    1    3    3    0    0 -0.99578593369E+01  0.41079097674E+01 -0.65701313290E+01  0.12617468493E+02  0.51100000000E-03 0.  1.
         12    1    3    3    0    0  0.21951179174E+01 -0.28312635443E+02 -0.22766085706E+01  0.28488713818E+02  0.00000000000E+00 0. -1.
</event>
<event>
 7    1  0.1283194E-013  0.7246158E+02  0.7816164E-02  0.1226708E+00
        -11   -1    0    0    0    0  0.00000000000E+00  0.00000000000E+00  0.45593999997E+02  0.45594000000E+02  0.51100000000E-03 0.  1.
         11   -1    0    0    0    0 -0.00000000000E+00 -0.00000000000E+00 -0.45593999997E+02  0.45594000000E+02  0.51100000000E-03 0. -1.
    9900012    2    1    2    0    0  0.49052916921E+01 -0.17515216353E+02 -0.44535642129E+01  0.72461576832E+02  0.70000008516E+02 0.  0.
         12    1    1    2    0    0 -0.49052916921E+01  0.17515216353E+02  0.44535642129E+01  0.18726423168E+02  0.00000000000E+00 0. -1.
         11    1    3    3    0    0  0.82679298925E+01  0.19044791168E+02  0.39735638468E+01  0.21138872848E+02  0.51100000000E-03 0. -1.
        -11    1    3    3    0    0 -0.18439962603E+02 -0.17658607953E+02  0.53434740742E+00  0.25537113835E+02  0.51100000000E-03 0.  1.
        -12    1    3    3    0    0  0.15077324402E+02 -0.18901399568E+02 -0.89614754671E+01  0.25785590149E+02  0.00000000000E+00 0.  1.
</event>
<event>
 7    1  0.1283194E-013  0.7246156E+02  0.7816164E-02  0.1226708E+00
        -11   -1    0    0    0    0  0.00000000000E+00  0.00000000000E+00  0.45593999997E+02  0.45594000000E+02  0.51100000000E-03 0. -1.
         11   -1    0    0    0    0 -0.00000000000E+00 -0.00000000000E+00 -0.45593999997E+02  0.45594000000E+02  0.51100000000E-03 0.  1.
    9900012    2    1    2    0    0  0.12852248090E+02 -0.12579983671E+02 -0.52195071592E+01  0.72461560800E+02  0.69999987632E+02 0.  0.
         12    1    1    2    0    0 -0.12852248090E+02  0.12579983671E+02  0.52195071592E+01  0.18726439200E+02  0.00000000000E+00 0. -1.
         11    1    3    3    0    0 -0.20039031641E+02 -0.13354816441E+02 -0.20446931593E+02  0.31590994335E+02  0.51100000000E-03 0.  1.
        -11    1    3    3    0    0  0.97837211188E+01  0.84546580782E+01  0.89442447677E+01  0.15722657437E+02  0.51100000000E-03 0. -1.
         12    1    3    3    0    0  0.23107558612E+02 -0.76798253085E+01  0.62831796657E+01  0.25147909028E+02  0.00000000000E+00 0. -1.
</event>
<event>
 7    1  0.1283194E-013  0.7246181E+02  0.7816164E-02  0.1226707E+00
        -11   -1    0    0    0    0  0.00000000000E+00  0.00000000000E+00  0.45593999997E+02  0.45594000000E+02  0.51100000000E-03 0.  1.
         11   -1    0    0    0    0 -0.00000000000E+00 -0.00000000000E+00 -0.45593999997E+02  0.45594000000E+02  0.51100000000E-03 0. -1.
    9900012    2    1    2    0    0 -0.17492354363E+02  0.49211512999E+01 -0.45243952946E+01  0.72461805938E+02  0.70000306969E+02 0.  0.
         12    1    1    2    0    0  0.17492354363E+02 -0.49211512999E+01  0.45243952946E+01  0.18726194062E+02  0.00000000000E+00 0. -1.
         11    1    3    3    0    0  0.16082098754E+02 -0.12345878287E+02 -0.28056446883E+01  0.20467688033E+02  0.51100000000E-03 0. -1.
        -11    1    3    3    0    0 -0.30039655629E+02 -0.39262286142E+01  0.11527097951E+01  0.30317073104E+02  0.51100000000E-03 0.  1.
         12    1    3    3    0    0 -0.35347974882E+01  0.21193258201E+02 -0.28714604014E+01  0.21677044801E+02  0.00000000000E+00 0. -1.
</event>
<event>
 7    1  0.1283194E-013  0.7246159E+02  0.7816164E-02  0.1226708E+00
        -11   -1    0    0    0    0  0.00000000000E+00  0.00000000000E+00  0.45593999997E+02  0.45594000000E+02  0.51100000000E-03 0.  1.
         11   -1    0    0    0    0 -0.00000000000E+00 -0.00000000000E+00 -0.45593999997E+02  0.45594000000E+02  0.51100000000E-03 0. -1.
    9900012    2    1    2    0    0 -0.35340018616E+01 -0.81054485711E+01  0.16507299783E+02  0.72461590525E+02  0.70000026354E+02 0.  0.
         12    1    1    2    0    0  0.35340018616E+01  0.81054485711E+01 -0.16507299783E+02  0.18726409475E+02  0.00000000000E+00 0. -1.
         11    1    3    3    0    0  0.15041977752E+00  0.19306087575E+02  0.41393309141E+01  0.19745422361E+02  0.51100000000E-03 0. -1.
        -11    1    3    3    0    0 -0.18819394915E+02 -0.11085283747E+02  0.19561182729E+02  0.29320522006E+02  0.51100000000E-03 0.  1.
        -12    1    3    3    0    0  0.15134973276E+02 -0.16326252399E+02 -0.71932138597E+01  0.23395646157E+02  0.00000000000E+00 0.  1.
</event>
<event>
 7    1  0.1283194E-013  0.7246162E+02  0.7816164E-02  0.1226708E+00
        -11   -1    0    0    0    0  0.00000000000E+00  0.00000000000E+00  0.45593999997E+02  0.45594000000E+02  0.51100000000E-03 0. -1.
         11   -1    0    0    0    0 -0.00000000000E+00 -0.00000000000E+00 -0.45593999997E+02  0.45594000000E+02  0.51100000000E-03 0.  1.
    9900012    2    1    2    0    0  0.78242607312E+01 -0.83600265825E+01  0.14817839596E+02  0.72461615652E+02  0.70000059086E+02 0.  0.
         12    1    1    2    0    0 -0.78242607312E+01  0.83600265825E+01 -0.14817839596E+02  0.18726384348E+02  0.00000000000E+00 0. -1.
         11    1    3    3    0    0  0.22435744870E+02  0.12437063790E+02  0.16352583115E+02  0.30421212638E+02  0.51100000000E-03 0. -1.
        -11    1    3    3    0    0 -0.48127924193E+01 -0.23915054891E+02 -0.12157359613E+02  0.27256085821E+02  0.51100000000E-03 0.  1.
        -12    1    3    3    0    0 -0.97986917196E+01  0.31179645182E+01  0.10622616094E+02  0.14784317192E+02  0.00000000000E+00 0.  1.
</event>
<event>
 7    1  0.1283194E-013  0.7246159E+02  0.7816164E-02  0.1226708E+00
        -11   -1    0    0    0    0  0.00000000000E+00  0.00000000000E+00  0.45593999997E+02  0.45594000000E+02  0.51100000000E-03 0. -1.
         11   -1    0    0    0    0 -0.00000000000E+00 -0.00000000000E+00 -0.45593999997E+02  0.45594000000E+02  0.51100000000E-03 0.  1.
    9900012    2    1    2    0    0  0.16760097765E+02  0.75763746427E+01 -0.35179630434E+01  0.72461591007E+02  0.70000026981E+02 0.  0.
         12    1    1    2    0    0 -0.16760097765E+02 -0.75763746427E+01  0.35179630434E+01  0.18726408993E+02  0.00000000000E+00 0. -1.
         11    1    3    3    0    0  0.35699972436E+01 -0.19953211992E+02 -0.24993740176E+02  0.32180158442E+02  0.51100000000E-03 0. -1.
        -11    1    3    3    0    0  0.16257194935E+02  0.20209019530E+02  0.14499709159E+02  0.29714347098E+02  0.51100000000E-03 0.  1.
         12    1    3    3    0    0 -0.30670944137E+01  0.73205671048E+01  0.69760679742E+01  0.10567085467E+02  0.00000000000E+00 0. -1.
</event>
<event>
 7    1  0.1283194E-013  0.7246141E+02  0.7816164E-02  0.1226708E+00
        -11   -1    0    0    0    0  0.00000000000E+00  0.00000000000E+00  0.45593999997E+02  0.45594000000E+02  0.51100000000E-03 0. -1.
         11   -1    0    0    0    0 -0.00000000000E+00 -0.00000000000E+00 -0.45593999997E+02  0.45594000000E+02  0.51100000000E-03 0.  1.
    9900012    2    1    2    0    0 -0.14671877254E+02  0.15241666389E+00 -0.11636060689E+02  0.72461411380E+02  0.69999792984E+02 0.  0.
         12    1    1    2    0    0  0.14671877254E+02 -0.15241666389E+00  0.11636060689E+02  0.18726588620E+02  0.00000000000E+00 0. -1.
         11    1    3    3    0    0  0.35635493070E+01  0.52066038371E+00 -0.24589187628E+02  0.24851521470E+02  0.51100000000E-03 0. -1.
        -11    1    3    3    0    0 -0.12632321413E+02  0.19838383736E+02  0.12503545994E+02  0.26635984611E+02  0.51100000000E-03 0.  1.
        -12    1    3    3    0    0 -0.56031051481E+01 -0.20206627456E+02  0.44958094512E+00  0.20973905298E+02  0.00000000000E+00 0.  1.
</event>
<event>
 8    1  0.1283194E-013  0.7246156E+02  0.7816164E-02  0.1226708E+00
        -11   -1    0    0    0    0  0.00000000000E+00  0.00000000000E+00  0.45593999997E+02  0.45594000000E+02  0.51100000000E-03 0.  1.
         11   -1    0    0    0    0 -0.00000000000E+00 -0.00000000000E+00 -0.45593999997E+02  0.45594000000E+02  0.51100000000E-03 0. -1.
    9900012    2    1    2    0    0 -0.17182047317E+02 -0.70764348059E+01  0.23196939748E+01  0.72461557207E+02  0.69999982951E+02 0.  0.
         24    2    3    3    0    0 -0.19211455541E+01 -0.15134037386E+02 -0.84714152865E+01  0.52107979602E+02  0.49099356141E+02 0.  0.
         12    1    1    2    0    0  0.17182047317E+02  0.70764348059E+01 -0.23196939748E+01  0.18726442793E+02  0.00000000000E+00 0. -1.
         11    1    3    3    0    0 -0.15260901763E+02  0.80576025802E+01  0.10791109261E+02  0.20353577604E+02  0.51100000000E-03 0.  1.
        -11    1    4    4    0    0  0.20602842591E+02 -0.18744103493E+02 -0.23315772585E+00  0.27854495174E+02  0.51100000000E-03 0. -1.
         12    1    4    4    0    0 -0.22523988146E+02  0.36100661071E+01 -0.82382575606E+01  0.24253484428E+02  0.00000000000E+00 0. -1.
</event>
<event>
 8    1  0.1283194E-013  0.7246157E+02  0.7816164E-02  0.1226708E+00
        -11   -1    0    0    0    0  0.00000000000E+00  0.00000000000E+00  0.45593999997E+02  0.45594000000E+02  0.51100000000E-03 0.  1.
         11   -1    0    0    0    0 -0.00000000000E+00 -0.00000000000E+00 -0.45593999997E+02  0.45594000000E+02  0.51100000000E-03 0. -1.
    9900012    2    1    2    0    0  0.46541931738E+01  0.51415728547E+01  0.17394878952E+02  0.72461572170E+02  0.70000002443E+02 0.  0.
        -24    2    3    3    0    0  0.13031987065E+02  0.38958305416E+01  0.28792589588E+02  0.58261321735E+02  0.48788914855E+02 0.  0.
         12    1    1    2    0    0 -0.46541931738E+01 -0.51415728547E+01 -0.17394878952E+02  0.18726427830E+02  0.00000000000E+00 0. -1.
         11    1    4    4    0    0  0.23511631420E+01  0.22537317485E+02  0.28965882490E+02  0.36776092726E+02  0.51100000000E-03 0. -1.
        -11    1    3    3    0    0 -0.83777938915E+01  0.12457423130E+01 -0.11397710636E+02  0.14200250434E+02  0.51100000000E-03 0.  1.
        -12    1    4    4    0    0  0.10680823923E+02 -0.18641486943E+02 -0.17329290197E+00  0.21485229009E+02  0.00000000000E+00 0.  1.
</event>
<event>
 7    1  0.1283194E-013  0.7246158E+02  0.7816164E-02  0.1226708E+00
        -11   -1    0    0    0    0  0.00000000000E+00  0.00000000000E+00  0.45593999997E+02  0.45594000000E+02  0.51100000000E-03 0.  1.
         11   -1    0    0    0    0 -0.00000000000E+00 -0.00000000000E+00 -0.45593999997E+02  0.45594000000E+02  0.51100000000E-03 0. -1.
    9900012    2    1    2    0    0  0.14462510967E+02  0.25106758067E+01 -0.11628027594E+02  0.72461581704E+02  0.70000014863E+02 0.  0.
         12    1    1    2    0    0 -0.14462510967E+02 -0.25106758067E+01  0.11628027594E+02  0.18726418296E+02  0.00000000000E+00 0. -1.
         11    1    3    3    0    0 -0.22674126980E+02  0.69786223643E+01 -0.12273146752E+02  0.26710434962E+02  0.51100000000E-03 0. -1.
        -11    1    3    3    0    0  0.20960682018E+02  0.51709906073E+00 -0.12419248277E+02  0.24369146684E+02  0.51100000000E-03 0.  1.
         12    1    3    3    0    0  0.16175955928E+02 -0.49850456183E+01  0.13064367435E+02  0.21382000058E+02  0.00000000000E+00 0. -1.
</event>
<event>
 7    1  0.1283194E-013  0.7246156E+02  0.7816164E-02  0.1226708E+00
        -11   -1    0    0    0    0  0.00000000000E+00  0.00000000000E+00  0.45593999997E+02  0.45594000000E+02  0.51100000000E-03 0.  1.
         11   -1    0    0    0    0 -0.00000000000E+00 -0.00000000000E+00 -0.45593999997E+02  0.45594000000E+02  0.51100000000E-03 0. -1.
    9900012    2    1    2    0    0 -0.15410617495E+02 -0.81991850423E+01 -0.67797987927E+01  0.72461563110E+02  0.69999990641E+02 0.  0.
         12    1    1    2    0    0  0.15410617495E+02  0.81991850423E+01  0.67797987927E+01  0.18726436890E+02  0.00000000000E+00 0. -1.
         11    1    3    3    0    0  0.10311155703E+02 -0.11188576527E+01 -0.19039811604E+02  0.21681471365E+02  0.51100000000E-03 0. -1.
        -11    1    3    3    0    0 -0.31746867745E+02  0.80703645853E+01  0.59264151729E+01  0.33288388264E+02  0.51100000000E-03 0.  1.
        -12    1    3    3    0    0  0.60250945470E+01 -0.15150691975E+02  0.63335976386E+01  0.17491703481E+02  0.00000000000E+00 0.  1.
</event>
<event>
 7    1  0.1283194E-013  0.7246154E+02  0.7816164E-02  0.1226708E+00
        -11   -1    0    0    0    0  0.00000000000E+00  0.00000000000E+00  0.45593999997E+02  0.45594000000E+02  0.51100000000E-03 0.  1.
         11   -1    0    0    0    0 -0.00000000000E+00 -0.00000000000E+00 -0.45593999997E+02  0.45594000000E+02  0.51100000000E-03 0. -1.
    9900012    2    1    2    0    0  0.87170548605E+01  0.38075171792E+01  0.16130591019E+02  0.72461542804E+02  0.69999964188E+02 0.  0.
         12    1    1    2    0    0 -0.87170548605E+01 -0.38075171792E+01 -0.16130591019E+02  0.18726457196E+02  0.00000000000E+00 0. -1.
         11    1    3    3    0    0  0.10767673984E+02 -0.59600750425E+01 -0.13636703470E+01  0.12382442998E+02  0.51100000000E-03 0. -1.
        -11    1    3    3    0    0  0.15226292029E+02  0.24313760603E+01  0.32549697922E+02  0.36017140275E+02  0.51100000000E-03 0.  1.
        -12    1    3    3    0    0 -0.17276911153E+02  0.73362161614E+01 -0.15055436556E+02  0.24061959530E+02  0.00000000000E+00 0.  1.
</event>
<event>
 7    1  0.1283194E-013  0.7246159E+02  0.7816164E-02  0.1226708E+00
        -11   -1    0    0    0    0  0.00000000000E+00  0.00000000000E+00  0.45593999997E+02  0.45594000000E+02  0.51100000000E-03 0.  1.
         11   -1    0    0    0    0 -0.00000000000E+00 -0.00000000000E+00 -0.45593999997E+02  0.45594000000E+02  0.51100000000E-03 0. -1.
    9900012    2    1    2    0    0 -0.26648421367E+01 -0.50843630092E+01  0.17824879015E+02  0.72461589700E+02  0.70000025280E+02 0.  0.
         12    1    1    2    0    0  0.26648421367E+01  0.50843630092E+01 -0.17824879015E+02  0.18726410300E+02  0.00000000000E+00 0. -1.
         11    1    3    3    0    0  0.35324613123E+01 -0.11149125445E+02 -0.16177211692E+02  0.19962050483E+02  0.51100000000E-03 0. -1.
        -11    1    3    3    0    0  0.10564595705E+02  0.16773364637E+02  0.13833609569E+02  0.24172819397E+02  0.51100000000E-03 0.  1.
        -12    1    3    3    0    0 -0.16761899154E+02 -0.10708602202E+02  0.20168481138E+02  0.28326719820E+02  0.00000000000E+00 0.  1.
</event>
<event>
 7    1  0.1283194E-013  0.7246159E+02  0.7816164E-02  0.1226708E+00
        -11   -1    0    0    0    0  0.00000000000E+00  0.00000000000E+00  0.45593999997E+02  0.45594000000E+02  0.51100000000E-03 0. -1.
         11   -1    0    0    0    0 -0.00000000000E+00 -0.00000000000E+00 -0.45593999997E+02  0.45594000000E+02  0.51100000000E-03 0.  1.
    9900012    2    1    2    0    0 -0.10528782151E+02  0.87475395971E+01 -0.12779027954E+02  0.72461594631E+02  0.70000031703E+02 0.  0.
         12    1    1    2    0    0  0.10528782151E+02 -0.87475395971E+01  0.12779027954E+02  0.18726405369E+02  0.00000000000E+00 0. -1.
         11    1    3    3    0    0  0.96388158463E+00 -0.54487667274E+01  0.52669519670E+01  0.76393003503E+01  0.51100000000E-03 0. -1.
        -11    1    3    3    0    0 -0.24129617007E+02  0.31743359353E+02 -0.16470448849E+02  0.43141105288E+02  0.51100000000E-03 0.  1.
        -12    1    3    3    0    0  0.12636953271E+02 -0.17547053029E+02 -0.15755310722E+01  0.21681188993E+02  0.00000000000E+00 0.  1.
</event>
<event>
 7    1  0.1283194E-013  0.7246150E+02  0.7816164E-02  0.1226708E+00
        -11   -1    0    0    0    0  0.00000000000E+00  0.00000000000E+00  0.45593999997E+02  0.45594000000E+02  0.51100000000E-03 0. -1.
         11   -1    0    0    0    0 -0.00000000000E+00 -0.00000000000E+00 -0.45593999997E+02  0.45594000000E+02  0.51100000000E-03 0.  1.
    9900012    2    1    2    0    0 -0.58431045478E+01  0.12104103526E+02  0.13039577117E+02  0.72461501013E+02  0.69999909748E+02 0.  0.
         12    1    1    2    0    0  0.58431045478E+01 -0.12104103526E+02 -0.13039577117E+02  0.18726498987E+02  0.00000000000E+00 0. -1.
         11    1    3    3    0    0  0.48488375274E+01 -0.16624849002E+02  0.27889069779E+02  0.32828296378E+02  0.51100000000E-03 0. -1.
        -11    1    3    3    0    0 -0.24469114987E+01  0.61473804024E+01 -0.14107528516E+02  0.15582041676E+02  0.51100000000E-03 0.  1.
         12    1    3    3    0    0 -0.82450305765E+01  0.22581572126E+02 -0.74196414679E+00  0.24051162959E+02  0.00000000000E+00 0. -1.
</event>
<event>
 7    1  0.1283194E-013  0.7246158E+02  0.7816164E-02  0.1226708E+00
        -11   -1    0    0    0    0  0.00000000000E+00  0.00000000000E+00  0.45593999997E+02  0.45594000000E+02  0.51100000000E-03 0. -1.
         11   -1    0    0    0    0 -0.00000000000E+00 -0.00000000000E+00 -0.45593999997E+02  0.45594000000E+02  0.51100000000E-03 0.  1.
    9900012    2    1    2    0    0 -0.13926174486E+02  0.48071650011E+01 -0.11559922770E+02  0.72461575204E+02  0.70000006396E+02 0.  0.
         12    1    1    2    0    0  0.13926174486E+02 -0.48071650011E+01  0.11559922770E+02  0.18726424796E+02  0.00000000000E+00 0. -1.
         11    1    3    3    0    0 -0.13919069838E+02 -0.77436414834E+00  0.26879957375E+02  0.30279898509E+02  0.51100000000E-03 0. -1.
        -11    1    3    3    0    0  0.15220890900E+01 -0.43557195240E+01 -0.34096508737E+01  0.57371392794E+01  0.51100000000E-03 0.  1.
         12    1    3    3    0    0 -0.15291937387E+01  0.99372486734E+01 -0.35030229271E+02  0.36444537416E+02  0.00000000000E+00 0. -1.
</event>
<event>
 7    1  0.1283194E-013  0.7246185E+02  0.7816164E-02  0.1226707E+00
        -11   -1    0    0    0    0  0.00000000000E+00  0.00000000000E+00  0.45593999997E+02  0.45594000000E+02  0.51100000000E-03 0.  1.
         11   -1    0    0    0    0 -0.00000000000E+00 -0.00000000000E+00 -0.45593999997E+02  0.45594000000E+02  0.51100000000E-03 0. -1.
    9900012    2    1    2    0    0  0.38147546497E+01 -0.13831407949E+02  0.12033642052E+02  0.72461848769E+02  0.70000362764E+02 0.  0.
         12    1    1    2    0    0 -0.38147546497E+01  0.13831407949E+02 -0.12033642052E+02  0.18726151231E+02  0.00000000000E+00 0. -1.
         11    1    3    3    0    0  0.14481910334E+02 -0.12674785797E+02  0.15231091808E+02  0.24543065820E+02  0.51100000000E-03 0. -1.
        -11    1    3    3    0    0 -0.15823134556E+02  0.19934661481E+02 -0.56426541005E+01  0.26069174538E+02  0.51100000000E-03 0.  1.
        -12    1    3    3    0    0  0.51559788720E+01 -0.21091283633E+02  0.24452043443E+01  0.21849608411E+02  0.00000000000E+00 0.  1.
</event>
<event>
 7    1  0.1283194E-013  0.7246153E+02  0.7816164E-02  0.1226708E+00
        -11   -1    0    0    0    0  0.00000000000E+00  0.00000000000E+00  0.45593999997E+02  0.45594000000E+02  0.51100000000E-03 0.  1.
         11   -1    0    0    0    0 -0.00000000000E+00 -0.00000000000E+00 -0.45593999997E+02  0.45594000000E+02  0.51100000000E-03 0. -1.
    9900012    2    1    2    0    0  0.15515720333E+02 -0.63735512799E+01  0.83259184447E+01  0.72461530730E+02  0.69999948461E+02 0.  0.
         12    1    1    2    0    0 -0.15515720333E+02  0.63735512799E+01 -0.83259184447E+01  0.18726469270E+02  0.00000000000E+00 0. -1.
         11    1    3    3    0    0 -0.18092862700E+02  0.74303540949E+01  0.51145180401E+01  0.20216828082E+02  0.51100000000E-03 0. -1.
        -11    1    3    3    0    0  0.27760353330E+02  0.12926855757E+01 -0.11776220528E+02  0.30182571514E+02  0.51100000000E-03 0.  1.
        -12    1    3    3    0    0  0.58482297020E+01 -0.15096590951E+02  0.14987620933E+02  0.22062131134E+02  0.00000000000E+00 0.  1.
</event>
<event>
 7    1  0.1283194E-013  0.7246158E+02  0.7816164E-02  0.1226708E+00
        -11   -1    0    0    0    0  0.00000000000E+00  0.00000000000E+00  0.45593999997E+02  0.45594000000E+02  0.51100000000E-03 0.  1.
         11   -1    0    0    0    0 -0.00000000000E+00 -0.00000000000E+00 -0.45593999997E+02  0.45594000000E+02  0.51100000000E-03 0. -1.
    9900012    2    1    2    0    0  0.84888295183E+01  0.13889013928E+02  0.92581768600E+01  0.72461580875E+02  0.70000013783E+02 0.  0.
         12    1    1    2    0    0 -0.84888295183E+01 -0.13889013928E+02 -0.92581768600E+01  0.18726419125E+02  0.00000000000E+00 0. -1.
         11    1    3    3    0    0 -0.17452372471E+02  0.14563684039E+02 -0.45905062148E+01  0.23189630123E+02  0.51100000000E-03 0. -1.
        -11    1    3    3    0    0  0.27860041972E+02 -0.34429092041E+01 -0.63608893790E+01  0.28783614721E+02  0.51100000000E-03 0.  1.
        -12    1    3    3    0    0 -0.19188399825E+01  0.27682390926E+01  0.20209572454E+02  0.20488336031E+02  0.00000000000E+00 0.  1.
</event>
<event>
 7    1  0.1283194E-013  0.7246162E+02  0.7816164E-02  0.1226708E+00
        -11   -1    0    0    0    0  0.00000000000E+00  0.00000000000E+00  0.45593999997E+02  0.45594000000E+02  0.51100000000E-03 0.  1.
         11   -1    0    0    0    0 -0.00000000000E+00 -0.00000000000E+00 -0.45593999997E+02  0.45594000000E+02  0.51100000000E-03 0. -1.
    9900012    2    1    2    0    0 -0.80164698377E+01 -0.32450598965E+01  0.16609730705E+02  0.72461618703E+02  0.70000063061E+02 0.  0.
         12    1    1    2    0    0  0.80164698377E+01  0.32450598965E+01 -0.16609730705E+02  0.18726381297E+02  0.00000000000E+00 0. -1.
         11    1    3    3    0    0 -0.62983384465E+01 -0.13428290229E+02  0.23575302813E+02  0.27852880437E+02  0.51100000000E-03 0. -1.
        -11    1    3    3    0    0  0.17098713054E+02 -0.32009404585E+01 -0.11795412733E+02  0.21017701343E+02  0.51100000000E-03 0.  1.
         12    1    3    3    0    0 -0.18816844446E+02  0.13384170791E+02  0.48298406254E+01  0.23591036923E+02  0.00000000000E+00 0. -1.
</event>
<event>
 7    1  0.1283194E-013  0.7246161E+02  0.7816164E-02  0.1226708E+00
        -11   -1    0    0    0    0  0.00000000000E+00  0.00000000000E+00  0.45593999997E+02  0.45594000000E+02  0.51100000000E-03 0.  1.
         11   -1    0    0    0    0 -0.00000000000E+00 -0.00000000000E+00 -0.45593999997E+02  0.45594000000E+02  0.51100000000E-03 0. -1.
    9900012    2    1    2    0    0 -0.13055250643E+02 -0.13223049267E+02  0.23214121256E+01  0.72461613388E+02  0.70000056138E+02 0.  0.
         12    1    1    2    0    0  0.13055250643E+02  0.13223049267E+02 -0.23214121256E+01  0.18726386612E+02  0.00000000000E+00 0. -1.
         11    1    3    3    0    0  0.71855108482E+01  0.13240967104E+02 -0.17710119938E+02  0.23250873628E+02  0.51100000000E-03 0.  1.
        -11    1    3    3    0    0 -0.22166190204E+02 -0.18321597302E+02  0.14061385987E+01  0.28792327830E+02  0.51100000000E-03 0. -1.
        -12    1    3    3    0    0  0.19254287121E+01 -0.81424190691E+01  0.18625393465E+02  0.20418411930E+02  0.00000000000E+00 0.  1.
</event>
<event>
 7    1  0.1283194E-013  0.7246155E+02  0.7816164E-02  0.1226708E+00
        -11   -1    0    0    0    0  0.00000000000E+00  0.00000000000E+00  0.45593999997E+02  0.45594000000E+02  0.51100000000E-03 0.  1.
         11   -1    0    0    0    0 -0.00000000000E+00 -0.00000000000E+00 -0.45593999997E+02  0.45594000000E+02  0.51100000000E-03 0. -1.
    9900012    2    1    2    0    0 -0.17652751537E+02  0.20400199043E+01  0.59074972924E+01  0.72461552331E+02  0.69999976600E+02 0.  0.
         12    1    1    2    0    0  0.17652751537E+02 -0.20400199043E+01 -0.59074972924E+01  0.18726447669E+02  0.00000000000E+00 0. -1.
         11    1    3    3    0    0  0.18255727427E+01 -0.19211919691E+02  0.77467028932E+00  0.19314002392E+02  0.51100000000E-03 0. -1.
        -11    1    3    3    0    0  0.20420107829E+01  0.29157962551E+02 -0.15390284293E+01  0.29269868413E+02  0.51100000000E-03 0.  1.
        -12    1    3    3    0    0 -0.21520335063E+02 -0.79060229552E+01  0.66718554324E+01  0.23877681527E+02  0.00000000000E+00 0.  1.
</event>
<event>
 7    1  0.1283194E-013  0.7246151E+02  0.7816164E-02  0.1226708E+00
        -11   -1    0    0    0    0  0.00000000000E+00  0.00000000000E+00  0.45593999997E+02  0.45594000000E+02  0.51100000000E-03 0. -1.
         11   -1    0    0    0    0 -0.00000000000E+00 -0.00000000000E+00 -0.45593999997E+02  0.45594000000E+02  0.51100000000E-03 0.  1.
    9900012    2    1    2    0    0  0.10136762394E+02 -0.81265226417E+01 -0.13486547221E+02  0.72461513997E+02  0.69999926663E+02 0.  0.
         12    1    1    2    0    0 -0.10136762394E+02  0.81265226417E+01  0.13486547221E+02  0.18726486003E+02  0.00000000000E+00 0. -1.
         11    1    3    3    0    0  0.78520543914E+01  0.25029561735E+02  0.94686604161E-01  0.26232473856E+02  0.51100000000E-03 0.  1.
        -11    1    3    3    0    0 -0.20144142214E+01 -0.25568849096E+02 -0.22234319360E+02  0.33943907648E+02  0.51100000000E-03 0. -1.
         12    1    3    3    0    0  0.42991222237E+01 -0.75872352802E+01  0.86530855356E+01  0.12285132493E+02  0.00000000000E+00 0. -1.
</event>
<event>
 7    1  0.1283194E-013  0.7246158E+02  0.7816164E-02  0.1226708E+00
        -11   -1    0    0    0    0  0.00000000000E+00  0.00000000000E+00  0.45593999997E+02  0.45594000000E+02  0.51100000000E-03 0.  1.
         11   -1    0    0    0    0 -0.00000000000E+00 -0.00000000000E+00 -0.45593999997E+02  0.45594000000E+02  0.51100000000E-03 0. -1.
    9900012    2    1    2    0    0  0.39620393317E+01 -0.69472945185E+01  0.16932695243E+02  0.72461579493E+02  0.70000011984E+02 0.  0.
         12    1    1    2    0    0 -0.39620393317E+01  0.69472945185E+01 -0.16932695243E+02  0.18726420507E+02  0.00000000000E+00 0. -1.
         11    1    3    3    0    0 -0.23576229893E+02 -0.24384612479E+02  0.92469582653E+01  0.35156139992E+02  0.51100000000E-03 0. -1.
        -11    1    3    3    0    0  0.17467184868E+02  0.31698573268E+01  0.87845159801E+01  0.19807025621E+02  0.51100000000E-03 0.  1.
         12    1    3    3    0    0  0.10071084357E+02  0.14267460634E+02 -0.10987790022E+01  0.17498413881E+02  0.00000000000E+00 0. -1.
</event>
<event>
 7    1  0.1283194E-013  0.7246161E+02  0.7816164E-02  0.1226708E+00
        -11   -1    0    0    0    0  0.00000000000E+00  0.00000000000E+00  0.45593999997E+02  0.45594000000E+02  0.51100000000E-03 0. -1.
         11   -1    0    0    0    0 -0.00000000000E+00 -0.00000000000E+00 -0.45593999997E+02  0.45594000000E+02  0.51100000000E-03 0.  1.
    9900012    2    1    2    0    0  0.89040115389E+01  0.80585997545E+01 -0.14368553847E+02  0.72461607098E+02  0.70000047943E+02 0.  0.
         12    1    1    2    0    0 -0.89040115389E+01 -0.80585997545E+01  0.14368553847E+02  0.18726392902E+02  0.00000000000E+00 0. -1.
         11    1    3    3    0    0 -0.31997132287E+01  0.17047755462E+02 -0.18319659218E+02  0.25228437232E+02  0.51100000000E-03 0.  1.
        -11    1    3    3    0    0  0.62560042871E+01 -0.72548491984E+01  0.24230968289E+02  0.26055906260E+02  0.51100000000E-03 0. -1.
         12    1    3    3    0    0  0.58477204804E+01 -0.17343065092E+01 -0.20279862918E+02  0.21177263606E+02  0.00000000000E+00 0. -1.
</event>
<event>
 7    1  0.1283194E-013  0.7246155E+02  0.7816164E-02  0.1226708E+00
        -11   -1    0    0    0    0  0.00000000000E+00  0.00000000000E+00  0.45593999997E+02  0.45594000000E+02  0.51100000000E-03 0.  1.
         11   -1    0    0    0    0 -0.00000000000E+00 -0.00000000000E+00 -0.45593999997E+02  0.45594000000E+02  0.51100000000E-03 0. -1.
    9900012    2    1    2    0    0 -0.13796120163E+02 -0.70432424761E+01  0.10523292585E+02  0.72461551245E+02  0.69999975185E+02 0.  0.
         12    1    1    2    0    0  0.13796120163E+02  0.70432424761E+01 -0.10523292585E+02  0.18726448755E+02  0.00000000000E+00 0. -1.
         11    1    3    3    0    0  0.17311117302E+02  0.13256758878E+02 -0.72118851238E+01  0.22965794684E+02  0.51100000000E-03 0. -1.
        -11    1    3    3    0    0 -0.11309705518E+02 -0.97539183747E+01  0.22071123845E+02  0.26649256474E+02  0.51100000000E-03 0.  1.
         12    1    3    3    0    0 -0.19797531946E+02 -0.10546082979E+02 -0.43359461355E+01  0.22846500087E+02  0.00000000000E+00 0. -1.
</event>
<event>
 7    1  0.1604682E-013  0.7246157E+02  0.7816164E-02  0.1226708E+00
        -11   -1    0    0    0    0  0.00000000000E+00  0.00000000000E+00  0.45593999997E+02  0.45594000000E+02  0.51100000000E-03 0. -1.
         11   -1    0    0    0    0 -0.00000000000E+00 -0.00000000000E+00 -0.45593999997E+02  0.45594000000E+02  0.51100000000E-03 0.  1.
    9900012    2    1    2    0    0 -0.33978450127E+01  0.15424042194E+02 -0.10061449122E+02  0.72461569834E+02  0.69999999400E+02 0.  0.
         12    1    1    2    0    0  0.33978450127E+01 -0.15424042194E+02  0.10061449122E+02  0.18726430166E+02  0.00000000000E+00 0. -1.
         11    1    3    3    0    0  0.41593755770E+01 -0.78714350782E+01  0.16662118303E+02  0.18891428797E+02  0.51100000000E-03 0. -1.
        -11    1    3    3    0    0  0.44124184183E+01  0.30801586847E+02 -0.12532222854E+02  0.33544951908E+02  0.51100000000E-03 0.  1.
        -12    1    3    3    0    0 -0.11969639008E+02 -0.75061095748E+01 -0.14191344571E+02  0.20025189129E+02  0.00000000000E+00 0.  1.
</event>
<event>
 7    1  0.1283194E-013  0.7246157E+02  0.7816164E-02  0.1226708E+00
        -11   -1    0    0    0    0  0.00000000000E+00  0.00000000000E+00  0.45593999997E+02  0.45594000000E+02  0.51100000000E-03 0.  1.
         11   -1    0    0    0    0 -0.00000000000E+00 -0.00000000000E+00 -0.45593999997E+02  0.45594000000E+02  0.51100000000E-03 0. -1.
    9900012    2    1    2    0    0 -0.97405080731E+01  0.90160389561E+01 -0.13210322705E+02  0.72461572632E+02  0.70000003046E+02 0.  0.
         12    1    1    2    0    0  0.97405080731E+01 -0.90160389561E+01  0.13210322705E+02  0.18726427368E+02  0.00000000000E+00 0. -1.
         11    1    3    3    0    0  0.71284712667E+01 -0.27681684062E+02 -0.32257131077E+01  0.28766229513E+02  0.51100000000E-03 0. -1.
        -11    1    3    3    0    0 -0.13801064027E+02  0.33358932547E+02 -0.41987302249E+01  0.36344423021E+02  0.51100000000E-03 0.  1.
         12    1    3    3    0    0 -0.30679153130E+01  0.33387904711E+01 -0.57858793726E+01  0.73509200983E+01  0.00000000000E+00 0. -1.
</event>
<event>
 7    1  0.1283194E-013  0.7246159E+02  0.7816164E-02  0.1226708E+00
        -11   -1    0    0    0    0  0.00000000000E+00  0.00000000000E+00  0.45593999997E+02  0.45594000000E+02  0.51100000000E-03 0.  1.
         11   -1    0    0    0    0 -0.00000000000E+00 -0.00000000000E+00 -0.45593999997E+02  0.45594000000E+02  0.51100000000E-03 0. -1.
    9900012    2    1    2    0    0  0.21907423926E+01  0.17223309115E+02  0.70168775450E+01  0.72461593521E+02  0.70000030258E+02 0.  0.
         12    1    1    2    0    0 -0.21907423926E+01 -0.17223309115E+02 -0.70168775450E+01  0.18726406479E+02  0.00000000000E+00 0. -1.
         11    1    3    3    0    0 -0.43485352498E+01  0.15926962491E+02 -0.23678642646E+02  0.28866174163E+02  0.51100000000E-03 0. -1.
        -11    1    3    3    0    0  0.29792318445E+01 -0.11463174189E+02  0.20294823657E+01  0.12016612825E+02  0.51100000000E-03 0.  1.
         12    1    3    3    0    0  0.35600457978E+01  0.12759520813E+02  0.28666037825E+02  0.31578806533E+02  0.00000000000E+00 0. -1.
</event>
<event>
 7    1  0.1283194E-013  0.7246159E+02  0.7816164E-02  0.1226708E+00
        -11   -1    0    0    0    0  0.00000000000E+00  0.00000000000E+00  0.45593999997E+02  0.45594000000E+02  0.51100000000E-03 0.  1.
         11   -1    0    0    0    0 -0.00000000000E+00 -0.00000000000E+00 -0.45593999997E+02  0.45594000000E+02  0.51100000000E-03 0. -1.
    9900012    2    1    2    0    0 -0.79985506624E+01  0.72484799049E+01 -0.15302324890E+02  0.72461590289E+02  0.70000026046E+02 0.  0.
         12    1    1    2    0    0  0.79985506624E+01 -0.72484799049E+01  0.15302324890E+02  0.18726409711E+02  0.00000000000E+00 0. -1.
         11    1    3    3    0    0  0.46012239622E+01 -0.12906542366E+02 -0.22005737002E+02  0.25923012152E+02  0.51100000000E-03 0. -1.
        -11    1    3    3    0    0 -0.23524501617E+02  0.17305037729E+02 -0.57119588436E+01  0.29757234099E+02  0.51100000000E-03 0.  1.
         12    1    3    3    0    0  0.10924726993E+02  0.28499845415E+01  0.12415370955E+02  0.16781344037E+02  0.00000000000E+00 0. -1.
</event>
<event>
 7    1  0.1283194E-013  0.7246156E+02  0.7816164E-02  0.1226708E+00
        -11   -1    0    0    0    0  0.00000000000E+00  0.00000000000E+00  0.45593999997E+02  0.45594000000E+02  0.51100000000E-03 0.  1.
         11   -1    0    0    0    0 -0.00000000000E+00 -0.00000000000E+00 -0.45593999997E+02  0.45594000000E+02  0.51100000000E-03 0. -1.
    9900012    2    1    2    0    0 -0.14147986955E+02  0.63411288920E+01 -0.10502580881E+02  0.72461557314E+02  0.69999983091E+02 0.  0.
         12    1    1    2    0    0  0.14147986955E+02 -0.63411288920E+01  0.10502580881E+02  0.18726442686E+02  0.00000000000E+00 0. -1.
         11    1    3    3    0    0  0.42321290985E+01 -0.11314702272E+02 -0.20651392511E+02  0.23925162844E+02  0.51100000000E-03 0. -1.
        -11    1    3    3    0    0  0.22434931822E+01  0.17569078396E+02  0.19104878473E+02  0.26051912772E+02  0.51100000000E-03 0.  1.
         12    1    3    3    0    0 -0.20623609236E+02  0.86752767919E-01 -0.89560668427E+01  0.22484481699E+02  0.00000000000E+00 0. -1.
</event>
<event>
 7    1  0.1283194E-013  0.7246152E+02  0.7816164E-02  0.1226708E+00
        -11   -1    0    0    0    0  0.00000000000E+00  0.00000000000E+00  0.45593999997E+02  0.45594000000E+02  0.51100000000E-03 0. -1.
         11   -1    0    0    0    0 -0.00000000000E+00 -0.00000000000E+00 -0.45593999997E+02  0.45594000000E+02  0.51100000000E-03 0.  1.
    9900012    2    1    2    0    0  0.16824567444E+02 -0.28923376180E+01 -0.76973636182E+01  0.72461518931E+02  0.69999933090E+02 0.  0.
         12    1    1    2    0    0 -0.16824567444E+02  0.28923376180E+01  0.76973636182E+01  0.18726481069E+02  0.00000000000E+00 0. -1.
         11    1    3    3    0    0  0.73445887309E+01  0.11394060280E+02  0.20671935815E+01  0.13712799964E+02  0.51100000000E-03 0. -1.
        -11    1    3    3    0    0  0.26730791793E+02 -0.25215862505E+02 -0.10797610635E+02  0.38300957526E+02  0.51100000000E-03 0.  1.
        -12    1    3    3    0    0 -0.17250813080E+02  0.10929464606E+02  0.10330534355E+01  0.20447761440E+02  0.00000000000E+00 0.  1.
</event>
<event>
 7    1  0.1283194E-013  0.7246157E+02  0.7816164E-02  0.1226708E+00
        -11   -1    0    0    0    0  0.00000000000E+00  0.00000000000E+00  0.45593999997E+02  0.45594000000E+02  0.51100000000E-03 0.  1.
         11   -1    0    0    0    0 -0.00000000000E+00 -0.00000000000E+00 -0.45593999997E+02  0.45594000000E+02  0.51100000000E-03 0. -1.
    9900012    2    1    2    0    0  0.10866921451E+02  0.14445250112E+02  0.48912260826E+01  0.72461566137E+02  0.69999994585E+02 0.  0.
         12    1    1    2    0    0 -0.10866921451E+02 -0.14445250112E+02 -0.48912260826E+01  0.18726433863E+02  0.00000000000E+00 0. -1.
         11    1    3    3    0    0  0.12981758334E+02 -0.49959042670E+01 -0.99630643871E+01  0.17109873206E+02  0.51100000000E-03 0. -1.
        -11    1    3    3    0    0 -0.96349750637E+01 -0.28962769261E+01  0.27016763170E+02  0.28829267368E+02  0.51100000000E-03 0.  1.
        -12    1    3    3    0    0  0.75201381805E+01  0.22337431305E+02 -0.12162472701E+02  0.26522425563E+02  0.00000000000E+00 0.  1.
</event>
<event>
 7    1  0.1283194E-013  0.7246158E+02  0.7816164E-02  0.1226708E+00
        -11   -1    0    0    0    0  0.00000000000E+00  0.00000000000E+00  0.45593999997E+02  0.45594000000E+02  0.51100000000E-03 0. -1.
         11   -1    0    0    0    0 -0.00000000000E+00 -0.00000000000E+00 -0.45593999997E+02  0.45594000000E+02  0.51100000000E-03 0.  1.
    9900012    2    1    2    0    0 -0.48289032440E+01  0.22269331961E+01 -0.17955536615E+02  0.72461579276E+02  0.70000011700E+02 0.  0.
         12    1    1    2    0    0  0.48289032440E+01 -0.22269331961E+01  0.17955536615E+02  0.18726420724E+02  0.00000000000E+00 0. -1.
         11    1    3    3    0    0  0.13902992322E+00 -0.91398286085E+00  0.48173209837E+01  0.49052294249E+01  0.51100000000E-03 0. -1.
        -11    1    3    3    0    0 -0.16068875264E+02 -0.25868353476E+02 -0.19866119568E+02  0.36359911589E+02  0.51100000000E-03 0.  1.
        -12    1    3    3    0    0  0.11100942097E+02  0.29009269533E+02 -0.29067380307E+01  0.31196438262E+02  0.00000000000E+00 0.  1.
</event>
<event>
 7    1  0.1283194E-013  0.7246160E+02  0.7816164E-02  0.1226708E+00
        -11   -1    0    0    0    0  0.00000000000E+00  0.00000000000E+00  0.45593999997E+02  0.45594000000E+02  0.51100000000E-03 0. -1.
         11   -1    0    0    0    0 -0.00000000000E+00 -0.00000000000E+00 -0.45593999997E+02  0.45594000000E+02  0.51100000000E-03 0.  1.
    9900012    2    1    2    0    0 -0.14669053795E+02 -0.10853995072E+02 -0.42056682442E+01  0.72461601690E+02  0.70000040899E+02 0.  0.
         12    1    1    2    0    0  0.14669053795E+02  0.10853995072E+02  0.42056682442E+01  0.18726398310E+02  0.00000000000E+00 0. -1.
         11    1    3    3    0    0  0.25860876801E+02 -0.14845466078E+02 -0.57513686447E+01  0.30368586624E+02  0.51100000000E-03 0. -1.
        -11    1    3    3    0    0 -0.14926408788E+02  0.60730815135E+01 -0.16859083200E+01  0.16202539477E+02  0.51100000000E-03 0.  1.
         12    1    3    3    0    0 -0.25603521809E+02 -0.20816105070E+01  0.32316087204E+01  0.25890475589E+02  0.00000000000E+00 0. -1.
</event>
<event>
 7    1  0.1283194E-013  0.7246131E+02  0.7816164E-02  0.1226709E+00
        -11   -1    0    0    0    0  0.00000000000E+00  0.00000000000E+00  0.45593999997E+02  0.45594000000E+02  0.51100000000E-03 0.  1.
         11   -1    0    0    0    0 -0.00000000000E+00 -0.00000000000E+00 -0.45593999997E+02  0.45594000000E+02  0.51100000000E-03 0. -1.
    9900012    2    1    2    0    0  0.46139633182E+01  0.13808177697E+02  0.11778564590E+02  0.72461307483E+02  0.69999657639E+02 0.  0.
         12    1    1    2    0    0 -0.46139633182E+01 -0.13808177697E+02 -0.11778564590E+02  0.18726692517E+02  0.00000000000E+00 0. -1.
         11    1    3    3    0    0  0.18718081575E+02  0.30826788166E+02  0.17928738240E+02  0.40275266624E+02  0.51100000000E-03 0.  1.
        -11    1    3    3    0    0 -0.20181525562E+02 -0.14896093467E+02 -0.57623464656E+01  0.25736981401E+02  0.51100000000E-03 0. -1.
        -12    1    3    3    0    0  0.60774073048E+01 -0.21225170016E+01 -0.38782718446E+00  0.64490594582E+01  0.00000000000E+00 0.  1.
</event>
<event>
 7    1  0.1283194E-013  0.7246182E+02  0.7816164E-02  0.1226707E+00
        -11   -1    0    0    0    0  0.00000000000E+00  0.00000000000E+00  0.45593999997E+02  0.45594000000E+02  0.51100000000E-03 0. -1.
         11   -1    0    0    0    0 -0.00000000000E+00 -0.00000000000E+00 -0.45593999997E+02  0.45594000000E+02  0.51100000000E-03 0.  1.
    9900012    2    1    2    0    0 -0.12453165378E+02 -0.35868795667E+01 -0.13517502044E+02  0.72461817942E+02  0.70000322606E+02 0.  0.
         12    1    1    2    0    0  0.12453165378E+02  0.35868795667E+01  0.13517502044E+02  0.18726182058E+02  0.00000000000E+00 0. -1.
         11    1    3    3    0    0 -0.52723509931E-01 -0.23806917218E+02  0.49248786633E+00  0.23812069036E+02  0.51100000000E-03 0. -1.
        -11    1    3    3    0    0  0.12282253026E+02  0.17409083978E+02 -0.31491153288E+01  0.21537104540E+02  0.51100000000E-03 0.  1.
         12    1    3    3    0    0 -0.24682694895E+02  0.28109536737E+01 -0.10860874582E+02  0.27112644366E+02  0.00000000000E+00 0. -1.
</event>
<event>
 7    1  0.1283194E-013  0.7246154E+02  0.7816164E-02  0.1226708E+00
        -11   -1    0    0    0    0  0.00000000000E+00  0.00000000000E+00  0.45593999997E+02  0.45594000000E+02  0.51100000000E-03 0.  1.
         11   -1    0    0    0    0 -0.00000000000E+00 -0.00000000000E+00 -0.45593999997E+02  0.45594000000E+02  0.51100000000E-03 0. -1.
    9900012    2    1    2    0    0 -0.14497622780E+02  0.83728035551E+01  0.83901977436E+01  0.72461539475E+02  0.69999959852E+02 0.  0.
         12    1    1    2    0    0  0.14497622780E+02 -0.83728035551E+01 -0.83901977436E+01  0.18726460525E+02  0.00000000000E+00 0. -1.
         11    1    3    3    0    0 -0.29241218708E+02 -0.26130388554E+01 -0.67479433174E+01  0.30123273110E+02  0.51100000000E-03 0. -1.
        -11    1    3    3    0    0  0.30623242292E+01  0.20496274631E+02  0.17458358549E+02  0.27097405538E+02  0.51100000000E-03 0.  1.
        -12    1    3    3    0    0  0.11681271699E+02 -0.95104322204E+01 -0.23202174878E+01  0.15240860826E+02  0.00000000000E+00 0.  1.
</event>
<event>
 7    1  0.1283194E-013  0.7246156E+02  0.7816164E-02  0.1226708E+00
        -11   -1    0    0    0    0  0.00000000000E+00  0.00000000000E+00  0.45593999997E+02  0.45594000000E+02  0.51100000000E-03 0.  1.
         11   -1    0    0    0    0 -0.00000000000E+00 -0.00000000000E+00 -0.45593999997E+02  0.45594000000E+02  0.51100000000E-03 0. -1.
    9900012    2    1    2    0    0  0.16251614988E+02  0.49560582704E+01  0.78741329602E+01  0.72461562187E+02  0.69999989439E+02 0.  0.
         12    1    1    2    0    0 -0.16251614988E+02 -0.49560582704E+01 -0.78741329602E+01  0.18726437813E+02  0.00000000000E+00 0. -1.
         11    1    3    3    0    0  0.15380871820E+01  0.17310055920E+02  0.21704877794E+02  0.27804774202E+02  0.51100000000E-03 0.  1.
        -11    1    3    3    0    0  0.61559370101E+01 -0.10545332887E+02 -0.26548298947E+02  0.29221768999E+02  0.51100000000E-03 0. -1.
         12    1    3    3    0    0  0.85575907958E+01 -0.18086647624E+01  0.12717554113E+02  0.15435018985E+02  0.00000000000E+00 0. -1.
</event>
<event>
 7    1  0.1283194E-013  0.7246160E+02  0.7816164E-02  0.1226708E+00
        -11   -1    0    0    0    0  0.00000000000E+00  0.00000000000E+00  0.45593999997E+02  0.45594000000E+02  0.51100000000E-03 0. -1.
         11   -1    0    0    0    0 -0.00000000000E+00 -0.00000000000E+00 -0.45593999997E+02  0.45594000000E+02  0.51100000000E-03 0.  1.
    9900012    2    1    2    0    0  0.15230559381E+02  0.10746004302E+02  0.17976245749E+01  0.72461601477E+02  0.70000040621E+02 0.  0.
         12    1    1    2    0    0 -0.15230559381E+02 -0.10746004302E+02 -0.17976245749E+01  0.18726398523E+02  0.00000000000E+00 0. -1.
         11    1    3    3    0    0  0.30319354744E+02  0.17154279227E+02 -0.65661191821E+01  0.35449209995E+02  0.51100000000E-03 0. -1.
        -11    1    3    3    0    0 -0.11486119803E+02 -0.14292227150E+02 -0.67917345900E+01  0.19553167622E+02  0.51100000000E-03 0.  1.
         12    1    3    3    0    0 -0.36026755601E+01  0.78839522262E+01  0.15155478347E+02  0.17459223861E+02  0.00000000000E+00 0. -1.
</event>
<event>
 7    1  0.1283194E-013  0.7246161E+02  0.7816164E-02  0.1226708E+00
        -11   -1    0    0    0    0  0.00000000000E+00  0.00000000000E+00  0.45593999997E+02  0.45594000000E+02  0.51100000000E-03 0.  1.
         11   -1    0    0    0    0 -0.00000000000E+00 -0.00000000000E+00 -0.45593999997E+02  0.45594000000E+02  0.51100000000E-03 0. -1.
    9900012    2    1    2    0    0 -0.13241280559E+02  0.11688027507E+02  0.62238517776E+01  0.72461606092E+02  0.70000046633E+02 0.  0.
         12    1    1    2    0    0  0.13241280559E+02 -0.11688027507E+02 -0.62238517776E+01  0.18726393908E+02  0.00000000000E+00 0. -1.
         11    1    3    3    0    0 -0.23633283677E+02  0.79027818125E+01  0.25150505076E+02  0.35405281577E+02  0.51100000000E-03 0.  1.
        -11    1    3    3    0    0  0.39600586058E+01  0.87100020724E+01 -0.25106210993E+02  0.26867601883E+02  0.51100000000E-03 0. -1.
         12    1    3    3    0    0  0.64319445121E+01 -0.49247563778E+01  0.61795576939E+01  0.10188722632E+02  0.00000000000E+00 0. -1.
</event>
<event>
 7    1  0.1283194E-013  0.7246157E+02  0.7816164E-02  0.1226708E+00
        -11   -1    0    0    0    0  0.00000000000E+00  0.00000000000E+00  0.45593999997E+02  0.45594000000E+02  0.51100000000E-03 0. -1.
         11   -1    0    0    0    0 -0.00000000000E+00 -0.00000000000E+00 -0.45593999997E+02  0.45594000000E+02  0.51100000000E-03 0.  1.
    9900012    2    1    2    0    0  0.34977086713E+01  0.18345582795E+02 -0.13729343970E+01  0.72461566199E+02  0.69999994666E+02 0.  0.
         12    1    1    2    0    0 -0.34977086713E+01 -0.18345582795E+02  0.13729343970E+01  0.18726433801E+02  0.00000000000E+00 0. -1.
         11    1    3    3    0    0 -0.24650178293E+02 -0.40800280443E+01 -0.41811150376E+01  0.25332975386E+02  0.51100000000E-03 0. -1.
        -11    1    3    3    0    0  0.43000991308E+01  0.16252205051E+02 -0.97961296212E+01  0.19457368203E+02  0.51100000000E-03 0.  1.
         12    1    3    3    0    0  0.23847787833E+02  0.61734057875E+01  0.12604310262E+02  0.27671222610E+02  0.00000000000E+00 0. -1.
</event>
<event>
 7    1  0.1283194E-013  0.7246156E+02  0.7816164E-02  0.1226708E+00
        -11   -1    0    0    0    0  0.00000000000E+00  0.00000000000E+00  0.45593999997E+02  0.45594000000E+02  0.51100000000E-03 0.  1.
         11   -1    0    0    0    0 -0.00000000000E+00 -0.00000000000E+00 -0.45593999997E+02  0.45594000000E+02  0.51100000000E-03 0. -1.
    9900012    2    1    2    0    0 -0.58571763883E+01  0.12814180459E+02  0.12335712884E+02  0.72461560177E+02  0.69999986820E+02 0.  0.
         12    1    1    2    0    0  0.58571763883E+01 -0.12814180459E+02 -0.12335712884E+02  0.18726439823E+02  0.00000000000E+00 0. -1.
         11    1    3    3    0    0 -0.15760275074E+02 -0.21270998636E+02  0.12556789021E+02  0.29300419863E+02  0.51100000000E-03 0.  1.
        -11    1    3    3    0    0  0.15361871065E+02  0.28788524356E+02 -0.65316116554E+01  0.33278043336E+02  0.51100000000E-03 0. -1.
         12    1    3    3    0    0 -0.54587723795E+01  0.52966547395E+01  0.63105355192E+01  0.98830969771E+01  0.00000000000E+00 0. -1.
</event>
<event>
 7    1  0.1283194E-013  0.7246167E+02  0.7816164E-02  0.1226708E+00
        -11   -1    0    0    0    0  0.00000000000E+00  0.00000000000E+00  0.45593999997E+02  0.45594000000E+02  0.51100000000E-03 0.  1.
         11   -1    0    0    0    0 -0.00000000000E+00 -0.00000000000E+00 -0.45593999997E+02  0.45594000000E+02  0.51100000000E-03 0. -1.
    9900012    2    1    2    0    0  0.24384023311E+01  0.20037789253E+01  0.18458449194E+02  0.72461674078E+02  0.70000135197E+02 0.  0.
         12    1    1    2    0    0 -0.24384023311E+01 -0.20037789253E+01 -0.18458449194E+02  0.18726325922E+02  0.00000000000E+00 0. -1.
         11    1    3    3    0    0 -0.92344601958E+01 -0.81189475751E+01  0.26066826521E+02  0.28821381125E+02  0.51100000000E-03 0.  1.
        -11    1    3    3    0    0  0.12201854484E+02 -0.43151004382E+01 -0.20522262371E+02  0.24262493642E+02  0.51100000000E-03 0. -1.
        -12    1    3    3    0    0 -0.52899195744E+00  0.14437826939E+02  0.12913885044E+02  0.19377799311E+02  0.00000000000E+00 0.  1.
</event>
<event>
 7    1  0.1283194E-013  0.7246157E+02  0.7816164E-02  0.1226708E+00
        -11   -1    0    0    0    0  0.00000000000E+00  0.00000000000E+00  0.45593999997E+02  0.45594000000E+02  0.51100000000E-03 0.  1.
         11   -1    0    0    0    0 -0.00000000000E+00 -0.00000000000E+00 -0.45593999997E+02  0.45594000000E+02  0.51100000000E-03 0. -1.
    9900012    2    1    2    0    0  0.71160591023E+00  0.85132797853E+01  0.16664239952E+02  0.72461569245E+02  0.69999998633E+02 0.  0.
         12    1    1    2    0    0 -0.71160591023E+00 -0.85132797853E+01 -0.16664239952E+02  0.18726430755E+02  0.00000000000E+00 0. -1.
         11    1    3    3    0    0 -0.24859442431E+02 -0.12279981605E+02  0.22575192101E+01  0.27818810533E+02  0.51100000000E-03 0. -1.
        -11    1    3    3    0    0  0.98835745013E+01  0.21128048226E+02  0.16833221574E+02  0.28765201469E+02  0.51100000000E-03 0.  1.
         12    1    3    3    0    0  0.15687473840E+02 -0.33478683509E+00 -0.24265008325E+01  0.15877557243E+02  0.00000000000E+00 0. -1.
</event>
<event>
 7    1  0.1283194E-013  0.7246160E+02  0.7816164E-02  0.1226708E+00
        -11   -1    0    0    0    0  0.00000000000E+00  0.00000000000E+00  0.45593999997E+02  0.45594000000E+02  0.51100000000E-03 0.  1.
         11   -1    0    0    0    0 -0.00000000000E+00 -0.00000000000E+00 -0.45593999997E+02  0.45594000000E+02  0.51100000000E-03 0. -1.
    9900012    2    1    2    0    0 -0.39660040903E+01  0.11171886499E+02  0.14496125441E+02  0.72461604479E+02  0.70000044532E+02 0.  0.
         12    1    1    2    0    0  0.39660040903E+01 -0.11171886499E+02 -0.14496125441E+02  0.18726395521E+02  0.00000000000E+00 0. -1.
         11    1    3    3    0    0  0.24422172213E+02 -0.96202890869E+01 -0.37552725513E+01  0.26515929738E+02  0.51100000000E-03 0. -1.
        -11    1    3    3    0    0 -0.63881159847E+01 -0.23025476847E+01  0.11481052817E+02  0.13338827750E+02  0.51100000000E-03 0.  1.
         12    1    3    3    0    0 -0.22000060318E+02  0.23094723270E+02  0.67703451753E+01  0.32606846991E+02  0.00000000000E+00 0. -1.
</event>
<event>
 7    1  0.1283194E-013  0.7246154E+02  0.7816164E-02  0.1226708E+00
        -11   -1    0    0    0    0  0.00000000000E+00  0.00000000000E+00  0.45593999997E+02  0.45594000000E+02  0.51100000000E-03 0. -1.
         11   -1    0    0    0    0 -0.00000000000E+00 -0.00000000000E+00 -0.45593999997E+02  0.45594000000E+02  0.51100000000E-03 0.  1.
    9900012    2    1    2    0    0  0.97201179387E+01 -0.86626670256E+01 -0.13459485564E+02  0.72461541595E+02  0.69999962614E+02 0.  0.
         12    1    1    2    0    0 -0.97201179387E+01  0.86626670256E+01  0.13459485564E+02  0.18726458405E+02  0.00000000000E+00 0. -1.
         11    1    3    3    0    0  0.85702548553E+01  0.22688184926E+02 -0.13645128316E+02  0.27827909202E+02  0.51100000000E-03 0. -1.
        -11    1    3    3    0    0  0.75191633980E+01 -0.35913207956E+02 -0.10232718886E+01  0.36706176722E+02  0.51100000000E-03 0.  1.
        -12    1    3    3    0    0 -0.63693003146E+01  0.45623560051E+01  0.12089146401E+01  0.79274556714E+01  0.00000000000E+00 0.  1.
</event>
<event>
 7    1  0.1283194E-013  0.7246162E+02  0.7816164E-02  0.1226708E+00
        -11   -1    0    0    0    0  0.00000000000E+00  0.00000000000E+00  0.45593999997E+02  0.45594000000E+02  0.51100000000E-03 0. -1.
         11   -1    0    0    0    0 -0.00000000000E+00 -0.00000000000E+00 -0.45593999997E+02  0.45594000000E+02  0.51100000000E-03 0.  1.
    9900012    2    1    2    0    0  0.15631818385E+02  0.82062528560E+01 -0.62434765982E+01  0.72461619357E+02  0.70000063913E+02 0.  0.
         12    1    1    2    0    0 -0.15631818385E+02 -0.82062528560E+01  0.62434765982E+01  0.18726380643E+02  0.00000000000E+00 0. -1.
         11    1    3    3    0    0 -0.45758298159E+01 -0.20563022700E+02 -0.70544051886E+01  0.22215777139E+02  0.51100000000E-03 0. -1.
        -11    1    3    3    0    0  0.12875171412E+01  0.25643994409E+02  0.11674709115E+02  0.28205867879E+02  0.51100000000E-03 0.  1.
        -12    1    3    3    0    0  0.18920131060E+02  0.31252811472E+01 -0.10863780525E+02  0.22039974339E+02  0.00000000000E+00 0.  1.
</event>
<event>
 7    1  0.1283194E-013  0.7246114E+02  0.7816164E-02  0.1226709E+00
        -11   -1    0    0    0    0  0.00000000000E+00  0.00000000000E+00  0.45593999997E+02  0.45594000000E+02  0.51100000000E-03 0. -1.
         11   -1    0    0    0    0 -0.00000000000E+00 -0.00000000000E+00 -0.45593999997E+02  0.45594000000E+02  0.51100000000E-03 0.  1.
    9900012    2    1    2    0    0 -0.10943420465E+02  0.14065301589E+02 -0.57536174254E+01  0.72461140313E+02  0.69999439867E+02 0.  0.
         12    1    1    2    0    0  0.10943420465E+02 -0.14065301589E+02  0.57536174254E+01  0.18726859687E+02  0.00000000000E+00 0. -1.
         11    1    3    3    0    0  0.55538240450E+01 -0.19344585842E+02  0.10821197137E+02  0.22850738952E+02  0.51100000000E-03 0. -1.
        -11    1    3    3    0    0 -0.13030017102E+02  0.38202713831E+02 -0.11931616824E+02  0.42090285935E+02  0.51100000000E-03 0.  1.
         12    1    3    3    0    0 -0.34672274075E+01 -0.47928264001E+01 -0.46431977377E+01  0.75201154265E+01  0.00000000000E+00 0. -1.
</event>
<event>
 7    1  0.1283194E-013  0.7246174E+02  0.7816164E-02  0.1226708E+00
        -11   -1    0    0    0    0  0.00000000000E+00  0.00000000000E+00  0.45593999997E+02  0.45594000000E+02  0.51100000000E-03 0. -1.
         11   -1    0    0    0    0 -0.00000000000E+00 -0.00000000000E+00 -0.45593999997E+02  0.45594000000E+02  0.51100000000E-03 0.  1.
    9900012    2    1    2    0    0  0.15707101852E+02 -0.95671279938E+01 -0.35255792382E+01  0.72461743150E+02  0.70000225177E+02 0.  0.
         12    1    1    2    0    0 -0.15707101852E+02  0.95671279938E+01  0.35255792382E+01  0.18726256850E+02  0.00000000000E+00 0. -1.
         11    1    3    3    0    0 -0.19742250851E+02 -0.21594923445E+02 -0.43483635669E+00  0.29262369524E+02  0.51100000000E-03 0. -1.
        -11    1    3    3    0    0  0.29694581939E+02  0.16726023659E+02  0.20853625087E+01  0.34144938147E+02  0.51100000000E-03 0.  1.
         12    1    3    3    0    0  0.57547707637E+01 -0.46982282078E+01 -0.51761053902E+01  0.90544354792E+01  0.00000000000E+00 0. -1.
</event>
<event>
 7    1  0.1283194E-013  0.7246148E+02  0.7816164E-02  0.1226708E+00
        -11   -1    0    0    0    0  0.00000000000E+00  0.00000000000E+00  0.45593999997E+02  0.45594000000E+02  0.51100000000E-03 0.  1.
         11   -1    0    0    0    0 -0.00000000000E+00 -0.00000000000E+00 -0.45593999997E+02  0.45594000000E+02  0.51100000000E-03 0. -1.
    9900012    2    1    2    0    0 -0.13679662444E+02 -0.43969702441E+01 -0.12008991802E+02  0.72461484147E+02  0.69999887777E+02 0.  0.
         12    1    1    2    0    0  0.13679662444E+02  0.43969702441E+01  0.12008991802E+02  0.18726515853E+02  0.00000000000E+00 0. -1.
         11    1    3    3    0    0 -0.13565025445E+02  0.74820269094E+00 -0.10486589992E+02  0.17162117950E+02  0.51100000000E-03 0. -1.
        -11    1    3    3    0    0  0.19377398221E+02 -0.10072801393E+02 -0.18779897585E+02  0.28803288758E+02  0.51100000000E-03 0.  1.
        -12    1    3    3    0    0 -0.19492035219E+02  0.49276284577E+01  0.17257495776E+02  0.26496077439E+02  0.00000000000E+00 0.  1.
</event>
<event>
 7    1  0.1283194E-013  0.7246092E+02  0.7816164E-02  0.1226710E+00
        -11   -1    0    0    0    0  0.00000000000E+00  0.00000000000E+00  0.45593999997E+02  0.45594000000E+02  0.51100000000E-03 0. -1.
         11   -1    0    0    0    0 -0.00000000000E+00 -0.00000000000E+00 -0.45593999997E+02  0.45594000000E+02  0.51100000000E-03 0.  1.
    9900012    2    1    2    0    0  0.35438931663E+00 -0.72609971004E+01 -0.17258504314E+02  0.72460916889E+02  0.69999148814E+02 0.  0.
         12    1    1    2    0    0 -0.35438931663E+00  0.72609971004E+01  0.17258504314E+02  0.18727083111E+02  0.00000000000E+00 0. -1.
         11    1    3    3    0    0  0.10081639189E+02  0.13171231229E+02  0.15233273587E+02  0.22520510768E+02  0.51100000000E-03 0. -1.
        -11    1    3    3    0    0 -0.17547220399E+02 -0.15363348218E+02 -0.95936440435E+01  0.25218553061E+02  0.51100000000E-03 0.  1.
        -12    1    3    3    0    0  0.78199705263E+01 -0.50688801115E+01 -0.22898133857E+02  0.24721853061E+02  0.00000000000E+00 0.  1.
</event>
<event>
 7    1  0.1283194E-013  0.7246165E+02  0.7816164E-02  0.1226708E+00
        -11   -1    0    0    0    0  0.00000000000E+00  0.00000000000E+00  0.45593999997E+02  0.45594000000E+02  0.51100000000E-03 0.  1.
         11   -1    0    0    0    0 -0.00000000000E+00 -0.00000000000E+00 -0.45593999997E+02  0.45594000000E+02  0.51100000000E-03 0. -1.
    9900012    2    1    2    0    0 -0.76095551373E+00  0.10874657123E+02  0.15226263735E+02  0.72461646159E+02  0.70000098828E+02 0.  0.
         12    1    1    2    0    0  0.76095551373E+00 -0.10874657123E+02 -0.15226263735E+02  0.18726353841E+02  0.00000000000E+00 0. -1.
         11    1    3    3    0    0  0.57532157813E+01  0.46002517719E+01 -0.38906003699E+01  0.83305809936E+01  0.51100000000E-03 0. -1.
        -11    1    3    3    0    0 -0.32236202507E+01 -0.12965177812E+02  0.35952523717E+02  0.38354550253E+02  0.51100000000E-03 0.  1.
        -12    1    3    3    0    0 -0.32905510443E+01  0.19239583163E+02 -0.16835659612E+02  0.25776514912E+02  0.00000000000E+00 0.  1.
</event>
<event>
 7    1  0.1283194E-013  0.7246163E+02  0.7816164E-02  0.1226708E+00
        -11   -1    0    0    0    0  0.00000000000E+00  0.00000000000E+00  0.45593999997E+02  0.45594000000E+02  0.51100000000E-03 0. -1.
         11   -1    0    0    0    0 -0.00000000000E+00 -0.00000000000E+00 -0.45593999997E+02  0.45594000000E+02  0.51100000000E-03 0.  1.
    9900012    2    1    2    0    0 -0.18745152045E+01  0.88983489382E+01 -0.16370168160E+02  0.72461632849E+02  0.70000081489E+02 0.  0.
         12    1    1    2    0    0  0.18745152045E+01 -0.88983489382E+01  0.16370168160E+02  0.18726367151E+02  0.00000000000E+00 0. -1.
         11    1    3    3    0    0 -0.19950101238E+02  0.13649056091E+01 -0.28158329693E+02  0.34536372682E+02  0.51100000000E-03 0.  1.
        -11    1    3    3    0    0  0.16008423363E+02 -0.96812017475E+01  0.61849303428E+01  0.19704026224E+02  0.51100000000E-03 0. -1.
        -12    1    3    3    0    0  0.20671626705E+01  0.17214645077E+02  0.56032311897E+01  0.18221233942E+02  0.00000000000E+00 0.  1.
</event>
<event>
 7    1  0.1283194E-013  0.7246157E+02  0.7816164E-02  0.1226708E+00
        -11   -1    0    0    0    0  0.00000000000E+00  0.00000000000E+00  0.45593999997E+02  0.45594000000E+02  0.51100000000E-03 0.  1.
         11   -1    0    0    0    0 -0.00000000000E+00 -0.00000000000E+00 -0.45593999997E+02  0.45594000000E+02  0.51100000000E-03 0. -1.
    9900012    2    1    2    0    0 -0.11674892351E+02 -0.11341172655E+02  0.92603303452E+01  0.72461574108E+02  0.70000004968E+02 0.  0.
         12    1    1    2    0    0  0.11674892351E+02  0.11341172655E+02 -0.92603303452E+01  0.18726425892E+02  0.00000000000E+00 0. -1.
         11    1    3    3    0    0 -0.13814203375E+02  0.21340563380E+02 -0.42824390393E+01  0.25779665333E+02  0.51100000000E-03 0. -1.
        -11    1    3    3    0    0  0.39732610292E+01 -0.47770378167E+01  0.17377856412E+02  0.18455264486E+02  0.51100000000E-03 0.  1.
         12    1    3    3    0    0 -0.18339500052E+01 -0.27904698218E+02 -0.38350870277E+01  0.28226644289E+02  0.00000000000E+00 0. -1.
</event>
<event>
 7    1  0.1283194E-013  0.7246158E+02  0.7816164E-02  0.1226708E+00
        -11   -1    0    0    0    0  0.00000000000E+00  0.00000000000E+00  0.45593999997E+02  0.45594000000E+02  0.51100000000E-03 0. -1.
         11   -1    0    0    0    0 -0.00000000000E+00 -0.00000000000E+00 -0.45593999997E+02  0.45594000000E+02  0.51100000000E-03 0.  1.
    9900012    2    1    2    0    0  0.11882251283E+02  0.13144248719E+02 -0.60596731944E+01  0.72461579916E+02  0.70000012534E+02 0.  0.
         12    1    1    2    0    0 -0.11882251283E+02 -0.13144248719E+02  0.60596731944E+01  0.18726420084E+02  0.00000000000E+00 0. -1.
         11    1    3    3    0    0 -0.20134849257E+02 -0.12567200277E+02  0.70874874250E+00  0.23745504889E+02  0.51100000000E-03 0. -1.
        -11    1    3    3    0    0  0.29266228893E+02  0.10081129874E+02  0.11594706202E+01  0.30975566267E+02  0.51100000000E-03 0.  1.
        -12    1    3    3    0    0  0.27508716464E+01  0.15630319122E+02 -0.79278925571E+01  0.17740508760E+02  0.00000000000E+00 0.  1.
</event>
<event>
 7    1  0.1283194E-013  0.7246165E+02  0.7816164E-02  0.1226708E+00
        -11   -1    0    0    0    0  0.00000000000E+00  0.00000000000E+00  0.45593999997E+02  0.45594000000E+02  0.51100000000E-03 0. -1.
         11   -1    0    0    0    0 -0.00000000000E+00 -0.00000000000E+00 -0.45593999997E+02  0.45594000000E+02  0.51100000000E-03 0.  1.
    9900012    2    1    2    0    0 -0.55274483318E+01  0.82615545249E+01 -0.15870417929E+02  0.72461651358E+02  0.70000105600E+02 0.  0.
         12    1    1    2    0    0  0.55274483318E+01 -0.82615545249E+01  0.15870417929E+02  0.18726348642E+02  0.00000000000E+00 0. -1.
         11    1    3    3    0    0 -0.25790677799E+02 -0.45171902396E+01  0.87181193776E+01  0.27596551863E+02  0.51100000000E-03 0.  1.
        -11    1    3    3    0    0  0.11668291119E+02  0.19810538589E+01  0.45054297509E+01  0.12663826022E+02  0.51100000000E-03 0. -1.
         12    1    3    3    0    0  0.85949383481E+01  0.10797690906E+02 -0.29093967058E+02  0.32201273472E+02  0.00000000000E+00 0. -1.
</event>
<event>
 7    1  0.1283194E-013  0.7246167E+02  0.7816164E-02  0.1226708E+00
        -11   -1    0    0    0    0  0.00000000000E+00  0.00000000000E+00  0.45593999997E+02  0.45594000000E+02  0.51100000000E-03 0. -1.
         11   -1    0    0    0    0 -0.00000000000E+00 -0.00000000000E+00 -0.45593999997E+02  0.45594000000E+02  0.51100000000E-03 0.  1.
    9900012    2    1    2    0    0 -0.14716638533E+02 -0.12302978611E+01 -0.11514440861E+02  0.72461670118E+02  0.70000130038E+02 0.  0.
         12    1    1    2    0    0  0.14716638533E+02  0.12302978611E+01  0.11514440861E+02  0.18726329882E+02  0.00000000000E+00 0. -1.
         11    1    3    3    0    0  0.17103928844E+01  0.21145246430E+02  0.68683112350E+01  0.22298443665E+02  0.51100000000E-03 0. -1.
        -11    1    3    3    0    0 -0.26078831822E+02 -0.97258639053E+01 -0.19846724026E+02  0.34184650835E+02  0.51100000000E-03 0.  1.
        -12    1    3    3    0    0  0.96518004053E+01 -0.12649680386E+02  0.14639719296E+01  0.15978575617E+02  0.00000000000E+00 0.  1.
</event>
<event>
 7    1  0.1283194E-013  0.7246162E+02  0.7816164E-02  0.1226708E+00
        -11   -1    0    0    0    0  0.00000000000E+00  0.00000000000E+00  0.45593999997E+02  0.45594000000E+02  0.51100000000E-03 0. -1.
         11   -1    0    0    0    0 -0.00000000000E+00 -0.00000000000E+00 -0.45593999997E+02  0.45594000000E+02  0.51100000000E-03 0.  1.
    9900012    2    1    2    0    0 -0.45757133959E+01  0.11906180719E+02 -0.13710689581E+02  0.72461620180E+02  0.70000064985E+02 0.  0.
         12    1    1    2    0    0  0.45757133959E+01 -0.11906180719E+02  0.13710689581E+02  0.18726379820E+02  0.00000000000E+00 0. -1.
         11    1    3    3    0    0  0.18251901692E+02 -0.10784740460E+02 -0.84306288859E+01  0.22814864581E+02  0.51100000000E-03 0. -1.
        -11    1    3    3    0    0 -0.25825763074E+02  0.17440342467E+02 -0.17695970473E+02  0.35836893769E+02  0.51100000000E-03 0.  1.
         12    1    3    3    0    0  0.29981479859E+01  0.52505787118E+01  0.12415909778E+02  0.13809861830E+02  0.00000000000E+00 0. -1.
</event>
<event>
 7    1  0.1283194E-013  0.7246156E+02  0.7816164E-02  0.1226708E+00
        -11   -1    0    0    0    0  0.00000000000E+00  0.00000000000E+00  0.45593999997E+02  0.45594000000E+02  0.51100000000E-03 0. -1.
         11   -1    0    0    0    0 -0.00000000000E+00 -0.00000000000E+00 -0.45593999997E+02  0.45594000000E+02  0.51100000000E-03 0.  1.
    9900012    2    1    2    0    0  0.15494696900E+02 -0.69752108304E+01 -0.78702295436E+01  0.72461555831E+02  0.69999981158E+02 0.  0.
         12    1    1    2    0    0 -0.15494696900E+02  0.69752108304E+01  0.78702295436E+01  0.18726444169E+02  0.00000000000E+00 0. -1.
         11    1    3    3    0    0  0.33507677252E+02  0.11601656418E+02 -0.56933830882E+01  0.35913472092E+02  0.51100000000E-03 0. -1.
        -11    1    3    3    0    0 -0.12113472025E+02 -0.65974080578E+01 -0.13305759278E+02  0.19165208786E+02  0.51100000000E-03 0.  1.
         12    1    3    3    0    0 -0.58995083271E+01 -0.11979459191E+02  0.11128912823E+02  0.17382874953E+02  0.00000000000E+00 0. -1.
</event>
<event>
 7    1  0.1283194E-013  0.7246153E+02  0.7816164E-02  0.1226708E+00
        -11   -1    0    0    0    0  0.00000000000E+00  0.00000000000E+00  0.45593999997E+02  0.45594000000E+02  0.51100000000E-03 0. -1.
         11   -1    0    0    0    0 -0.00000000000E+00 -0.00000000000E+00 -0.45593999997E+02  0.45594000000E+02  0.51100000000E-03 0.  1.
    9900012    2    1    2    0    0  0.11643477882E+01  0.86078827387E+01 -0.16590033707E+02  0.72461532917E+02  0.69999951309E+02 0.  0.
         12    1    1    2    0    0 -0.11643477882E+01 -0.86078827387E+01  0.16590033707E+02  0.18726467083E+02  0.00000000000E+00 0. -1.
         11    1    3    3    0    0 -0.16053489655E+02  0.51630996586E+01 -0.17257297958E+01  0.16951409138E+02  0.51100000000E-03 0. -1.
        -11    1    3    3    0    0  0.13592067550E+02 -0.19488480959E+02 -0.20763604292E+02  0.31554277900E+02  0.51100000000E-03 0.  1.
        -12    1    3    3    0    0  0.36257698927E+01  0.22933264039E+02  0.58993003812E+01  0.23955845879E+02  0.00000000000E+00 0.  1.
</event>
<event>
 7    1  0.1283194E-013  0.7246146E+02  0.7816164E-02  0.1226708E+00
        -11   -1    0    0    0    0  0.00000000000E+00  0.00000000000E+00  0.45593999997E+02  0.45594000000E+02  0.51100000000E-03 0.  1.
         11   -1    0    0    0    0 -0.00000000000E+00 -0.00000000000E+00 -0.45593999997E+02  0.45594000000E+02  0.51100000000E-03 0. -1.
    9900012    2    1    2    0    0  0.61916876471E+01 -0.17112817424E+02 -0.44156257673E+01  0.72461460890E+02  0.69999857481E+02 0.  0.
         12    1    1    2    0    0 -0.61916876471E+01  0.17112817424E+02  0.44156257673E+01  0.18726539110E+02  0.00000000000E+00 0. -1.
         11    1    3    3    0    0  0.22022051223E+02  0.17995811830E+02  0.95219685776E+01  0.29991463274E+02  0.51100000000E-03 0. -1.
        -11    1    3    3    0    0 -0.84163200611E+01 -0.79899657850E+01 -0.14064918424E+01  0.11689833882E+02  0.51100000000E-03 0.  1.
         12    1    3    3    0    0 -0.74140435148E+01 -0.27118663469E+02 -0.12531102502E+02  0.30780163734E+02  0.00000000000E+00 0. -1.
</event>
<event>
 7    1  0.1283194E-013  0.7246153E+02  0.7816164E-02  0.1226708E+00
        -11   -1    0    0    0    0  0.00000000000E+00  0.00000000000E+00  0.45593999997E+02  0.45594000000E+02  0.51100000000E-03 0. -1.
         11   -1    0    0    0    0 -0.00000000000E+00 -0.00000000000E+00 -0.45593999997E+02  0.45594000000E+02  0.51100000000E-03 0.  1.
    9900012    2    1    2    0    0 -0.35638289428E+01  0.16376769099E+02  0.83535222383E+01  0.72461527384E+02  0.69999944101E+02 0.  0.
         12    1    1    2    0    0  0.35638289428E+01 -0.16376769099E+02 -0.83535222383E+01  0.18726472616E+02  0.00000000000E+00 0. -1.
         11    1    3    3    0    0  0.27018718828E+01 -0.21059743954E+02  0.10209908289E+02  0.23559608541E+02  0.51100000000E-03 0. -1.
        -11    1    3    3    0    0  0.24329995509E+01  0.20806476647E+02  0.13269719287E+02  0.24797467764E+02  0.51100000000E-03 0.  1.
        -12    1    3    3    0    0 -0.86987003765E+01  0.16630036406E+02 -0.15126105338E+02  0.24104451079E+02  0.00000000000E+00 0.  1.
</event>
<event>
 7    1  0.1283194E-013  0.7246153E+02  0.7816164E-02  0.1226708E+00
        -11   -1    0    0    0    0  0.00000000000E+00  0.00000000000E+00  0.45593999997E+02  0.45594000000E+02  0.51100000000E-03 0. -1.
         11   -1    0    0    0    0 -0.00000000000E+00 -0.00000000000E+00 -0.45593999997E+02  0.45594000000E+02  0.51100000000E-03 0.  1.
    9900012    2    1    2    0    0  0.46066606616E+01 -0.94920383812E+01 -0.15471276796E+02  0.72461534216E+02  0.69999953001E+02 0.  0.
         12    1    1    2    0    0 -0.46066606616E+01  0.94920383812E+01  0.15471276796E+02  0.18726465784E+02  0.00000000000E+00 0. -1.
         11    1    3    3    0    0 -0.39681373404E+01 -0.13755792829E+02 -0.32781901276E+01  0.14687221694E+02  0.51100000000E-03 0. -1.
        -11    1    3    3    0    0 -0.17851066231E+02  0.19039226676E+02 -0.73429735182E+01  0.27112210872E+02  0.51100000000E-03 0.  1.
        -12    1    3    3    0    0  0.26425864233E+02 -0.14775472228E+02 -0.48501131499E+01  0.30662101650E+02  0.00000000000E+00 0.  1.
</event>
<event>
 7    1  0.1283194E-013  0.7246135E+02  0.7816164E-02  0.1226709E+00
        -11   -1    0    0    0    0  0.00000000000E+00  0.00000000000E+00  0.45593999997E+02  0.45594000000E+02  0.51100000000E-03 0. -1.
         11   -1    0    0    0    0 -0.00000000000E+00 -0.00000000000E+00 -0.45593999997E+02  0.45594000000E+02  0.51100000000E-03 0.  1.
    9900012    2    1    2    0    0 -0.28327943472E+01  0.18074623956E+02 -0.39963375741E+01  0.72461348698E+02  0.69999711329E+02 0.  0.
         12    1    1    2    0    0  0.28327943472E+01 -0.18074623956E+02  0.39963375741E+01  0.18726651302E+02  0.00000000000E+00 0. -1.
         11    1    3    3    0    0  0.27730856186E+02  0.17680280551E+02  0.15544275491E+01  0.32924291191E+02  0.51100000000E-03 0. -1.
        -11    1    3    3    0    0 -0.23750409912E+02  0.69838878904E+00 -0.14839145820E+02  0.28013746033E+02  0.51100000000E-03 0.  1.
         12    1    3    3    0    0 -0.68132406210E+01 -0.30404538376E+00  0.92883806964E+01  0.11523311474E+02  0.00000000000E+00 0. -1.
</event>
<event>
 7    1  0.1283194E-013  0.7246157E+02  0.7816164E-02  0.1226708E+00
        -11   -1    0    0    0    0  0.00000000000E+00  0.00000000000E+00  0.45593999997E+02  0.45594000000E+02  0.51100000000E-03 0.  1.
         11   -1    0    0    0    0 -0.00000000000E+00 -0.00000000000E+00 -0.45593999997E+02  0.45594000000E+02  0.51100000000E-03 0. -1.
    9900012    2    1    2    0    0 -0.96001226934E+01  0.49503214856E+01  0.15297427219E+02  0.72461566328E+02  0.69999994834E+02 0.  0.
         12    1    1    2    0    0  0.96001226934E+01 -0.49503214856E+01 -0.15297427219E+02  0.18726433672E+02  0.00000000000E+00 0. -1.
         11    1    3    3    0    0  0.55051193035E+01  0.69517118863E+01 -0.23322166352E+02  0.24951073731E+02  0.51100000000E-03 0. -1.
        -11    1    3    3    0    0  0.65912052441E-01  0.61005775860E+01  0.24529469501E+02  0.25276793023E+02  0.51100000000E-03 0.  1.
         12    1    3    3    0    0 -0.15171154049E+02 -0.81019679867E+01  0.14090124070E+02  0.22233699574E+02  0.00000000000E+00 0. -1.
</event>
<event>
 7    1  0.1283194E-013  0.7246153E+02  0.7816164E-02  0.1226708E+00
        -11   -1    0    0    0    0  0.00000000000E+00  0.00000000000E+00  0.45593999997E+02  0.45594000000E+02  0.51100000000E-03 0.  1.
         11   -1    0    0    0    0 -0.00000000000E+00 -0.00000000000E+00 -0.45593999997E+02  0.45594000000E+02  0.51100000000E-03 0. -1.
    9900012    2    1    2    0    0  0.12121016611E+02 -0.78590872307E+01  0.11916216072E+02  0.72461534736E+02  0.69999953679E+02 0.  0.
         12    1    1    2    0    0 -0.12121016611E+02  0.78590872307E+01 -0.11916216072E+02  0.18726465264E+02  0.00000000000E+00 0. -1.
         11    1    3    3    0    0 -0.30943958396E+01 -0.33779774538E+02 -0.66495782149E+01  0.34566824328E+02  0.51100000000E-03 0. -1.
        -11    1    3    3    0    0  0.89217626178E+01  0.22091317465E+02  0.82386253493E+01  0.25209107550E+02  0.51100000000E-03 0.  1.
         12    1    3    3    0    0  0.62936498332E+01  0.38293698417E+01  0.10327168938E+02  0.12685602858E+02  0.00000000000E+00 0. -1.
</event>
<event>
 7    1  0.1283194E-013  0.7246159E+02  0.7816164E-02  0.1226708E+00
        -11   -1    0    0    0    0  0.00000000000E+00  0.00000000000E+00  0.45593999997E+02  0.45594000000E+02  0.51100000000E-03 0.  1.
         11   -1    0    0    0    0 -0.00000000000E+00 -0.00000000000E+00 -0.45593999997E+02  0.45594000000E+02  0.51100000000E-03 0. -1.
    9900012    2    1    2    0    0  0.14331855489E+02 -0.70065905080E+01  0.98073481803E+01  0.72461588954E+02  0.70000024308E+02 0.  0.
         12    1    1    2    0    0 -0.14331855489E+02  0.70065905080E+01 -0.98073481803E+01  0.18726411046E+02  0.00000000000E+00 0. -1.
         11    1    3    3    0    0 -0.99190117157E+01  0.14970007250E+02 -0.33388275085E+01  0.18265696808E+02  0.51100000000E-03 0. -1.
        -11    1    3    3    0    0  0.24152339221E+02 -0.22867022274E+02 -0.70340472182E+01  0.33995794123E+02  0.51100000000E-03 0.  1.
        -12    1    3    3    0    0  0.98527984148E-01  0.89042451592E+00  0.20180222907E+02  0.20200098023E+02  0.00000000000E+00 0.  1.
</event>
<event>
 7    1  0.1283194E-013  0.7246158E+02  0.7816164E-02  0.1226708E+00
        -11   -1    0    0    0    0  0.00000000000E+00  0.00000000000E+00  0.45593999997E+02  0.45594000000E+02  0.51100000000E-03 0.  1.
         11   -1    0    0    0    0 -0.00000000000E+00 -0.00000000000E+00 -0.45593999997E+02  0.45594000000E+02  0.51100000000E-03 0. -1.
    9900012    2    1    2    0    0  0.18632395385E+02  0.14061640995E+01  0.12390869566E+01  0.72461580381E+02  0.70000013140E+02 0.  0.
         12    1    1    2    0    0 -0.18632395385E+02 -0.14061640995E+01 -0.12390869566E+01  0.18726419619E+02  0.00000000000E+00 0. -1.
         11    1    3    3    0    0  0.51350448931E+01  0.93276762648E+00 -0.80623460651E+01  0.96041743963E+01  0.51100000000E-03 0. -1.
        -11    1    3    3    0    0 -0.22881949935E+02 -0.41303949927E+01 -0.44880058661E+01  0.23680920432E+02  0.51100000000E-03 0.  1.
        -12    1    3    3    0    0  0.36379300427E+02  0.46037914657E+01  0.13789438888E+02  0.39176485552E+02  0.00000000000E+00 0.  1.
</event>
<event>
 7    1  0.1283194E-013  0.7246158E+02  0.7816164E-02  0.1226708E+00
        -11   -1    0    0    0    0  0.00000000000E+00  0.00000000000E+00  0.45593999997E+02  0.45594000000E+02  0.51100000000E-03 0.  1.
         11   -1    0    0    0    0 -0.00000000000E+00 -0.00000000000E+00 -0.45593999997E+02  0.45594000000E+02  0.51100000000E-03 0. -1.
    9900012    2    1    2    0    0  0.57760166398E+00  0.16285818664E+02  0.92259001271E+01  0.72461581592E+02  0.70000014717E+02 0.  0.
         12    1    1    2    0    0 -0.57760166398E+00 -0.16285818664E+02 -0.92259001271E+01  0.18726418408E+02  0.00000000000E+00 0. -1.
         11    1    3    3    0    0 -0.11749928273E+02 -0.15800430914E+02  0.62367431005E+00  0.19700340134E+02  0.51100000000E-03 0. -1.
        -11    1    3    3    0    0 -0.55309838250E+01  0.30419750019E+02 -0.35120505846E+01  0.31117317893E+02  0.51100000000E-03 0.  1.
         12    1    3    3    0    0  0.17858513762E+02  0.16664995584E+01  0.12114276402E+02  0.21643923565E+02  0.00000000000E+00 0. -1.
</event>
<event>
 7    1  0.1283194E-013  0.7246153E+02  0.7816164E-02  0.1226708E+00
        -11   -1    0    0    0    0  0.00000000000E+00  0.00000000000E+00  0.45593999997E+02  0.45594000000E+02  0.51100000000E-03 0.  1.
         11   -1    0    0    0    0 -0.00000000000E+00 -0.00000000000E+00 -0.45593999997E+02  0.45594000000E+02  0.51100000000E-03 0. -1.
    9900012    2    1    2    0    0 -0.43368519694E+01  0.91693057306E+01  0.15741547977E+02  0.72461527153E+02  0.69999943800E+02 0.  0.
         12    1    1    2    0    0  0.43368519694E+01 -0.91693057306E+01 -0.15741547977E+02  0.18726472847E+02  0.00000000000E+00 0. -1.
         11    1    3    3    0    0 -0.56285821287E+01  0.10915350430E+02  0.47632177335E+00  0.12290349648E+02  0.51100000000E-03 0. -1.
        -11    1    3    3    0    0 -0.16190509251E+02 -0.15203250213E+02  0.27177879999E+02  0.35098555075E+02  0.51100000000E-03 0.  1.
        -12    1    3    3    0    0  0.17482239410E+02  0.13457205513E+02 -0.11912653796E+02  0.25072622430E+02  0.00000000000E+00 0.  1.
</event>
<event>
 7    1  0.1283194E-013  0.7246155E+02  0.7816164E-02  0.1226708E+00
        -11   -1    0    0    0    0  0.00000000000E+00  0.00000000000E+00  0.45593999997E+02  0.45594000000E+02  0.51100000000E-03 0. -1.
         11   -1    0    0    0    0 -0.00000000000E+00 -0.00000000000E+00 -0.45593999997E+02  0.45594000000E+02  0.51100000000E-03 0.  1.
    9900012    2    1    2    0    0 -0.88508709818E+01  0.95730494117E+01 -0.13442429328E+02  0.72461545493E+02  0.69999967691E+02 0.  0.
         12    1    1    2    0    0  0.88508709818E+01 -0.95730494117E+01  0.13442429328E+02  0.18726454507E+02  0.00000000000E+00 0. -1.
         11    1    3    3    0    0  0.21591958469E+02  0.26217273329E+01 -0.96187107429E+01  0.23782466679E+02  0.51100000000E-03 0. -1.
        -11    1    3    3    0    0 -0.20054442972E+02  0.16573810668E+02  0.10939119643E+02  0.28222973298E+02  0.51100000000E-03 0.  1.
         12    1    3    3    0    0 -0.10388386479E+02 -0.96224885896E+01 -0.14762838228E+02  0.20456105515E+02  0.00000000000E+00 0. -1.
</event>
<event>
 7    1  0.1283194E-013  0.7246157E+02  0.7816164E-02  0.1226708E+00
        -11   -1    0    0    0    0  0.00000000000E+00  0.00000000000E+00  0.45593999997E+02  0.45594000000E+02  0.51100000000E-03 0.  1.
         11   -1    0    0    0    0 -0.00000000000E+00 -0.00000000000E+00 -0.45593999997E+02  0.45594000000E+02  0.51100000000E-03 0. -1.
    9900012    2    1    2    0    0  0.64678267922E+01  0.15475851401E+02  0.83273319832E+01  0.72461569001E+02  0.69999998316E+02 0.  0.
         12    1    1    2    0    0 -0.64678267922E+01 -0.15475851401E+02 -0.83273319832E+01  0.18726430999E+02  0.00000000000E+00 0. -1.
         11    1    3    3    0    0  0.14680941596E+02  0.14755578394E+01 -0.16486370514E+02  0.22124821583E+02  0.51100000000E-03 0. -1.
        -11    1    3    3    0    0 -0.18207962997E+02 -0.65013169103E+01  0.18289112337E+02  0.26613693250E+02  0.51100000000E-03 0.  1.
         12    1    3    3    0    0  0.99948481937E+01  0.20501610472E+02  0.65245901604E+01  0.23723054169E+02  0.00000000000E+00 0. -1.
</event>
<event>
 7    1  0.1283194E-013  0.7246108E+02  0.7816164E-02  0.1226709E+00
        -11   -1    0    0    0    0  0.00000000000E+00  0.00000000000E+00  0.45593999997E+02  0.45594000000E+02  0.51100000000E-03 0.  1.
         11   -1    0    0    0    0 -0.00000000000E+00 -0.00000000000E+00 -0.45593999997E+02  0.45594000000E+02  0.51100000000E-03 0. -1.
    9900012    2    1    2    0    0  0.11796455796E+02  0.14033132320E+02  0.38226272058E+01  0.72461076846E+02  0.69999357189E+02 0.  0.
         12    1    1    2    0    0 -0.11796455796E+02 -0.14033132320E+02 -0.38226272058E+01  0.18726923154E+02  0.00000000000E+00 0. -1.
         11    1    3    3    0    0 -0.84994304201E+01 -0.43390278842E+01 -0.16994166337E+02  0.19490232687E+02  0.51100000000E-03 0. -1.
        -11    1    3    3    0    0  0.18478104538E+02  0.28548980908E+02  0.24589780094E+02  0.41965961725E+02  0.51100000000E-03 0.  1.
        -12    1    3    3    0    0  0.18177816784E+01 -0.10176820704E+02 -0.37729865516E+01  0.11004882434E+02  0.00000000000E+00 0.  1.
</event>
<event>
 7    1  0.1283194E-013  0.7246157E+02  0.7816164E-02  0.1226708E+00
        -11   -1    0    0    0    0  0.00000000000E+00  0.00000000000E+00  0.45593999997E+02  0.45594000000E+02  0.51100000000E-03 0.  1.
         11   -1    0    0    0    0 -0.00000000000E+00 -0.00000000000E+00 -0.45593999997E+02  0.45594000000E+02  0.51100000000E-03 0. -1.
    9900012    2    1    2    0    0  0.17178457765E+02 -0.79580559653E-01  0.74547586028E+01  0.72461570279E+02  0.69999999980E+02 0.  0.
         12    1    1    2    0    0 -0.17178457765E+02  0.79580559653E-01 -0.74547586028E+01  0.18726429721E+02  0.00000000000E+00 0. -1.
         11    1    3    3    0    0  0.32668687102E+02 -0.11379910104E+02 -0.60123331799E+01  0.35112584944E+02  0.51100000000E-03 0. -1.
        -11    1    3    3    0    0 -0.16214533534E+02 -0.14585698298E+01  0.17545072038E+02  0.23934662662E+02  0.51100000000E-03 0.  1.
         12    1    3    3    0    0  0.72430419716E+00  0.12758899374E+02 -0.40779802550E+01  0.13414322673E+02  0.00000000000E+00 0. -1.
</event>
<event>
 7    1  0.1283194E-013  0.7246154E+02  0.7816164E-02  0.1226708E+00
        -11   -1    0    0    0    0  0.00000000000E+00  0.00000000000E+00  0.45593999997E+02  0.45594000000E+02  0.51100000000E-03 0. -1.
         11   -1    0    0    0    0 -0.00000000000E+00 -0.00000000000E+00 -0.45593999997E+02  0.45594000000E+02  0.51100000000E-03 0.  1.
    9900012    2    1    2    0    0 -0.18171177007E+02  0.43790099708E+01  0.11458544873E+01  0.72461537850E+02  0.69999957735E+02 0.  0.
         12    1    1    2    0    0  0.18171177007E+02 -0.43790099708E+01 -0.11458544873E+01  0.18726462150E+02  0.00000000000E+00 0. -1.
         11    1    3    3    0    0  0.10486270458E+02 -0.11082820767E+02 -0.10167762684E+02  0.18335053382E+02  0.51100000000E-03 0. -1.
        -11    1    3    3    0    0 -0.16025617043E+02  0.23678392141E+02  0.21640900709E+02  0.35858265989E+02  0.51100000000E-03 0.  1.
        -12    1    3    3    0    0 -0.12631830422E+02 -0.82165614037E+01 -0.10327283538E+02  0.18268218479E+02  0.00000000000E+00 0.  1.
</event>
<event>
 7    1  0.1283194E-013  0.7246151E+02  0.7816164E-02  0.1226708E+00
        -11   -1    0    0    0    0  0.00000000000E+00  0.00000000000E+00  0.45593999997E+02  0.45594000000E+02  0.51100000000E-03 0. -1.
         11   -1    0    0    0    0 -0.00000000000E+00 -0.00000000000E+00 -0.45593999997E+02  0.45594000000E+02  0.51100000000E-03 0.  1.
    9900012    2    1    2    0    0  0.17588156179E+02 -0.54800419140E+01 -0.33626278961E+01  0.72461511714E+02  0.69999923689E+02 0.  0.
         12    1    1    2    0    0 -0.17588156179E+02  0.54800419140E+01  0.33626278961E+01  0.18726488286E+02  0.00000000000E+00 0. -1.
         11    1    3    3    0    0 -0.14573669195E+02 -0.14823485446E+02  0.11337729869E+01  0.20818573343E+02  0.51100000000E-03 0.  1.
        -11    1    3    3    0    0  0.23338846039E+02  0.96623142400E+01  0.15602754736E+02  0.29690200514E+02  0.51100000000E-03 0. -1.
        -12    1    3    3    0    0  0.88229793344E+01 -0.31887070772E+00 -0.20099155619E+02  0.21952737858E+02  0.00000000000E+00 0.  1.
</event>
<event>
 7    1  0.1283194E-013  0.7246162E+02  0.7816164E-02  0.1226708E+00
        -11   -1    0    0    0    0  0.00000000000E+00  0.00000000000E+00  0.45593999997E+02  0.45594000000E+02  0.51100000000E-03 0.  1.
         11   -1    0    0    0    0 -0.00000000000E+00 -0.00000000000E+00 -0.45593999997E+02  0.45594000000E+02  0.51100000000E-03 0. -1.
    9900012    2    1    2    0    0  0.15771691629E+02 -0.10095836063E+02 -0.70677138133E-01  0.72461624005E+02  0.70000069968E+02 0.  0.
         12    1    1    2    0    0 -0.15771691629E+02  0.10095836063E+02  0.70677138133E-01  0.18726375995E+02  0.00000000000E+00 0. -1.
         11    1    3    3    0    0  0.13808829439E+02 -0.50477394325E+01 -0.21809093944E+02  0.26302091604E+02  0.51100000000E-03 0. -1.
        -11    1    3    3    0    0 -0.53626218280E+01  0.13539750698E+02  0.21756005042E+02  0.26180265803E+02  0.51100000000E-03 0.  1.
         12    1    3    3    0    0  0.73254840188E+01 -0.18587847329E+02 -0.17588235888E-01  0.19979266598E+02  0.00000000000E+00 0. -1.
</event>
<event>
 7    1  0.1283194E-013  0.7246137E+02  0.7816164E-02  0.1226709E+00
        -11   -1    0    0    0    0  0.00000000000E+00  0.00000000000E+00  0.45593999997E+02  0.45594000000E+02  0.51100000000E-03 0. -1.
         11   -1    0    0    0    0 -0.00000000000E+00 -0.00000000000E+00 -0.45593999997E+02  0.45594000000E+02  0.51100000000E-03 0.  1.
    9900012    2    1    2    0    0  0.92724640498E+01  0.16269270641E+02 -0.13793645355E+00  0.72461367008E+02  0.69999735182E+02 0.  0.
         12    1    1    2    0    0 -0.92724640498E+01 -0.16269270641E+02  0.13793645355E+00  0.18726632992E+02  0.00000000000E+00 0. -1.
         11    1    3    3    0    0 -0.66372909842E+01 -0.24142041609E+02  0.33916202188E+01  0.25266477646E+02  0.51100000000E-03 0. -1.
        -11    1    3    3    0    0  0.10698989555E+02  0.22636083611E+02 -0.10837597990E+02  0.27282122154E+02  0.51100000000E-03 0.  1.
        -12    1    3    3    0    0  0.52107654793E+01  0.17775228638E+02  0.73080413175E+01  0.19912767209E+02  0.00000000000E+00 0.  1.
</event>
<event>
 7    1  0.1283194E-013  0.7246157E+02  0.7816164E-02  0.1226708E+00
        -11   -1    0    0    0    0  0.00000000000E+00  0.00000000000E+00  0.45593999997E+02  0.45594000000E+02  0.51100000000E-03 0.  1.
         11   -1    0    0    0    0 -0.00000000000E+00 -0.00000000000E+00 -0.45593999997E+02  0.45594000000E+02  0.51100000000E-03 0. -1.
    9900012    2    1    2    0    0  0.64435589668E+01 -0.65400014353E+01  0.16321399783E+02  0.72461570500E+02  0.70000000268E+02 0.  0.
         12    1    1    2    0    0 -0.64435589668E+01  0.65400014353E+01 -0.16321399783E+02  0.18726429500E+02  0.00000000000E+00 0. -1.
         11    1    3    3    0    0 -0.39856753913E+01  0.21525684047E+02  0.10092864849E+02  0.24106152806E+02  0.51100000000E-03 0. -1.
        -11    1    3    3    0    0 -0.10862460028E+02 -0.17960732493E+02  0.11880836390E+02  0.24119187862E+02  0.51100000000E-03 0.  1.
        -12    1    3    3    0    0  0.21291694386E+02 -0.10104952989E+02 -0.56523014559E+01  0.24236229832E+02  0.00000000000E+00 0.  1.
</event>
<event>
 7    1  0.1283194E-013  0.7246156E+02  0.7816164E-02  0.1226708E+00
        -11   -1    0    0    0    0  0.00000000000E+00  0.00000000000E+00  0.45593999997E+02  0.45594000000E+02  0.51100000000E-03 0. -1.
         11   -1    0    0    0    0 -0.00000000000E+00 -0.00000000000E+00 -0.45593999997E+02  0.45594000000E+02  0.51100000000E-03 0.  1.
    9900012    2    1    2    0    0  0.16415881532E+02 -0.84232462515E+01  0.32011186823E+01  0.72461564015E+02  0.69999991819E+02 0.  0.
         12    1    1    2    0    0 -0.16415881532E+02  0.84232462515E+01 -0.32011186823E+01  0.18726435985E+02  0.00000000000E+00 0. -1.
         11    1    3    3    0    0 -0.10940949748E+02  0.21132359558E+01  0.10852078335E+02  0.15554348332E+02  0.51100000000E-03 0. -1.
        -11    1    3    3    0    0  0.25761467625E+02 -0.82645406706E+01  0.17096948849E+02  0.32004085784E+02  0.51100000000E-03 0.  1.
        -12    1    3    3    0    0  0.15953636557E+01 -0.22719415367E+01 -0.24747908501E+02  0.24903129898E+02  0.00000000000E+00 0.  1.
</event>
<event>
 7    1  0.1283194E-013  0.7246155E+02  0.7816164E-02  0.1226708E+00
        -11   -1    0    0    0    0  0.00000000000E+00  0.00000000000E+00  0.45593999997E+02  0.45594000000E+02  0.51100000000E-03 0. -1.
         11   -1    0    0    0    0 -0.00000000000E+00 -0.00000000000E+00 -0.45593999997E+02  0.45594000000E+02  0.51100000000E-03 0.  1.
    9900012    2    1    2    0    0 -0.88883316221E+01 -0.15897864375E+02 -0.43514653068E+01  0.72461553967E+02  0.69999978730E+02 0.  0.
         12    1    1    2    0    0  0.88883316221E+01  0.15897864375E+02  0.43514653068E+01  0.18726446033E+02  0.00000000000E+00 0. -1.
         11    1    3    3    0    0 -0.12307415740E+02 -0.51503416245E+00  0.23708473302E+02  0.26717586885E+02  0.51100000000E-03 0. -1.
        -11    1    3    3    0    0 -0.49605723387E+01 -0.22852335903E+02 -0.12378415179E+02  0.26458679044E+02  0.51100000000E-03 0.  1.
        -12    1    3    3    0    0  0.83796564569E+01  0.74695056898E+01 -0.15681523430E+02  0.19285288037E+02  0.00000000000E+00 0.  1.
</event>
<event>
 7    1  0.1283194E-013  0.7246159E+02  0.7816164E-02  0.1226708E+00
        -11   -1    0    0    0    0  0.00000000000E+00  0.00000000000E+00  0.45593999997E+02  0.45594000000E+02  0.51100000000E-03 0.  1.
         11   -1    0    0    0    0 -0.00000000000E+00 -0.00000000000E+00 -0.45593999997E+02  0.45594000000E+02  0.51100000000E-03 0. -1.
    9900012    2    1    2    0    0  0.23717929397E+01 -0.81753214539E+01  0.16679840991E+02  0.72461591425E+02  0.70000027527E+02 0.  0.
         12    1    1    2    0    0 -0.23717929397E+01  0.81753214539E+01 -0.16679840991E+02  0.18726408575E+02  0.00000000000E+00 0. -1.
         11    1    3    3    0    0  0.71415318450E+00 -0.24759646549E+02 -0.98581415330E+00  0.24789553078E+02  0.51100000000E-03 0. -1.
        -11    1    3    3    0    0 -0.24071863145E+01  0.67424514105E+01  0.30308432751E+02  0.31142515844E+02  0.51100000000E-03 0.  1.
         12    1    3    3    0    0  0.40648260697E+01  0.98418736841E+01 -0.12642777607E+02  0.16529522504E+02  0.00000000000E+00 0. -1.
</event>
<event>
 7    1  0.1283194E-013  0.7246088E+02  0.7816164E-02  0.1226710E+00
        -11   -1    0    0    0    0  0.00000000000E+00  0.00000000000E+00  0.45593999997E+02  0.45594000000E+02  0.51100000000E-03 0.  1.
         11   -1    0    0    0    0 -0.00000000000E+00 -0.00000000000E+00 -0.45593999997E+02  0.45594000000E+02  0.51100000000E-03 0. -1.
    9900012    2    1    2    0    0  0.19718111707E+01 -0.21743930917E+01  0.18495653035E+02  0.72460875132E+02  0.69999094416E+02 0.  0.
         12    1    1    2    0    0 -0.19718111707E+01  0.21743930917E+01 -0.18495653035E+02  0.18727124868E+02  0.00000000000E+00 0. -1.
         11    1    3    3    0    0 -0.30895412691E+02  0.17370132674E+01  0.26203215699E+01  0.31054948492E+02  0.51100000000E-03 0. -1.
        -11    1    3    3    0    0  0.21973881490E+02  0.57859308510E+01  0.14030165577E+02  0.26705318009E+02  0.51100000000E-03 0.  1.
        -12    1    3    3    0    0  0.10893342371E+02 -0.96973372101E+01  0.18451658885E+01  0.14700608632E+02  0.00000000000E+00 0.  1.
</event>
<event>
 7    1  0.1283194E-013  0.7246160E+02  0.7816164E-02  0.1226708E+00
        -11   -1    0    0    0    0  0.00000000000E+00  0.00000000000E+00  0.45593999997E+02  0.45594000000E+02  0.51100000000E-03 0.  1.
         11   -1    0    0    0    0 -0.00000000000E+00 -0.00000000000E+00 -0.45593999997E+02  0.45594000000E+02  0.51100000000E-03 0. -1.
    9900012    2    1    2    0    0 -0.13951804071E+02  0.80566769531E+01 -0.95454310593E+01  0.72461597930E+02  0.70000036001E+02 0.  0.
         12    1    1    2    0    0  0.13951804071E+02 -0.80566769531E+01  0.95454310593E+01  0.18726402070E+02  0.00000000000E+00 0. -1.
         11    1    3    3    0    0  0.26418972862E+01 -0.14654382638E+01  0.19962154476E+00  0.30277020326E+01  0.51100000000E-03 0. -1.
        -11    1    3    3    0    0 -0.18996726179E+02  0.32929542347E+00 -0.36441446459E+02  0.41096995769E+02  0.51100000000E-03 0.  1.
        -12    1    3    3    0    0  0.24030248215E+01  0.91928197934E+01  0.26696393855E+02  0.28336900129E+02  0.00000000000E+00 0.  1.
</event>
<event>
 7    1  0.1283194E-013  0.7246154E+02  0.7816164E-02  0.1226708E+00
        -11   -1    0    0    0    0  0.00000000000E+00  0.00000000000E+00  0.45593999997E+02  0.45594000000E+02  0.51100000000E-03 0.  1.
         11   -1    0    0    0    0 -0.00000000000E+00 -0.00000000000E+00 -0.45593999997E+02  0.45594000000E+02  0.51100000000E-03 0. -1.
    9900012    2    1    2    0    0  0.25329062025E+01  0.35227634769E+01  0.18216882502E+02  0.72461540526E+02  0.69999961221E+02 0.  0.
         12    1    1    2    0    0 -0.25329062025E+01 -0.35227634769E+01 -0.18216882502E+02  0.18726459474E+02  0.00000000000E+00 0. -1.
         11    1    3    3    0    0 -0.42237640909E+01 -0.27258577470E+01 -0.36457252945E+01  0.62098145493E+01  0.51100000000E-03 0. -1.
        -11    1    3    3    0    0  0.16872924568E+02  0.10299937369E+02  0.40270055345E+02  0.44860468690E+02  0.51100000000E-03 0.  1.
        -12    1    3    3    0    0 -0.10116254275E+02 -0.40513161449E+01 -0.18407447548E+02  0.21391257287E+02  0.00000000000E+00 0.  1.
</event>
<event>
 7    1  0.1283194E-013  0.7246161E+02  0.7816164E-02  0.1226708E+00
        -11   -1    0    0    0    0  0.00000000000E+00  0.00000000000E+00  0.45593999997E+02  0.45594000000E+02  0.51100000000E-03 0.  1.
         11   -1    0    0    0    0 -0.00000000000E+00 -0.00000000000E+00 -0.45593999997E+02  0.45594000000E+02  0.51100000000E-03 0. -1.
    9900012    2    1    2    0    0 -0.13114843654E+01 -0.18421526556E+02 -0.30991922201E+01  0.72461611552E+02  0.70000053746E+02 0.  0.
         12    1    1    2    0    0  0.13114843654E+01  0.18421526556E+02  0.30991922201E+01  0.18726388448E+02  0.00000000000E+00 0. -1.
         11    1    3    3    0    0 -0.58837248781E+01  0.12960148088E+02  0.44993006404E+01  0.14927403103E+02  0.51100000000E-03 0. -1.
        -11    1    3    3    0    0  0.13034465367E+01 -0.43564399259E+02 -0.99451083409E+01  0.44704150096E+02  0.51100000000E-03 0.  1.
        -12    1    3    3    0    0  0.32687939759E+01  0.12182724615E+02  0.23466154804E+01  0.12830058352E+02  0.00000000000E+00 0.  1.
</event>
<event>
 7    1  0.1283194E-013  0.7246149E+02  0.7816164E-02  0.1226708E+00
        -11   -1    0    0    0    0  0.00000000000E+00  0.00000000000E+00  0.45593999997E+02  0.45594000000E+02  0.51100000000E-03 0.  1.
         11   -1    0    0    0    0 -0.00000000000E+00 -0.00000000000E+00 -0.45593999997E+02  0.45594000000E+02  0.51100000000E-03 0. -1.
    9900012    2    1    2    0    0 -0.13436445979E+02  0.46323531737E+01  0.12193668639E+02  0.72461485873E+02  0.69999890025E+02 0.  0.
         12    1    1    2    0    0  0.13436445979E+02 -0.46323531737E+01 -0.12193668639E+02  0.18726514127E+02  0.00000000000E+00 0. -1.
         11    1    3    3    0    0  0.28379799337E+01 -0.19833000680E+02  0.23782972912E+02  0.31097135670E+02  0.51100000000E-03 0. -1.
        -11    1    3    3    0    0 -0.17629172363E+02  0.72333220078E+01  0.22953469511E+01  0.19193157201E+02  0.51100000000E-03 0.  1.
         12    1    3    3    0    0  0.13547464504E+01  0.17232031846E+02 -0.13884651224E+02  0.22171193001E+02  0.00000000000E+00 0. -1.
</event>
<event>
 7    1  0.1283194E-013  0.7246157E+02  0.7816164E-02  0.1226708E+00
        -11   -1    0    0    0    0  0.00000000000E+00  0.00000000000E+00  0.45593999997E+02  0.45594000000E+02  0.51100000000E-03 0. -1.
         11   -1    0    0    0    0 -0.00000000000E+00 -0.00000000000E+00 -0.45593999997E+02  0.45594000000E+02  0.51100000000E-03 0.  1.
    9900012    2    1    2    0    0  0.22000641280E+01 -0.11360980588E+02 -0.14723013679E+02  0.72461566974E+02  0.69999995675E+02 0.  0.
         12    1    1    2    0    0 -0.22000641280E+01  0.11360980588E+02  0.14723013679E+02  0.18726433026E+02  0.00000000000E+00 0. -1.
         11    1    3    3    0    0 -0.13958911467E+02  0.64954566239E+00 -0.75067986372E+01  0.15862696648E+02  0.51100000000E-03 0. -1.
        -11    1    3    3    0    0  0.26761347229E+02 -0.16319303709E+02 -0.21711877740E+02  0.38129975272E+02  0.51100000000E-03 0.  1.
        -12    1    3    3    0    0 -0.10602371634E+02  0.43087774585E+01  0.14495662698E+02  0.18468895054E+02  0.00000000000E+00 0.  1.
</event>
<event>
 7    1  0.1283194E-013  0.7246156E+02  0.7816164E-02  0.1226708E+00
        -11   -1    0    0    0    0  0.00000000000E+00  0.00000000000E+00  0.45593999997E+02  0.45594000000E+02  0.51100000000E-03 0. -1.
         11   -1    0    0    0    0 -0.00000000000E+00 -0.00000000000E+00 -0.45593999997E+02  0.45594000000E+02  0.51100000000E-03 0.  1.
    9900012    2    1    2    0    0 -0.12365311026E+02 -0.60618012334E+01 -0.12689887083E+02  0.72461559197E+02  0.69999985544E+02 0.  0.
         12    1    1    2    0    0  0.12365311026E+02  0.60618012334E+01  0.12689887083E+02  0.18726440803E+02  0.00000000000E+00 0. -1.
         11    1    3    3    0    0 -0.45891222636E+01  0.17277572082E+00  0.21194633613E+02  0.21686456346E+02  0.51100000000E-03 0. -1.
        -11    1    3    3    0    0 -0.51380314439E+01  0.10199976121E+02 -0.32056283124E+02  0.34030048016E+02  0.51100000000E-03 0.  1.
        -12    1    3    3    0    0 -0.26381573182E+01 -0.16434553075E+02 -0.18282375716E+01  0.16745054835E+02  0.00000000000E+00 0.  1.
</event>
<event>
 7    1  0.1283194E-013  0.7246200E+02  0.7816164E-02  0.1226707E+00
        -11   -1    0    0    0    0  0.00000000000E+00  0.00000000000E+00  0.45593999997E+02  0.45594000000E+02  0.51100000000E-03 0.  1.
         11   -1    0    0    0    0 -0.00000000000E+00 -0.00000000000E+00 -0.45593999997E+02  0.45594000000E+02  0.51100000000E-03 0. -1.
    9900012    2    1    2    0    0 -0.16904534930E+02  0.76409652099E+00  0.80197167983E+01  0.72462001970E+02  0.70000562336E+02 0.  0.
         12    1    1    2    0    0  0.16904534930E+02 -0.76409652099E+00 -0.80197167983E+01  0.18725998030E+02  0.00000000000E+00 0. -1.
         11    1    3    3    0    0 -0.19170373152E+02 -0.18646077500E+02 -0.87777098021E+01  0.28146538021E+02  0.51100000000E-03 0. -1.
        -11    1    3    3    0    0 -0.92787416107E+01  0.18902398152E+02 -0.31216718459E+01  0.21287097904E+02  0.51100000000E-03 0.  1.
        -12    1    3    3    0    0  0.11544579832E+02  0.50777586900E+00  0.19919098446E+02  0.23028366046E+02  0.00000000000E+00 0.  1.
</event>
<event>
 8    1  0.1283194E-013  0.7246161E+02  0.7816164E-02  0.1226708E+00
        -11   -1    0    0    0    0  0.00000000000E+00  0.00000000000E+00  0.45593999997E+02  0.45594000000E+02  0.51100000000E-03 0.  1.
         11   -1    0    0    0    0 -0.00000000000E+00 -0.00000000000E+00 -0.45593999997E+02  0.45594000000E+02  0.51100000000E-03 0. -1.
    9900012    2    1    2    0    0 -0.14101661033E+02  0.11881833848E+02  0.32623329848E+01  0.72461611240E+02  0.70000053340E+02 0.  0.
         24    2    3    3    0    0 -0.14571028968E+02  0.23880669599E+02 -0.49610522619E+01  0.57907696619E+02  0.50458775476E+02 0.  0.
         12    1    1    2    0    0  0.14101661033E+02 -0.11881833848E+02 -0.32623329848E+01  0.18726388760E+02  0.00000000000E+00 0. -1.
         11    1    3    3    0    0  0.46936793519E+00 -0.11998835751E+02  0.82233852467E+01  0.14553914622E+02  0.51100000000E-03 0. -1.
        -11    1    4    4    0    0 -0.13874303170E+02  0.30957778772E+02  0.14720572284E+02  0.36980746390E+02  0.51100000000E-03 0.  1.
         12    1    4    4    0    0 -0.69672579825E+00 -0.70771091735E+01 -0.19681624546E+02  0.20926950229E+02  0.00000000000E+00 0. -1.
</event>
<event>
 7    1  0.1283194E-013  0.7246156E+02  0.7816164E-02  0.1226708E+00
        -11   -1    0    0    0    0  0.00000000000E+00  0.00000000000E+00  0.45593999997E+02  0.45594000000E+02  0.51100000000E-03 0. -1.
         11   -1    0    0    0    0 -0.00000000000E+00 -0.00000000000E+00 -0.45593999997E+02  0.45594000000E+02  0.51100000000E-03 0.  1.
    9900012    2    1    2    0    0  0.60577450029E+01 -0.17204251780E+02  0.42422977027E+01  0.72461557636E+02  0.69999983510E+02 0.  0.
         12    1    1    2    0    0 -0.60577450029E+01  0.17204251780E+02 -0.42422977027E+01  0.18726442364E+02  0.00000000000E+00 0. -1.
         11    1    3    3    0    0  0.10215339451E+00 -0.11640093834E+02  0.25848483988E+02  0.28348656838E+02  0.51100000000E-03 0. -1.
        -11    1    3    3    0    0 -0.80930315361E+01  0.99203760878E+01 -0.19186149917E+02  0.23065545085E+02  0.51100000000E-03 0.  1.
        -12    1    3    3    0    0  0.14048623145E+02 -0.15484534033E+02 -0.24200363684E+01  0.21047355713E+02  0.00000000000E+00 0.  1.
</event>
<event>
 7    1  0.1283194E-013  0.7246159E+02  0.7816164E-02  0.1226708E+00
        -11   -1    0    0    0    0  0.00000000000E+00  0.00000000000E+00  0.45593999997E+02  0.45594000000E+02  0.51100000000E-03 0.  1.
         11   -1    0    0    0    0 -0.00000000000E+00 -0.00000000000E+00 -0.45593999997E+02  0.45594000000E+02  0.51100000000E-03 0. -1.
    9900012    2    1    2    0    0  0.22904811939E+01 -0.16202382362E+02  0.91057723757E+01  0.72461585798E+02  0.70000020196E+02 0.  0.
         12    1    1    2    0    0 -0.22904811939E+01  0.16202382362E+02 -0.91057723757E+01  0.18726414202E+02  0.00000000000E+00 0. -1.
         11    1    3    3    0    0  0.14509853519E+02  0.17141799004E+02 -0.46646949374E+01  0.22937665560E+02  0.51100000000E-03 0. -1.
        -11    1    3    3    0    0 -0.17073865923E+02 -0.29640226977E+02 -0.27641205617E+00  0.34207255907E+02  0.51100000000E-03 0.  1.
        -12    1    3    3    0    0  0.48544935973E+01 -0.37039543885E+01  0.14046879369E+02  0.15316664331E+02  0.00000000000E+00 0.  1.
</event>
<event>
 7    1  0.1283194E-013  0.7246172E+02  0.7816164E-02  0.1226708E+00
        -11   -1    0    0    0    0  0.00000000000E+00  0.00000000000E+00  0.45593999997E+02  0.45594000000E+02  0.51100000000E-03 0.  1.
         11   -1    0    0    0    0 -0.00000000000E+00 -0.00000000000E+00 -0.45593999997E+02  0.45594000000E+02  0.51100000000E-03 0. -1.
    9900012    2    1    2    0    0  0.16878886198E+02 -0.47345393372E+01  0.65848955214E+01  0.72461721378E+02  0.70000196814E+02 0.  0.
         12    1    1    2    0    0 -0.16878886198E+02  0.47345393372E+01 -0.65848955214E+01  0.18726278622E+02  0.00000000000E+00 0. -1.
         11    1    3    3    0    0  0.38936212616E+02 -0.15668737924E+02 -0.26770931746E+00  0.41971534039E+02  0.51100000000E-03 0. -1.
        -11    1    3    3    0    0 -0.13356053064E+02 -0.84368532815E+00  0.83442826385E+01  0.15770954676E+02  0.51100000000E-03 0.  1.
         12    1    3    3    0    0 -0.87012733543E+01  0.11777883915E+02 -0.14916777997E+01  0.14719232662E+02  0.00000000000E+00 0. -1.
</event>
<event>
 7    1  0.1283194E-013  0.7246159E+02  0.7816164E-02  0.1226708E+00
        -11   -1    0    0    0    0  0.00000000000E+00  0.00000000000E+00  0.45593999997E+02  0.45594000000E+02  0.51100000000E-03 0. -1.
         11   -1    0    0    0    0 -0.00000000000E+00 -0.00000000000E+00 -0.45593999997E+02  0.45594000000E+02  0.51100000000E-03 0.  1.
    9900012    2    1    2    0    0  0.17396058534E+02  0.66223998588E+01 -0.20492390546E+01  0.72461590490E+02  0.70000026309E+02 0.  0.
         12    1    1    2    0    0 -0.17396058534E+02 -0.66223998588E+01  0.20492390546E+01  0.18726409510E+02  0.00000000000E+00 0. -1.
         11    1    3    3    0    0 -0.91810845791E+01 -0.11917666415E+02 -0.20626757538E+02  0.25530104066E+02  0.51100000000E-03 0. -1.
        -11    1    3    3    0    0  0.23912402745E+02 -0.71546077876E-01  0.72766434206E+01  0.24995152803E+02  0.51100000000E-03 0.  1.
         12    1    3    3    0    0  0.26647403681E+01  0.18611612352E+02  0.11300875063E+02  0.21936333621E+02  0.00000000000E+00 0. -1.
</event>
<event>
 7    1  0.1283194E-013  0.7246159E+02  0.7816164E-02  0.1226708E+00
        -11   -1    0    0    0    0  0.00000000000E+00  0.00000000000E+00  0.45593999997E+02  0.45594000000E+02  0.51100000000E-03 0. -1.
         11   -1    0    0    0    0 -0.00000000000E+00 -0.00000000000E+00 -0.45593999997E+02  0.45594000000E+02  0.51100000000E-03 0.  1.
    9900012    2    1    2    0    0  0.12067294418E+02  0.13490074155E+02 -0.48038187565E+01  0.72461591644E+02  0.70000027812E+02 0.  0.
         12    1    1    2    0    0 -0.12067294418E+02 -0.13490074155E+02  0.48038187565E+01  0.18726408356E+02  0.00000000000E+00 0. -1.
         11    1    3    3    0    0 -0.41136099720E+01 -0.15203364499E+02 -0.11225200899E+02  0.19340869023E+02  0.51100000000E-03 0. -1.
        -11    1    3    3    0    0 -0.42957472744E+01  0.97878735605E+01  0.19574790062E+02  0.22303101123E+02  0.51100000000E-03 0.  1.
        -12    1    3    3    0    0  0.20476651664E+02  0.18905565093E+02 -0.13153407920E+02  0.30817621498E+02  0.00000000000E+00 0.  1.
</event>
<event>
 7    1  0.1283194E-013  0.7246161E+02  0.7816164E-02  0.1226708E+00
        -11   -1    0    0    0    0  0.00000000000E+00  0.00000000000E+00  0.45593999997E+02  0.45594000000E+02  0.51100000000E-03 0.  1.
         11   -1    0    0    0    0 -0.00000000000E+00 -0.00000000000E+00 -0.45593999997E+02  0.45594000000E+02  0.51100000000E-03 0. -1.
    9900012    2    1    2    0    0  0.72059852739E+01 -0.17229462876E+02 -0.13773118012E+01  0.72461612133E+02  0.70000054502E+02 0.  0.
         12    1    1    2    0    0 -0.72059852739E+01  0.17229462876E+02  0.13773118012E+01  0.18726387867E+02  0.00000000000E+00 0. -1.
         11    1    3    3    0    0 -0.21837019064E+02 -0.58207161861E+01  0.38664314413E+01  0.22927830923E+02  0.51100000000E-03 0. -1.
        -11    1    3    3    0    0  0.31692848593E+02 -0.66243209324E+01 -0.16998711443E+02  0.36568763593E+02  0.51100000000E-03 0.  1.
         12    1    3    3    0    0 -0.26498442552E+01 -0.47844257572E+01  0.11754968200E+02  0.12965017616E+02  0.00000000000E+00 0. -1.
</event>
<event>
 7    1  0.1283194E-013  0.7246202E+02  0.7816164E-02  0.1226707E+00
        -11   -1    0    0    0    0  0.00000000000E+00  0.00000000000E+00  0.45593999997E+02  0.45594000000E+02  0.51100000000E-03 0. -1.
         11   -1    0    0    0    0 -0.00000000000E+00 -0.00000000000E+00 -0.45593999997E+02  0.45594000000E+02  0.51100000000E-03 0.  1.
    9900012    2    1    2    0    0 -0.14014746420E+02  0.89051505564E+01  0.86572317428E+01  0.72462015778E+02  0.70000580322E+02 0.  0.
         12    1    1    2    0    0  0.14014746420E+02 -0.89051505564E+01 -0.86572317428E+01  0.18725984222E+02  0.00000000000E+00 0. -1.
         11    1    3    3    0    0  0.77008895739E+01 -0.18624472188E+02  0.99832136623E+01  0.22490869699E+02  0.51100000000E-03 0. -1.
        -11    1    3    3    0    0 -0.13895719343E+01  0.28979897844E+02  0.29067947138E+01  0.29158443802E+02  0.51100000000E-03 0.  1.
         12    1    3    3    0    0 -0.20326064060E+02 -0.14502750988E+01 -0.42327766334E+01  0.20812702276E+02  0.00000000000E+00 0. -1.
</event>
<event>
 7    1  0.1283194E-013  0.7246156E+02  0.7816164E-02  0.1226708E+00
        -11   -1    0    0    0    0  0.00000000000E+00  0.00000000000E+00  0.45593999997E+02  0.45594000000E+02  0.51100000000E-03 0. -1.
         11   -1    0    0    0    0 -0.00000000000E+00 -0.00000000000E+00 -0.45593999997E+02  0.45594000000E+02  0.51100000000E-03 0.  1.
    9900012    2    1    2    0    0  0.17010353329E+02 -0.61342047067E+01  0.48681668363E+01  0.72461557836E+02  0.69999983771E+02 0.  0.
         12    1    1    2    0    0 -0.17010353329E+02  0.61342047067E+01 -0.48681668363E+01  0.18726442164E+02  0.00000000000E+00 0. -1.
         11    1    3    3    0    0  0.54873326725E+01  0.16736757607E+02  0.30107556147E+02  0.34881152683E+02  0.51100000000E-03 0. -1.
        -11    1    3    3    0    0  0.35166662844E+01 -0.17925356018E+02 -0.14668850576E+02  0.23427772143E+02  0.51100000000E-03 0.  1.
        -12    1    3    3    0    0  0.80063543726E+01 -0.49456062955E+01 -0.10570538735E+02  0.14152633010E+02  0.00000000000E+00 0.  1.
</event>
<event>
 7    1  0.1283194E-013  0.7246157E+02  0.7816164E-02  0.1226708E+00
        -11   -1    0    0    0    0  0.00000000000E+00  0.00000000000E+00  0.45593999997E+02  0.45594000000E+02  0.51100000000E-03 0. -1.
         11   -1    0    0    0    0 -0.00000000000E+00 -0.00000000000E+00 -0.45593999997E+02  0.45594000000E+02  0.51100000000E-03 0.  1.
    9900012    2    1    2    0    0  0.17992741606E+02  0.34583910224E+01 -0.38703862418E+01  0.72461571920E+02  0.70000002118E+02 0.  0.
         12    1    1    2    0    0 -0.17992741606E+02 -0.34583910224E+01  0.38703862418E+01  0.18726428080E+02  0.00000000000E+00 0. -1.
         11    1    3    3    0    0 -0.14684240837E+02  0.17998584988E+01  0.20868632931E+02  0.25580583657E+02  0.51100000000E-03 0. -1.
        -11    1    3    3    0    0 -0.11014792166E+01  0.41556682944E+01 -0.80406549329E+01  0.91178378714E+01  0.51100000000E-03 0.  1.
         12    1    3    3    0    0  0.33778461660E+02 -0.24971357708E+01 -0.16698364239E+02  0.37763150391E+02  0.00000000000E+00 0. -1.
</event>
<event>
 7    1  0.1283194E-013  0.7246157E+02  0.7816164E-02  0.1226708E+00
        -11   -1    0    0    0    0  0.00000000000E+00  0.00000000000E+00  0.45593999997E+02  0.45594000000E+02  0.51100000000E-03 0.  1.
         11   -1    0    0    0    0 -0.00000000000E+00 -0.00000000000E+00 -0.45593999997E+02  0.45594000000E+02  0.51100000000E-03 0. -1.
    9900012    2    1    2    0    0  0.14330352067E+02  0.87418729857E+01  0.83005953373E+01  0.72461569037E+02  0.69999998362E+02 0.  0.
         12    1    1    2    0    0 -0.14330352067E+02 -0.87418729857E+01 -0.83005953373E+01  0.18726430963E+02  0.00000000000E+00 0. -1.
         11    1    3    3    0    0  0.63457863489E+01 -0.98225887389E+01 -0.18219230930E+02  0.21649310148E+02  0.51100000000E-03 0. -1.
        -11    1    3    3    0    0 -0.79095978385E+01 -0.23834079013E+01  0.22806046996E+02  0.24256095132E+02  0.51100000000E-03 0.  1.
         12    1    3    3    0    0  0.15894163557E+02  0.20947869626E+02  0.37137792713E+01  0.26556163757E+02  0.00000000000E+00 0. -1.
</event>
<event>
 7    1  0.1283194E-013  0.7246156E+02  0.7816164E-02  0.1226708E+00
        -11   -1    0    0    0    0  0.00000000000E+00  0.00000000000E+00  0.45593999997E+02  0.45594000000E+02  0.51100000000E-03 0.  1.
         11   -1    0    0    0    0 -0.00000000000E+00 -0.00000000000E+00 -0.45593999997E+02  0.45594000000E+02  0.51100000000E-03 0. -1.
    9900012    2    1    2    0    0 -0.16477765339E+02  0.63552817905E+01  0.62268259442E+01  0.72461555635E+02  0.69999980904E+02 0.  0.
         12    1    1    2    0    0  0.16477765339E+02 -0.63552817905E+01 -0.62268259442E+01  0.18726444365E+02  0.00000000000E+00 0. -1.
         11    1    3    3    0    0 -0.78751222056E+01  0.78819492621E+01 -0.14060510425E+02  0.17939917157E+02  0.51100000000E-03 0. -1.
        -11    1    3    3    0    0  0.30923025908E-01 -0.24804439750E+02  0.48140098485E+01  0.25267288708E+02  0.51100000000E-03 0.  1.
        -12    1    3    3    0    0 -0.86335661595E+01  0.23277772279E+02  0.15473326521E+02  0.29254349771E+02  0.00000000000E+00 0.  1.
</event>
<event>
 7    1  0.1283194E-013  0.7246151E+02  0.7816164E-02  0.1226708E+00
        -11   -1    0    0    0    0  0.00000000000E+00  0.00000000000E+00  0.45593999997E+02  0.45594000000E+02  0.51100000000E-03 0. -1.
         11   -1    0    0    0    0 -0.00000000000E+00 -0.00000000000E+00 -0.45593999997E+02  0.45594000000E+02  0.51100000000E-03 0.  1.
    9900012    2    1    2    0    0  0.16325271511E+02  0.21702401062E+01 -0.89138703496E+01  0.72461507626E+02  0.69999918362E+02 0.  0.
         12    1    1    2    0    0 -0.16325271511E+02 -0.21702401062E+01  0.89138703496E+01  0.18726492374E+02  0.00000000000E+00 0. -1.
         11    1    3    3    0    0 -0.25353059951E+01 -0.23071702648E+02  0.11398130764E+02  0.25858240944E+02  0.51100000000E-03 0. -1.
        -11    1    3    3    0    0  0.12884044759E+01  0.23435403783E+02 -0.70261289421E+01  0.24499890300E+02  0.51100000000E-03 0.  1.
         12    1    3    3    0    0  0.17572173031E+02  0.18065389713E+01 -0.13285872172E+02  0.22103376381E+02  0.00000000000E+00 0. -1.
</event>
<event>
 7    1  0.1283194E-013  0.7246166E+02  0.7816164E-02  0.1226708E+00
        -11   -1    0    0    0    0  0.00000000000E+00  0.00000000000E+00  0.45593999997E+02  0.45594000000E+02  0.51100000000E-03 0.  1.
         11   -1    0    0    0    0 -0.00000000000E+00 -0.00000000000E+00 -0.45593999997E+02  0.45594000000E+02  0.51100000000E-03 0. -1.
    9900012    2    1    2    0    0  0.11499976943E+02  0.14686740681E+02  0.16510958303E+01  0.72461656551E+02  0.70000112365E+02 0.  0.
         12    1    1    2    0    0 -0.11499976943E+02 -0.14686740681E+02 -0.16510958303E+01  0.18726343449E+02  0.00000000000E+00 0. -1.
         11    1    3    3    0    0 -0.95666319643E+01 -0.22206023101E+01  0.66265191422E+01  0.11847458713E+02  0.51100000000E-03 0. -1.
        -11    1    3    3    0    0  0.88084259058E+01  0.29146286784E+02 -0.21023202633E+02  0.37000938494E+02  0.51100000000E-03 0.  1.
        -12    1    3    3    0    0  0.12258183002E+02 -0.12238943793E+02  0.16047779321E+02  0.23613259343E+02  0.00000000000E+00 0.  1.
</event>
<event>
 7    1  0.1283194E-013  0.7246129E+02  0.7816164E-02  0.1226709E+00
        -11   -1    0    0    0    0  0.00000000000E+00  0.00000000000E+00  0.45593999997E+02  0.45594000000E+02  0.51100000000E-03 0.  1.
         11   -1    0    0    0    0 -0.00000000000E+00 -0.00000000000E+00 -0.45593999997E+02  0.45594000000E+02  0.51100000000E-03 0. -1.
    9900012    2    1    2    0    0 -0.60591970653E+01 -0.59447716106E+01  0.16692374153E+02  0.72461293578E+02  0.69999639524E+02 0.  0.
         12    1    1    2    0    0  0.60591970653E+01  0.59447716106E+01 -0.16692374153E+02  0.18726706422E+02  0.00000000000E+00 0. -1.
         11    1    3    3    0    0 -0.20755476288E+02 -0.16192002977E+02 -0.23997541856E+01  0.26433493465E+02  0.51100000000E-03 0. -1.
        -11    1    3    3    0    0  0.19659507105E+02  0.19938996704E+01 -0.47420557927E+01  0.20321391412E+02  0.51100000000E-03 0.  1.
        -12    1    3    3    0    0 -0.49632278820E+01  0.82533316963E+01  0.23834184131E+02  0.25706408701E+02  0.00000000000E+00 0.  1.
</event>
<event>
 7    1  0.1283194E-013  0.7246153E+02  0.7816164E-02  0.1226708E+00
        -11   -1    0    0    0    0  0.00000000000E+00  0.00000000000E+00  0.45593999997E+02  0.45594000000E+02  0.51100000000E-03 0. -1.
         11   -1    0    0    0    0 -0.00000000000E+00 -0.00000000000E+00 -0.45593999997E+02  0.45594000000E+02  0.51100000000E-03 0.  1.
    9900012    2    1    2    0    0 -0.14523782909E+00  0.23577203025E+01 -0.18576886961E+02  0.72461530279E+02  0.69999947872E+02 0.  0.
         12    1    1    2    0    0  0.14523782909E+00 -0.23577203025E+01  0.18576886961E+02  0.18726469721E+02  0.00000000000E+00 0. -1.
         11    1    3    3    0    0  0.27227863993E+02 -0.31409886193E+01 -0.21581317342E+02  0.34885178022E+02  0.51100000000E-03 0. -1.
        -11    1    3    3    0    0 -0.61348547548E+01  0.99896028265E+01 -0.70216342540E+01  0.13664990134E+02  0.51100000000E-03 0.  1.
         12    1    3    3    0    0 -0.21238247067E+02 -0.44908939047E+01  0.10026064635E+02  0.23911362124E+02  0.00000000000E+00 0. -1.
</event>
<event>
 7    1  0.1283194E-013  0.7246158E+02  0.7816164E-02  0.1226708E+00
        -11   -1    0    0    0    0  0.00000000000E+00  0.00000000000E+00  0.45593999997E+02  0.45594000000E+02  0.51100000000E-03 0.  1.
         11   -1    0    0    0    0 -0.00000000000E+00 -0.00000000000E+00 -0.45593999997E+02  0.45594000000E+02  0.51100000000E-03 0. -1.
    9900012    2    1    2    0    0 -0.18354895240E+02  0.26205001376E+01 -0.26286048818E+01  0.72461581125E+02  0.70000014109E+02 0.  0.
         12    1    1    2    0    0  0.18354895240E+02 -0.26205001376E+01  0.26286048818E+01  0.18726418875E+02  0.00000000000E+00 0. -1.
         11    1    3    3    0    0  0.95350998856E+01 -0.39222480303E+01 -0.17656631940E+02  0.20446486524E+02  0.51100000000E-03 0. -1.
        -11    1    3    3    0    0 -0.19292999520E+02  0.21971754648E+02  0.17657547414E+02  0.34157968525E+02  0.51100000000E-03 0.  1.
         12    1    3    3    0    0 -0.85969956058E+01 -0.15429006480E+02 -0.26295203562E+01  0.17857126077E+02  0.00000000000E+00 0. -1.
</event>
<event>
 7    1  0.1283194E-013  0.7246158E+02  0.7816164E-02  0.1226708E+00
        -11   -1    0    0    0    0  0.00000000000E+00  0.00000000000E+00  0.45593999997E+02  0.45594000000E+02  0.51100000000E-03 0.  1.
         11   -1    0    0    0    0 -0.00000000000E+00 -0.00000000000E+00 -0.45593999997E+02  0.45594000000E+02  0.51100000000E-03 0. -1.
    9900012    2    1    2    0    0  0.14021196170E+02  0.48568464370E+01  0.11423478247E+02  0.72461581372E+02  0.70000014431E+02 0.  0.
         12    1    1    2    0    0 -0.14021196170E+02 -0.48568464370E+01 -0.11423478247E+02  0.18726418628E+02  0.00000000000E+00 0. -1.
         11    1    3    3    0    0  0.97386279571E+01 -0.64408243328E+01 -0.10215278314E+02  0.15513768204E+02  0.51100000000E-03 0. -1.
        -11    1    3    3    0    0 -0.21200206455E+02  0.14345770772E+02  0.17359725058E+02  0.30929111645E+02  0.51100000000E-03 0.  1.
        -12    1    3    3    0    0  0.25482774668E+02 -0.30481000022E+01  0.42790315031E+01  0.26018701524E+02  0.00000000000E+00 0.  1.
</event>
<event>
 7    1  0.1283194E-013  0.7246151E+02  0.7816164E-02  0.1226708E+00
        -11   -1    0    0    0    0  0.00000000000E+00  0.00000000000E+00  0.45593999997E+02  0.45594000000E+02  0.51100000000E-03 0.  1.
         11   -1    0    0    0    0 -0.00000000000E+00 -0.00000000000E+00 -0.45593999997E+02  0.45594000000E+02  0.51100000000E-03 0. -1.
    9900012    2    1    2    0    0  0.97321834535E+01  0.15733786810E+02  0.29007055022E+01  0.72461507147E+02  0.69999917739E+02 0.  0.
         12    1    1    2    0    0 -0.97321834535E+01 -0.15733786810E+02 -0.29007055022E+01  0.18726492853E+02  0.00000000000E+00 0. -1.
         11    1    3    3    0    0  0.20465462428E+02  0.10048891561E+02 -0.20397023561E+02  0.30591730000E+02  0.51100000000E-03 0. -1.
        -11    1    3    3    0    0 -0.94054377307E+01  0.18959256554E+02  0.16851156724E+02  0.27053228110E+02  0.51100000000E-03 0.  1.
         12    1    3    3    0    0 -0.13278412437E+01 -0.13274361306E+02  0.64465723398E+01  0.14816549037E+02  0.00000000000E+00 0. -1.
</event>
<event>
 7    1  0.1283194E-013  0.7246183E+02  0.7816164E-02  0.1226707E+00
        -11   -1    0    0    0    0  0.00000000000E+00  0.00000000000E+00  0.45593999997E+02  0.45594000000E+02  0.51100000000E-03 0.  1.
         11   -1    0    0    0    0 -0.00000000000E+00 -0.00000000000E+00 -0.45593999997E+02  0.45594000000E+02  0.51100000000E-03 0. -1.
    9900012    2    1    2    0    0 -0.11129840847E+02 -0.17316115342E+01  0.14959871930E+02  0.72461825699E+02  0.70000332711E+02 0.  0.
         12    1    1    2    0    0  0.11129840847E+02  0.17316115342E+01 -0.14959871930E+02  0.18726174301E+02  0.00000000000E+00 0. -1.
         11    1    3    3    0    0 -0.14292258635E+02  0.18996486524E+02 -0.70377463423E+01  0.24792438989E+02  0.51100000000E-03 0. -1.
        -11    1    3    3    0    0 -0.14631035158E+01 -0.51945229133E+01  0.29371498371E+02  0.29863165555E+02  0.51100000000E-03 0.  1.
        -12    1    3    3    0    0  0.46255213034E+01 -0.15533575145E+02 -0.73738800986E+01  0.17806221155E+02  0.00000000000E+00 0.  1.
</event>
<event>
 7    1  0.1283194E-013  0.7246155E+02  0.7816164E-02  0.1226708E+00
        -11   -1    0    0    0    0  0.00000000000E+00  0.00000000000E+00  0.45593999997E+02  0.45594000000E+02  0.51100000000E-03 0.  1.
         11   -1    0    0    0    0 -0.00000000000E+00 -0.00000000000E+00 -0.45593999997E+02  0.45594000000E+02  0.51100000000E-03 0. -1.
    9900012    2    1    2    0    0  0.75366031407E+01 -0.15531527563E+02  0.72561148151E+01  0.72461549788E+02  0.69999973287E+02 0.  0.
         12    1    1    2    0    0 -0.75366031407E+01  0.15531527563E+02 -0.72561148151E+01  0.18726450212E+02  0.00000000000E+00 0. -1.
         11    1    3    3    0    0 -0.21728376859E+01  0.15670567634E+02 -0.66337659287E+01  0.17155021546E+02  0.51100000000E-03 0. -1.
        -11    1    3    3    0    0 -0.30211915951E+01 -0.13684678206E+02  0.26694317979E+02  0.30149371948E+02  0.51100000000E-03 0.  1.
         12    1    3    3    0    0  0.12730632422E+02 -0.17517416991E+02 -0.12804437235E+02  0.25157156294E+02  0.00000000000E+00 0. -1.
</event>
<event>
 7    1  0.1283194E-013  0.7246194E+02  0.7816164E-02  0.1226707E+00
        -11   -1    0    0    0    0  0.00000000000E+00  0.00000000000E+00  0.45593999997E+02  0.45594000000E+02  0.51100000000E-03 0. -1.
         11   -1    0    0    0    0 -0.00000000000E+00 -0.00000000000E+00 -0.45593999997E+02  0.45594000000E+02  0.51100000000E-03 0.  1.
    9900012    2    1    2    0    0  0.30590807534E+01  0.71031385167E+01 -0.17054409035E+02  0.72461937430E+02  0.70000478261E+02 0.  0.
         12    1    1    2    0    0 -0.30590807534E+01 -0.71031385167E+01  0.17054409035E+02  0.18726062570E+02  0.00000000000E+00 0. -1.
         11    1    3    3    0    0 -0.52107188203E+01 -0.14868874574E+02 -0.41814938367E+00  0.15761023790E+02  0.51100000000E-03 0. -1.
        -11    1    3    3    0    0  0.98412326202E+01  0.21308567715E+02  0.13124315107E+02  0.26891496143E+02  0.51100000000E-03 0.  1.
        -12    1    3    3    0    0 -0.15714330464E+01  0.66344537656E+00 -0.29760574758E+02  0.29809417497E+02  0.00000000000E+00 0.  1.
</event>
<event>
 7    1  0.1283194E-013  0.7246157E+02  0.7816164E-02  0.1226708E+00
        -11   -1    0    0    0    0  0.00000000000E+00  0.00000000000E+00  0.45593999997E+02  0.45594000000E+02  0.51100000000E-03 0. -1.
         11   -1    0    0    0    0 -0.00000000000E+00 -0.00000000000E+00 -0.45593999997E+02  0.45594000000E+02  0.51100000000E-03 0.  1.
    9900012    2    1    2    0    0  0.65718066337E+01  0.16759098569E+02  0.51597616144E+01  0.72461570356E+02  0.70000000081E+02 0.  0.
         12    1    1    2    0    0 -0.65718066337E+01 -0.16759098569E+02 -0.51597616144E+01  0.18726429644E+02  0.00000000000E+00 0. -1.
         11    1    3    3    0    0 -0.21353477401E+02 -0.30583831275E+01  0.18677438548E+02  0.28533689131E+02  0.51100000000E-03 0. -1.
        -11    1    3    3    0    0  0.27069178900E+02  0.63618681728E+01 -0.58436798545E+01  0.28414123380E+02  0.51100000000E-03 0.  1.
         12    1    3    3    0    0  0.85610513424E+00  0.13455613524E+02 -0.76739970787E+01  0.15513757845E+02  0.00000000000E+00 0. -1.
</event>
<event>
 7    1  0.1283194E-013  0.7246157E+02  0.7816164E-02  0.1226708E+00
        -11   -1    0    0    0    0  0.00000000000E+00  0.00000000000E+00  0.45593999997E+02  0.45594000000E+02  0.51100000000E-03 0.  1.
         11   -1    0    0    0    0 -0.00000000000E+00 -0.00000000000E+00 -0.45593999997E+02  0.45594000000E+02  0.51100000000E-03 0. -1.
    9900012    2    1    2    0    0  0.18457871739E+02 -0.87770330596E+00 -0.30357578440E+01  0.72461569002E+02  0.69999998317E+02 0.  0.
         12    1    1    2    0    0 -0.18457871739E+02  0.87770330596E+00  0.30357578440E+01  0.18726430998E+02  0.00000000000E+00 0. -1.
         11    1    3    3    0    0 -0.73607762023E+01 -0.27533130734E+02 -0.15117408235E+02  0.32261282466E+02  0.51100000000E-03 0. -1.
        -11    1    3    3    0    0  0.94345070894E+01  0.10280538743E+02  0.95271227909E+01  0.16895723418E+02  0.51100000000E-03 0.  1.
         12    1    3    3    0    0  0.16384140852E+02  0.16374888685E+02  0.25545276004E+01  0.23304563119E+02  0.00000000000E+00 0. -1.
</event>
<event>
 7    1  0.1283194E-013  0.7246159E+02  0.7816164E-02  0.1226708E+00
        -11   -1    0    0    0    0  0.00000000000E+00  0.00000000000E+00  0.45593999997E+02  0.45594000000E+02  0.51100000000E-03 0.  1.
         11   -1    0    0    0    0 -0.00000000000E+00 -0.00000000000E+00 -0.45593999997E+02  0.45594000000E+02  0.51100000000E-03 0. -1.
    9900012    2    1    2    0    0 -0.67927205809E+01 -0.73295273703E+01  0.15837157054E+02  0.72461586357E+02  0.70000020925E+02 0.  0.
         12    1    1    2    0    0  0.67927205809E+01  0.73295273703E+01 -0.15837157054E+02  0.18726413643E+02  0.00000000000E+00 0. -1.
         11    1    3    3    0    0  0.25167459574E+02 -0.84380910729E+00  0.16047061201E+02  0.29860026937E+02  0.51100000000E-03 0. -1.
        -11    1    3    3    0    0 -0.11637506870E+02  0.43885143372E+01  0.11330587754E+02  0.16824768746E+02  0.51100000000E-03 0.  1.
         12    1    3    3    0    0 -0.20322673286E+02 -0.10874232600E+02 -0.11540491902E+02  0.25776790674E+02  0.00000000000E+00 0. -1.
</event>
<event>
 7    1  0.1283194E-013  0.7246177E+02  0.7816164E-02  0.1226707E+00
        -11   -1    0    0    0    0  0.00000000000E+00  0.00000000000E+00  0.45593999997E+02  0.45594000000E+02  0.51100000000E-03 0.  1.
         11   -1    0    0    0    0 -0.00000000000E+00 -0.00000000000E+00 -0.45593999997E+02  0.45594000000E+02  0.51100000000E-03 0. -1.
    9900012    2    1    2    0    0  0.14063263120E+01 -0.18191668196E+02  0.42139199944E+01  0.72461770610E+02  0.70000260948E+02 0.  0.
         12    1    1    2    0    0 -0.14063263120E+01  0.18191668196E+02 -0.42139199944E+01  0.18726229390E+02  0.00000000000E+00 0. -1.
         11    1    3    3    0    0  0.72762500892E+01  0.12118463544E+02 -0.11485621183E+01  0.14181684287E+02  0.51100000000E-03 0. -1.
        -11    1    3    3    0    0  0.12360145353E+02 -0.36341192004E+02  0.69617172534E+01  0.39011805096E+02  0.51100000000E-03 0.  1.
        -12    1    3    3    0    0 -0.18230069130E+02  0.60310602644E+01 -0.15992351406E+01  0.19268281227E+02  0.00000000000E+00 0.  1.
</event>
<event>
 7    1  0.1283194E-013  0.7246153E+02  0.7816164E-02  0.1226708E+00
        -11   -1    0    0    0    0  0.00000000000E+00  0.00000000000E+00  0.45593999997E+02  0.45594000000E+02  0.51100000000E-03 0.  1.
         11   -1    0    0    0    0 -0.00000000000E+00 -0.00000000000E+00 -0.45593999997E+02  0.45594000000E+02  0.51100000000E-03 0. -1.
    9900012    2    1    2    0    0 -0.64712162436E+01 -0.98738853643E+01  0.14536525720E+02  0.72461525909E+02  0.69999942180E+02 0.  0.
         12    1    1    2    0    0  0.64712162436E+01  0.98738853643E+01 -0.14536525720E+02  0.18726474091E+02  0.00000000000E+00 0. -1.
         11    1    3    3    0    0 -0.21706799545E+02  0.12271480218E+02  0.54675399988E+01  0.25527795970E+02  0.51100000000E-03 0. -1.
        -11    1    3    3    0    0 -0.35661774087E+01 -0.26170774379E+02  0.21542626981E+01  0.26500337752E+02  0.51100000000E-03 0.  1.
        -12    1    3    3    0    0  0.18801760710E+02  0.40254087973E+01  0.69147230236E+01  0.20433392187E+02  0.00000000000E+00 0.  1.
</event>
<event>
 7    1  0.1283194E-013  0.7246158E+02  0.7816164E-02  0.1226708E+00
        -11   -1    0    0    0    0  0.00000000000E+00  0.00000000000E+00  0.45593999997E+02  0.45594000000E+02  0.51100000000E-03 0.  1.
         11   -1    0    0    0    0 -0.00000000000E+00 -0.00000000000E+00 -0.45593999997E+02  0.45594000000E+02  0.51100000000E-03 0. -1.
    9900012    2    1    2    0    0  0.14996829533E+02  0.10601966986E+02  0.36568091094E+01  0.72461578749E+02  0.70000011014E+02 0.  0.
         12    1    1    2    0    0 -0.14996829533E+02 -0.10601966986E+02 -0.36568091094E+01  0.18726421251E+02  0.00000000000E+00 0. -1.
         11    1    3    3    0    0  0.13504584220E+02 -0.61538710747E+01 -0.23346393156E+02  0.27664019914E+02  0.51100000000E-03 0. -1.
        -11    1    3    3    0    0  0.37262217219E+01  0.25758153311E+02  0.16646487346E+02  0.30894542099E+02  0.51100000000E-03 0.  1.
         12    1    3    3    0    0 -0.22339764091E+01 -0.90023152501E+01  0.10356714919E+02  0.13903016736E+02  0.00000000000E+00 0. -1.
</event>
<event>
 7    1  0.1283194E-013  0.7246158E+02  0.7816164E-02  0.1226708E+00
        -11   -1    0    0    0    0  0.00000000000E+00  0.00000000000E+00  0.45593999997E+02  0.45594000000E+02  0.51100000000E-03 0. -1.
         11   -1    0    0    0    0 -0.00000000000E+00 -0.00000000000E+00 -0.45593999997E+02  0.45594000000E+02  0.51100000000E-03 0.  1.
    9900012    2    1    2    0    0  0.11435800699E+02 -0.14144077764E+02  0.44549413187E+01  0.72461575473E+02  0.70000006746E+02 0.  0.
         12    1    1    2    0    0 -0.11435800699E+02  0.14144077764E+02 -0.44549413187E+01  0.18726424527E+02  0.00000000000E+00 0. -1.
         11    1    3    3    0    0 -0.18385769669E+02 -0.19464660062E+02 -0.14037941149E+02  0.30231991492E+02  0.51100000000E-03 0. -1.
        -11    1    3    3    0    0  0.29512340619E+02 -0.11933755694E+01  0.19825921865E+02  0.35573439138E+02  0.51100000000E-03 0.  1.
        -12    1    3    3    0    0  0.30922974889E+00  0.65139578671E+01 -0.13330393972E+01  0.66561448426E+01  0.00000000000E+00 0.  1.
</event>
<event>
 7    1  0.1283194E-013  0.7246158E+02  0.7816164E-02  0.1226708E+00
        -11   -1    0    0    0    0  0.00000000000E+00  0.00000000000E+00  0.45593999997E+02  0.45594000000E+02  0.51100000000E-03 0.  1.
         11   -1    0    0    0    0 -0.00000000000E+00 -0.00000000000E+00 -0.45593999997E+02  0.45594000000E+02  0.51100000000E-03 0. -1.
    9900012    2    1    2    0    0  0.79360806530E+00 -0.57924179094E+01  0.17790361461E+02  0.72461578027E+02  0.70000010074E+02 0.  0.
         12    1    1    2    0    0 -0.79360806530E+00  0.57924179094E+01 -0.17790361461E+02  0.18726421973E+02  0.00000000000E+00 0. -1.
         11    1    3    3    0    0  0.13890912937E+02 -0.16437467295E+01 -0.21778150650E+02  0.25883338493E+02  0.51100000000E-03 0. -1.
        -11    1    3    3    0    0 -0.18375146788E+02 -0.12968597497E+01  0.27477939329E+02  0.33081188230E+02  0.51100000000E-03 0.  1.
         12    1    3    3    0    0  0.52778419160E+01 -0.28518114302E+01  0.12090572782E+02  0.13497051304E+02  0.00000000000E+00 0. -1.
</event>
<event>
 7    1  0.1283194E-013  0.7246158E+02  0.7816164E-02  0.1226708E+00
        -11   -1    0    0    0    0  0.00000000000E+00  0.00000000000E+00  0.45593999997E+02  0.45594000000E+02  0.51100000000E-03 0.  1.
         11   -1    0    0    0    0 -0.00000000000E+00 -0.00000000000E+00 -0.45593999997E+02  0.45594000000E+02  0.51100000000E-03 0. -1.
    9900012    2    1    2    0    0  0.16321714605E+02 -0.70455165839E+01  0.58856874209E+01  0.72461575141E+02  0.70000006314E+02 0.  0.
         12    1    1    2    0    0 -0.16321714605E+02  0.70455165839E+01 -0.58856874209E+01  0.18726424859E+02  0.00000000000E+00 0. -1.
         11    1    3    3    0    0 -0.85074914312E+01 -0.81465885550E+01 -0.12152830008E+01  0.11841504489E+02  0.51100000000E-03 0.  1.
        -11    1    3    3    0    0  0.37583228690E+02 -0.10009341261E+02  0.15335517775E+02  0.41807464608E+02  0.51100000000E-03 0. -1.
        -12    1    3    3    0    0 -0.12754022655E+02  0.11110413232E+02 -0.82345473529E+01  0.18812606044E+02  0.00000000000E+00 0.  1.
</event>
<event>
 7    1  0.1283194E-013  0.7246156E+02  0.7816164E-02  0.1226708E+00
        -11   -1    0    0    0    0  0.00000000000E+00  0.00000000000E+00  0.45593999997E+02  0.45594000000E+02  0.51100000000E-03 0.  1.
         11   -1    0    0    0    0 -0.00000000000E+00 -0.00000000000E+00 -0.45593999997E+02  0.45594000000E+02  0.51100000000E-03 0. -1.
    9900012    2    1    2    0    0  0.26314395159E+01 -0.18521818128E+02  0.83511492256E+00  0.72461557796E+02  0.69999983719E+02 0.  0.
         12    1    1    2    0    0 -0.26314395159E+01  0.18521818128E+02 -0.83511492256E+00  0.18726442204E+02  0.00000000000E+00 0. -1.
         11    1    3    3    0    0 -0.13325819134E+02  0.72320246853E+01  0.17774448977E+02  0.23362591324E+02  0.51100000000E-03 0. -1.
        -11    1    3    3    0    0  0.19690498664E+02 -0.79067508897E+01 -0.21600811176E+02  0.30279159351E+02  0.51100000000E-03 0.  1.
        -12    1    3    3    0    0 -0.37332400135E+01 -0.17847091923E+02  0.46614771215E+01  0.18819807121E+02  0.00000000000E+00 0.  1.
</event>
<event>
 7    1  0.1283194E-013  0.7246156E+02  0.7816164E-02  0.1226708E+00
        -11   -1    0    0    0    0  0.00000000000E+00  0.00000000000E+00  0.45593999997E+02  0.45594000000E+02  0.51100000000E-03 0.  1.
         11   -1    0    0    0    0 -0.00000000000E+00 -0.00000000000E+00 -0.45593999997E+02  0.45594000000E+02  0.51100000000E-03 0. -1.
    9900012    2    1    2    0    0  0.12759786623E+02 -0.74514433060E+01  0.11504063166E+02  0.72461557963E+02  0.69999983937E+02 0.  0.
         12    1    1    2    0    0 -0.12759786623E+02  0.74514433060E+01 -0.11504063166E+02  0.18726442037E+02  0.00000000000E+00 0. -1.
         11    1    3    3    0    0  0.18968439403E+02  0.92066462677E+01 -0.17187613909E+02  0.27202538503E+02  0.51100000000E-03 0.  1.
        -11    1    3    3    0    0 -0.23849320910E+01 -0.19249708774E+02  0.35780851081E+01  0.19724144652E+02  0.51100000000E-03 0. -1.
        -12    1    3    3    0    0 -0.38237206892E+01  0.25916192001E+01  0.25113591967E+02  0.25534874808E+02  0.00000000000E+00 0.  1.
</event>
<event>
 7    1  0.1283194E-013  0.7246159E+02  0.7816164E-02  0.1226708E+00
        -11   -1    0    0    0    0  0.00000000000E+00  0.00000000000E+00  0.45593999997E+02  0.45594000000E+02  0.51100000000E-03 0.  1.
         11   -1    0    0    0    0 -0.00000000000E+00 -0.00000000000E+00 -0.45593999997E+02  0.45594000000E+02  0.51100000000E-03 0. -1.
    9900012    2    1    2    0    0 -0.77928865527E+01 -0.15649214600E+02 -0.67120276916E+01  0.72461593133E+02  0.70000029752E+02 0.  0.
         12    1    1    2    0    0  0.77928865527E+01  0.15649214600E+02  0.67120276916E+01  0.18726406867E+02  0.00000000000E+00 0. -1.
         11    1    3    3    0    0 -0.17337705762E+02 -0.14678880221E+01 -0.10841637599E+02  0.20501020521E+02  0.51100000000E-03 0. -1.
        -11    1    3    3    0    0  0.22819928537E+02 -0.21700991613E+02 -0.79749382861E+01  0.32485101452E+02  0.51100000000E-03 0.  1.
        -12    1    3    3    0    0 -0.13275109328E+02  0.75196650356E+01  0.12104548194E+02  0.19475471160E+02  0.00000000000E+00 0.  1.
</event>
<event>
 7    1  0.1283194E-013  0.7246160E+02  0.7816164E-02  0.1226708E+00
        -11   -1    0    0    0    0  0.00000000000E+00  0.00000000000E+00  0.45593999997E+02  0.45594000000E+02  0.51100000000E-03 0. -1.
         11   -1    0    0    0    0 -0.00000000000E+00 -0.00000000000E+00 -0.45593999997E+02  0.45594000000E+02  0.51100000000E-03 0.  1.
    9900012    2    1    2    0    0  0.18116895411E+02  0.46494361098E+01  0.91586639905E+00  0.72461602409E+02  0.70000041836E+02 0.  0.
         12    1    1    2    0    0 -0.18116895411E+02 -0.46494361098E+01 -0.91586639905E+00  0.18726397591E+02  0.00000000000E+00 0. -1.
         11    1    3    3    0    0 -0.15058948815E+02 -0.14147066658E+02  0.12840004365E+02  0.24326470084E+02  0.51100000000E-03 0. -1.
        -11    1    3    3    0    0  0.18873838815E+02 -0.41776732104E+01 -0.25639820018E+01  0.19499967924E+02  0.51100000000E-03 0.  1.
         12    1    3    3    0    0  0.14302005410E+02  0.22974175978E+02 -0.93601559637E+01  0.28635164401E+02  0.00000000000E+00 0. -1.
</event>
<event>
 7    1  0.1283194E-013  0.7246158E+02  0.7816164E-02  0.1226708E+00
        -11   -1    0    0    0    0  0.00000000000E+00  0.00000000000E+00  0.45593999997E+02  0.45594000000E+02  0.51100000000E-03 0. -1.
         11   -1    0    0    0    0 -0.00000000000E+00 -0.00000000000E+00 -0.45593999997E+02  0.45594000000E+02  0.51100000000E-03 0.  1.
    9900012    2    1    2    0    0  0.72779520119E+01 -0.15433946701E+02 -0.77138405583E+01  0.72461584635E+02  0.70000018682E+02 0.  0.
         12    1    1    2    0    0 -0.72779520119E+01  0.15433946701E+02  0.77138405583E+01  0.18726415365E+02  0.00000000000E+00 0. -1.
         11    1    3    3    0    0 -0.74872411866E+01 -0.22721809761E+02  0.31382473593E+01  0.24128572609E+02  0.51100000000E-03 0. -1.
        -11    1    3    3    0    0 -0.74032891717E+01  0.19400305107E+02 -0.10023945167E+02  0.23057753702E+02  0.51100000000E-03 0.  1.
        -12    1    3    3    0    0  0.22168482370E+02 -0.12112442047E+02 -0.82814275041E+00  0.25275258324E+02  0.00000000000E+00 0.  1.
</event>
<event>
 7    1  0.1283194E-013  0.7246156E+02  0.7816164E-02  0.1226708E+00
        -11   -1    0    0    0    0  0.00000000000E+00  0.00000000000E+00  0.45593999997E+02  0.45594000000E+02  0.51100000000E-03 0.  1.
         11   -1    0    0    0    0 -0.00000000000E+00 -0.00000000000E+00 -0.45593999997E+02  0.45594000000E+02  0.51100000000E-03 0. -1.
    9900012    2    1    2    0    0 -0.78531204621E+01  0.14685763323E+02 -0.85636694903E+01  0.72461559321E+02  0.69999985705E+02 0.  0.
         12    1    1    2    0    0  0.78531204621E+01 -0.14685763323E+02  0.85636694903E+01  0.18726440679E+02  0.00000000000E+00 0. -1.
         11    1    3    3    0    0 -0.13610563247E+02 -0.15416393391E+00 -0.12393785979E+02  0.18408615634E+02  0.51100000000E-03 0. -1.
        -11    1    3    3    0    0 -0.63731952254E+01  0.20705252594E+02  0.22365572331E+02  0.31137500354E+02  0.51100000000E-03 0.  1.
        -12    1    3    3    0    0  0.12130638010E+02 -0.58653253370E+01 -0.18535455842E+02  0.22915443332E+02  0.00000000000E+00 0.  1.
</event>
<event>
 7    1  0.1283194E-013  0.7246157E+02  0.7816164E-02  0.1226708E+00
        -11   -1    0    0    0    0  0.00000000000E+00  0.00000000000E+00  0.45593999997E+02  0.45594000000E+02  0.51100000000E-03 0.  1.
         11   -1    0    0    0    0 -0.00000000000E+00 -0.00000000000E+00 -0.45593999997E+02  0.45594000000E+02  0.51100000000E-03 0. -1.
    9900012    2    1    2    0    0 -0.18682629629E+02  0.12358385986E+01 -0.33326228293E+00  0.72461574536E+02  0.70000005526E+02 0.  0.
         12    1    1    2    0    0  0.18682629629E+02 -0.12358385986E+01  0.33326228293E+00  0.18726425464E+02  0.00000000000E+00 0. -1.
         11    1    3    3    0    0  0.16350991534E+02  0.21342958231E+02 -0.37566004626E+01  0.27147538332E+02  0.51100000000E-03 0. -1.
        -11    1    3    3    0    0 -0.25886655035E+02 -0.11699872941E+02 -0.68165368911E+01  0.29214227890E+02  0.51100000000E-03 0.  1.
        -12    1    3    3    0    0 -0.91469661277E+01 -0.84072466916E+01  0.10239875071E+02  0.16099808314E+02  0.00000000000E+00 0.  1.
</event>
<event>
 7    1  0.1283194E-013  0.7246154E+02  0.7816164E-02  0.1226708E+00
        -11   -1    0    0    0    0  0.00000000000E+00  0.00000000000E+00  0.45593999997E+02  0.45594000000E+02  0.51100000000E-03 0. -1.
         11   -1    0    0    0    0 -0.00000000000E+00 -0.00000000000E+00 -0.45593999997E+02  0.45594000000E+02  0.51100000000E-03 0.  1.
    9900012    2    1    2    0    0 -0.66828852028E+01  0.16851419787E+02  0.46956198016E+01  0.72461544147E+02  0.69999965939E+02 0.  0.
         12    1    1    2    0    0  0.66828852028E+01 -0.16851419787E+02 -0.46956198016E+01  0.18726455853E+02  0.00000000000E+00 0. -1.
         11    1    3    3    0    0  0.11690661625E+02  0.14515844670E+02  0.19753011335E+02  0.27158106944E+02  0.51100000000E-03 0. -1.
        -11    1    3    3    0    0 -0.16813271782E+02 -0.16020330614E+02 -0.33195998009E+01  0.23459685507E+02  0.51100000000E-03 0.  1.
         12    1    3    3    0    0 -0.15602750456E+01  0.18355905730E+02 -0.11737791732E+02  0.21843751696E+02  0.00000000000E+00 0. -1.
</event>
<event>
 7    1  0.1283194E-013  0.7246153E+02  0.7816164E-02  0.1226708E+00
        -11   -1    0    0    0    0  0.00000000000E+00  0.00000000000E+00  0.45593999997E+02  0.45594000000E+02  0.51100000000E-03 0.  1.
         11   -1    0    0    0    0 -0.00000000000E+00 -0.00000000000E+00 -0.45593999997E+02  0.45594000000E+02  0.51100000000E-03 0. -1.
    9900012    2    1    2    0    0 -0.51775860915E+00  0.35221973857E+01  0.18384958665E+02  0.72461530671E+02  0.69999948384E+02 0.  0.
         12    1    1    2    0    0  0.51775860915E+00 -0.35221973857E+01 -0.18384958665E+02  0.18726469329E+02  0.00000000000E+00 0. -1.
         11    1    3    3    0    0  0.11861889917E+02  0.18735807500E+02 -0.53010953910E+01  0.22799923853E+02  0.51100000000E-03 0. -1.
        -11    1    3    3    0    0 -0.18071599118E+02  0.73480769783E+01  0.15763713050E+02  0.25081299395E+02  0.51100000000E-03 0.  1.
         12    1    3    3    0    0  0.56919505927E+01 -0.22561687093E+02  0.79223410060E+01  0.24580307424E+02  0.00000000000E+00 0. -1.
</event>
<event>
 7    1  0.1283194E-013  0.7246157E+02  0.7816164E-02  0.1226708E+00
        -11   -1    0    0    0    0  0.00000000000E+00  0.00000000000E+00  0.45593999997E+02  0.45594000000E+02  0.51100000000E-03 0.  1.
         11   -1    0    0    0    0 -0.00000000000E+00 -0.00000000000E+00 -0.45593999997E+02  0.45594000000E+02  0.51100000000E-03 0. -1.
    9900012    2    1    2    0    0 -0.15586456321E+02  0.80750172782E+01  0.65219266317E+01  0.72461573441E+02  0.70000004099E+02 0.  0.
         12    1    1    2    0    0  0.15586456321E+02 -0.80750172782E+01 -0.65219266317E+01  0.18726426559E+02  0.00000000000E+00 0. -1.
         11    1    3    3    0    0  0.81788861270E+01 -0.15736725425E+02 -0.64177643652E+00  0.17746847118E+02  0.51100000000E-03 0. -1.
        -11    1    3    3    0    0 -0.32872526540E+02  0.49059489797E+01  0.36290567743E+01  0.33434135099E+02  0.51100000000E-03 0.  1.
        -12    1    3    3    0    0  0.91071840918E+01  0.18905793723E+02  0.35346462939E+01  0.21280591223E+02  0.00000000000E+00 0.  1.
</event>
<event>
 7    1  0.1283194E-013  0.7246165E+02  0.7816164E-02  0.1226708E+00
        -11   -1    0    0    0    0  0.00000000000E+00  0.00000000000E+00  0.45593999997E+02  0.45594000000E+02  0.51100000000E-03 0.  1.
         11   -1    0    0    0    0 -0.00000000000E+00 -0.00000000000E+00 -0.45593999997E+02  0.45594000000E+02  0.51100000000E-03 0. -1.
    9900012    2    1    2    0    0  0.34155741068E+01 -0.73871045190E+01  0.16865374659E+02  0.72461646323E+02  0.70000099041E+02 0.  0.
         12    1    1    2    0    0 -0.34155741068E+01  0.73871045190E+01 -0.16865374659E+02  0.18726353677E+02  0.00000000000E+00 0. -1.
         11    1    3    3    0    0  0.14603725409E+02  0.81915743397E+01  0.11236144022E+02  0.20164860990E+02  0.51100000000E-03 0. -1.
        -11    1    3    3    0    0 -0.21251246293E+02 -0.23309336158E+02  0.16490850149E+02  0.35593380845E+02  0.51100000000E-03 0.  1.
        -12    1    3    3    0    0  0.10063094990E+02  0.77306572988E+01 -0.10861619512E+02  0.16703404488E+02  0.00000000000E+00 0.  1.
</event>
<event>
 7    1  0.1283194E-013  0.7246167E+02  0.7816164E-02  0.1226708E+00
        -11   -1    0    0    0    0  0.00000000000E+00  0.00000000000E+00  0.45593999997E+02  0.45594000000E+02  0.51100000000E-03 0.  1.
         11   -1    0    0    0    0 -0.00000000000E+00 -0.00000000000E+00 -0.45593999997E+02  0.45594000000E+02  0.51100000000E-03 0. -1.
    9900012    2    1    2    0    0  0.15459527001E+02 -0.15014605585E+01 -0.10460600372E+02  0.72461667763E+02  0.70000126971E+02 0.  0.
         12    1    1    2    0    0 -0.15459527001E+02  0.15014605585E+01  0.10460600372E+02  0.18726332237E+02  0.00000000000E+00 0. -1.
         11    1    3    3    0    0  0.37729302794E+02  0.81409435046E+01  0.24582363451E+01  0.38675808675E+02  0.51100000000E-03 0. -1.
        -11    1    3    3    0    0 -0.15413875909E+02 -0.74718201826E+01  0.19788583023E+01  0.17243304434E+02  0.51100000000E-03 0.  1.
        -12    1    3    3    0    0 -0.68558998839E+01 -0.21705838806E+01 -0.14897695019E+02  0.16542554654E+02  0.00000000000E+00 0.  1.
</event>
<event>
 7    1  0.1283194E-013  0.7246148E+02  0.7816164E-02  0.1226708E+00
        -11   -1    0    0    0    0  0.00000000000E+00  0.00000000000E+00  0.45593999997E+02  0.45594000000E+02  0.51100000000E-03 0.  1.
         11   -1    0    0    0    0 -0.00000000000E+00 -0.00000000000E+00 -0.45593999997E+02  0.45594000000E+02  0.51100000000E-03 0. -1.
    9900012    2    1    2    0    0 -0.88513737387E+01 -0.52821498711E+01  0.15634409044E+02  0.72461476818E+02  0.69999878229E+02 0.  0.
         12    1    1    2    0    0  0.88513737387E+01  0.52821498711E+01 -0.15634409044E+02  0.18726523182E+02  0.00000000000E+00 0. -1.
         11    1    3    3    0    0 -0.12770348232E+02 -0.49034633730E+01  0.50105703737E+01  0.14568169506E+02  0.51100000000E-03 0. -1.
        -11    1    3    3    0    0  0.14312029967E+02 -0.25347218242E+02  0.80162036884E+00  0.29119723039E+02  0.51100000000E-03 0.  1.
        -12    1    3    3    0    0 -0.10393055474E+02  0.24968531744E+02  0.98222183019E+01  0.28773584273E+02  0.00000000000E+00 0.  1.
</event>
<event>
 7    1  0.1283194E-013  0.7246154E+02  0.7816164E-02  0.1226708E+00
        -11   -1    0    0    0    0  0.00000000000E+00  0.00000000000E+00  0.45593999997E+02  0.45594000000E+02  0.51100000000E-03 0.  1.
         11   -1    0    0    0    0 -0.00000000000E+00 -0.00000000000E+00 -0.45593999997E+02  0.45594000000E+02  0.51100000000E-03 0. -1.
    9900012    2    1    2    0    0  0.80865683589E+01  0.23707629437E+00  0.16888803888E+02  0.72461535044E+02  0.69999954079E+02 0.  0.
         12    1    1    2    0    0 -0.80865683589E+01 -0.23707629437E+00 -0.16888803888E+02  0.18726464956E+02  0.00000000000E+00 0. -1.
         11    1    3    3    0    0 -0.18146868156E+02  0.22700252485E+02 -0.43954902184E+01  0.29392696734E+02  0.51100000000E-03 0. -1.
        -11    1    3    3    0    0  0.76737015320E+01 -0.83964123451E+01 -0.21110262997E+00  0.11376730640E+02  0.51100000000E-03 0.  1.
         12    1    3    3    0    0  0.18559734983E+02 -0.14066763846E+02  0.21495396736E+02  0.31692107670E+02  0.00000000000E+00 0. -1.
</event>
<event>
 7    1  0.1283194E-013  0.7246153E+02  0.7816164E-02  0.1226708E+00
        -11   -1    0    0    0    0  0.00000000000E+00  0.00000000000E+00  0.45593999997E+02  0.45594000000E+02  0.51100000000E-03 0.  1.
         11   -1    0    0    0    0 -0.00000000000E+00 -0.00000000000E+00 -0.45593999997E+02  0.45594000000E+02  0.51100000000E-03 0. -1.
    9900012    2    1    2    0    0  0.16992749913E+02 -0.50972552957E+01 -0.59954389155E+01  0.72461525453E+02  0.69999941586E+02 0.  0.
         12    1    1    2    0    0 -0.16992749913E+02  0.50972552957E+01  0.59954389155E+01  0.18726474547E+02  0.00000000000E+00 0. -1.
         11    1    3    3    0    0  0.70933411666E+01 -0.34792244912E+02 -0.50054842819E+01  0.35859038861E+02  0.51100000000E-03 0.  1.
        -11    1    3    3    0    0  0.12114941592E+02  0.26602571066E+02 -0.64629644496E+01  0.29937242806E+02  0.51100000000E-03 0. -1.
        -12    1    3    3    0    0 -0.22155328457E+01  0.30924185498E+01  0.54730098160E+01  0.66652437857E+01  0.00000000000E+00 0.  1.
</event>
<event>
 7    1  0.1283194E-013  0.7246165E+02  0.7816164E-02  0.1226708E+00
        -11   -1    0    0    0    0  0.00000000000E+00  0.00000000000E+00  0.45593999997E+02  0.45594000000E+02  0.51100000000E-03 0. -1.
         11   -1    0    0    0    0 -0.00000000000E+00 -0.00000000000E+00 -0.45593999997E+02  0.45594000000E+02  0.51100000000E-03 0.  1.
    9900012    2    1    2    0    0  0.34782644568E+01 -0.75519632687E+01 -0.16779323049E+02  0.72461650788E+02  0.70000104857E+02 0.  0.
         12    1    1    2    0    0 -0.34782644568E+01  0.75519632687E+01  0.16779323049E+02  0.18726349212E+02  0.00000000000E+00 0. -1.
         11    1    3    3    0    0 -0.27992879440E+02 -0.14807640914E+02 -0.82172552850E+01  0.32716827681E+02  0.51100000000E-03 0. -1.
        -11    1    3    3    0    0  0.17019530974E+02  0.14757877029E+02 -0.51630201486E+01  0.23110952951E+02  0.51100000000E-03 0.  1.
         12    1    3    3    0    0  0.14451612923E+02 -0.75021993838E+01 -0.33990476153E+01  0.16633870156E+02  0.00000000000E+00 0. -1.
</event>
<event>
 7    1  0.1283194E-013  0.7246151E+02  0.7816164E-02  0.1226708E+00
        -11   -1    0    0    0    0  0.00000000000E+00  0.00000000000E+00  0.45593999997E+02  0.45594000000E+02  0.51100000000E-03 0.  1.
         11   -1    0    0    0    0 -0.00000000000E+00 -0.00000000000E+00 -0.45593999997E+02  0.45594000000E+02  0.51100000000E-03 0. -1.
    9900012    2    1    2    0    0 -0.39755292962E+01  0.17664303459E+02  0.47800608011E+01  0.72461509908E+02  0.69999921336E+02 0.  0.
         12    1    1    2    0    0  0.39755292962E+01 -0.17664303459E+02 -0.47800608011E+01  0.18726490092E+02  0.00000000000E+00 0. -1.
         11    1    3    3    0    0  0.10239097103E+02  0.24238805778E+02  0.10105592050E+02  0.28186553637E+02  0.51100000000E-03 0.  1.
        -11    1    3    3    0    0 -0.27961051324E+02 -0.64114482915E+01 -0.89632792528E+01  0.30054407922E+02  0.51100000000E-03 0. -1.
        -12    1    3    3    0    0  0.13746424924E+02 -0.16305402670E+00  0.36377480041E+01  0.14220548349E+02  0.00000000000E+00 0.  1.
</event>
<event>
 7    1  0.1283194E-013  0.7246156E+02  0.7816164E-02  0.1226708E+00
        -11   -1    0    0    0    0  0.00000000000E+00  0.00000000000E+00  0.45593999997E+02  0.45594000000E+02  0.51100000000E-03 0.  1.
         11   -1    0    0    0    0 -0.00000000000E+00 -0.00000000000E+00 -0.45593999997E+02  0.45594000000E+02  0.51100000000E-03 0. -1.
    9900012    2    1    2    0    0 -0.13052301481E+02 -0.20076693472E+01 -0.13277277740E+02  0.72461563757E+02  0.69999991484E+02 0.  0.
         12    1    1    2    0    0  0.13052301481E+02  0.20076693472E+01  0.13277277740E+02  0.18726436243E+02  0.00000000000E+00 0. -1.
         11    1    3    3    0    0 -0.29619773089E+02  0.20979285996E+02  0.53285706224E+01  0.36685897343E+02  0.51100000000E-03 0. -1.
        -11    1    3    3    0    0  0.43456659384E+01 -0.12084294899E+02 -0.30755064676E+01  0.13205064784E+02  0.51100000000E-03 0.  1.
         12    1    3    3    0    0  0.12221805669E+02 -0.10902660444E+02 -0.15530341895E+02  0.22570601630E+02  0.00000000000E+00 0. -1.
</event>
<event>
 7    1  0.1283194E-013  0.7246155E+02  0.7816164E-02  0.1226708E+00
        -11   -1    0    0    0    0  0.00000000000E+00  0.00000000000E+00  0.45593999997E+02  0.45594000000E+02  0.51100000000E-03 0.  1.
         11   -1    0    0    0    0 -0.00000000000E+00 -0.00000000000E+00 -0.45593999997E+02  0.45594000000E+02  0.51100000000E-03 0. -1.
    9900012    2    1    2    0    0  0.18457702454E+02  0.19229426446E+01  0.25090376463E+01  0.72461554576E+02  0.69999979524E+02 0.  0.
         12    1    1    2    0    0 -0.18457702454E+02 -0.19229426446E+01 -0.25090376463E+01  0.18726445424E+02  0.00000000000E+00 0. -1.
         11    1    3    3    0    0  0.18259482644E+02  0.20295034922E+02 -0.11690039086E+01  0.27325148112E+02  0.51100000000E-03 0.  1.
        -11    1    3    3    0    0 -0.92076547884E+01 -0.20991700898E+02 -0.12598183958E+02  0.26156197213E+02  0.51100000000E-03 0. -1.
        -12    1    3    3    0    0  0.94058745983E+01  0.26196086208E+01  0.16276225513E+02  0.18980209252E+02  0.00000000000E+00 0.  1.
</event>
<event>
 7    1  0.1283194E-013  0.7246160E+02  0.7816164E-02  0.1226708E+00
        -11   -1    0    0    0    0  0.00000000000E+00  0.00000000000E+00  0.45593999997E+02  0.45594000000E+02  0.51100000000E-03 0.  1.
         11   -1    0    0    0    0 -0.00000000000E+00 -0.00000000000E+00 -0.45593999997E+02  0.45594000000E+02  0.51100000000E-03 0. -1.
    9900012    2    1    2    0    0 -0.53220718059E+01 -0.17669002538E+02  0.31874850142E+01  0.72461597257E+02  0.70000035123E+02 0.  0.
         12    1    1    2    0    0  0.53220718059E+01  0.17669002538E+02 -0.31874850142E+01  0.18726402743E+02  0.00000000000E+00 0. -1.
         11    1    3    3    0    0  0.13906131760E+02  0.77698579041E+01  0.24201077087E+02  0.28973148341E+02  0.51100000000E-03 0.  1.
        -11    1    3    3    0    0 -0.17278885626E+01 -0.18972246951E+02 -0.13625948939E+02  0.23422174067E+02  0.51100000000E-03 0. -1.
        -12    1    3    3    0    0 -0.17500315003E+02 -0.64666134909E+01 -0.73876431329E+01  0.20066274849E+02  0.00000000000E+00 0.  1.
</event>
<event>
 7    1  0.1283194E-013  0.7246154E+02  0.7816164E-02  0.1226708E+00
        -11   -1    0    0    0    0  0.00000000000E+00  0.00000000000E+00  0.45593999997E+02  0.45594000000E+02  0.51100000000E-03 0. -1.
         11   -1    0    0    0    0 -0.00000000000E+00 -0.00000000000E+00 -0.45593999997E+02  0.45594000000E+02  0.51100000000E-03 0.  1.
    9900012    2    1    2    0    0 -0.67631522184E+01 -0.16825363125E+02 -0.46741057086E+01  0.72461539138E+02  0.69999959413E+02 0.  0.
         12    1    1    2    0    0  0.67631522184E+01  0.16825363125E+02  0.46741057086E+01  0.18726460862E+02  0.00000000000E+00 0. -1.
         11    1    3    3    0    0 -0.27218233300E+01  0.12947241529E+02  0.15757469099E+02  0.20575160220E+02  0.51100000000E-03 0. -1.
        -11    1    3    3    0    0 -0.52831330519E+01 -0.11198504542E+02 -0.28895699677E+02  0.31436912363E+02  0.51100000000E-03 0.  1.
        -12    1    3    3    0    0  0.12418041636E+01 -0.18574100112E+02  0.84641248700E+01  0.20449466555E+02  0.00000000000E+00 0.  1.
</event>
<event>
 7    1  0.1283194E-013  0.7246159E+02  0.7816164E-02  0.1226708E+00
        -11   -1    0    0    0    0  0.00000000000E+00  0.00000000000E+00  0.45593999997E+02  0.45594000000E+02  0.51100000000E-03 0. -1.
         11   -1    0    0    0    0 -0.00000000000E+00 -0.00000000000E+00 -0.45593999997E+02  0.45594000000E+02  0.51100000000E-03 0.  1.
    9900012    2    1    2    0    0  0.49422187787E+01 -0.50014627977E+01 -0.17356221569E+02  0.72461585935E+02  0.70000020375E+02 0.  0.
         12    1    1    2    0    0 -0.49422187787E+01  0.50014627977E+01  0.17356221569E+02  0.18726414065E+02  0.00000000000E+00 0. -1.
         11    1    3    3    0    0  0.31470829980E+01  0.12932745526E+02  0.29760704337E+01  0.13638806170E+02  0.51100000000E-03 0.  1.
        -11    1    3    3    0    0  0.26681924770E+01 -0.35896161878E+02 -0.76004725638E+01  0.36788868862E+02  0.51100000000E-03 0. -1.
        -12    1    3    3    0    0 -0.87305669627E+00  0.17961953554E+02 -0.12731819439E+02  0.22033910903E+02  0.00000000000E+00 0.  1.
</event>
<event>
 7    1  0.1283194E-013  0.7246157E+02  0.7816164E-02  0.1226708E+00
        -11   -1    0    0    0    0  0.00000000000E+00  0.00000000000E+00  0.45593999997E+02  0.45594000000E+02  0.51100000000E-03 0. -1.
         11   -1    0    0    0    0 -0.00000000000E+00 -0.00000000000E+00 -0.45593999997E+02  0.45594000000E+02  0.51100000000E-03 0.  1.
    9900012    2    1    2    0    0 -0.95092963358E+01  0.74079997315E+01 -0.14330872817E+02  0.72461572351E+02  0.70000002679E+02 0.  0.
         12    1    1    2    0    0  0.95092963358E+01 -0.74079997315E+01  0.14330872817E+02  0.18726427649E+02  0.00000000000E+00 0. -1.
         11    1    3    3    0    0  0.20325828424E+02  0.56736772414E+01 -0.26559206436E+02  0.33922284141E+02  0.51100000000E-03 0. -1.
        -11    1    3    3    0    0 -0.12788696838E+02  0.10100453195E+02  0.67142712431E+00  0.16310142127E+02  0.51100000000E-03 0.  1.
         12    1    3    3    0    0 -0.17046427922E+02 -0.83661307046E+01  0.11556906495E+02  0.22229146083E+02  0.00000000000E+00 0. -1.
</event>
<event>
 7    1  0.1283194E-013  0.7246163E+02  0.7816164E-02  0.1226708E+00
        -11   -1    0    0    0    0  0.00000000000E+00  0.00000000000E+00  0.45593999997E+02  0.45594000000E+02  0.51100000000E-03 0. -1.
         11   -1    0    0    0    0 -0.00000000000E+00 -0.00000000000E+00 -0.45593999997E+02  0.45594000000E+02  0.51100000000E-03 0.  1.
    9900012    2    1    2    0    0  0.99647973599E+01 -0.13987892647E+02 -0.74644940402E+01  0.72461628263E+02  0.70000075515E+02 0.  0.
         12    1    1    2    0    0 -0.99647973599E+01  0.13987892647E+02  0.74644940402E+01  0.18726371737E+02  0.00000000000E+00 0. -1.
         11    1    3    3    0    0 -0.18358810235E+02  0.60278239906E+01 -0.21546990631E+02  0.28942242152E+02  0.51100000000E-03 0. -1.
        -11    1    3    3    0    0  0.22341038145E+02 -0.20074475464E+02  0.20783335890E+01  0.30106909860E+02  0.51100000000E-03 0.  1.
         12    1    3    3    0    0  0.59825694491E+01  0.58758825556E-01  0.12004163002E+02  0.13412476251E+02  0.00000000000E+00 0. -1.
</event>
<event>
 7    1  0.1283194E-013  0.7246153E+02  0.7816164E-02  0.1226708E+00
        -11   -1    0    0    0    0  0.00000000000E+00  0.00000000000E+00  0.45593999997E+02  0.45594000000E+02  0.51100000000E-03 0.  1.
         11   -1    0    0    0    0 -0.00000000000E+00 -0.00000000000E+00 -0.45593999997E+02  0.45594000000E+02  0.51100000000E-03 0. -1.
    9900012    2    1    2    0    0 -0.13325204719E+01 -0.63007801214E+00  0.18668373884E+02  0.72461526959E+02  0.69999943547E+02 0.  0.
         12    1    1    2    0    0  0.13325204719E+01  0.63007801214E+00 -0.18668373884E+02  0.18726473041E+02  0.00000000000E+00 0. -1.
         11    1    3    3    0    0 -0.21072452419E+02 -0.16505663824E+01 -0.11366618949E+02  0.23999430138E+02  0.51100000000E-03 0. -1.
        -11    1    3    3    0    0  0.19451915520E+02  0.12206877408E+02  0.90572697162E+01  0.24686413438E+02  0.51100000000E-03 0.  1.
        -12    1    3    3    0    0  0.28801642690E+00 -0.11186389037E+02  0.20977723117E+02  0.23775683383E+02  0.00000000000E+00 0.  1.
</event>
<event>
 7    1  0.1283194E-013  0.7246152E+02  0.7816164E-02  0.1226708E+00
        -11   -1    0    0    0    0  0.00000000000E+00  0.00000000000E+00  0.45593999997E+02  0.45594000000E+02  0.51100000000E-03 0. -1.
         11   -1    0    0    0    0 -0.00000000000E+00 -0.00000000000E+00 -0.45593999997E+02  0.45594000000E+02  0.51100000000E-03 0.  1.
    9900012    2    1    2    0    0 -0.98730227718E+01 -0.13278314567E+02 -0.87687427983E+01  0.72461519640E+02  0.69999934014E+02 0.  0.
         12    1    1    2    0    0  0.98730227718E+01  0.13278314567E+02  0.87687427983E+01  0.18726480360E+02  0.00000000000E+00 0. -1.
         11    1    3    3    0    0 -0.42014877839E+01 -0.25756395134E+02  0.17496035979E+02  0.31419033485E+02  0.51100000000E-03 0. -1.
        -11    1    3    3    0    0 -0.17008723229E+02  0.10486470672E+02 -0.17717944725E+02  0.26705585532E+02  0.51100000000E-03 0.  1.
         12    1    3    3    0    0  0.11337188241E+02  0.19916098955E+01 -0.85468340515E+01  0.14336900624E+02  0.00000000000E+00 0. -1.
</event>
<event>
 7    1  0.1283194E-013  0.7246153E+02  0.7816164E-02  0.1226708E+00
        -11   -1    0    0    0    0  0.00000000000E+00  0.00000000000E+00  0.45593999997E+02  0.45594000000E+02  0.51100000000E-03 0.  1.
         11   -1    0    0    0    0 -0.00000000000E+00 -0.00000000000E+00 -0.45593999997E+02  0.45594000000E+02  0.51100000000E-03 0. -1.
    9900012    2    1    2    0    0 -0.52627806703E+01  0.16023236890E+02 -0.81387852173E+01  0.72461526610E+02  0.69999943093E+02 0.  0.
         12    1    1    2    0    0  0.52627806703E+01 -0.16023236890E+02  0.81387852173E+01  0.18726473390E+02  0.00000000000E+00 0. -1.
         11    1    3    3    0    0  0.10579526462E+02 -0.87954206276E+01  0.77136276302E+01  0.15772946955E+02  0.51100000000E-03 0. -1.
        -11    1    3    3    0    0 -0.29233576900E+02  0.17220896585E+02  0.89338602562E+00  0.33940527934E+02  0.51100000000E-03 0.  1.
         12    1    3    3    0    0  0.13391269768E+02  0.75977609322E+01 -0.16745798873E+02  0.22748051721E+02  0.00000000000E+00 0. -1.
</event>
<event>
 7    1  0.1283194E-013  0.7246184E+02  0.7816164E-02  0.1226707E+00
        -11   -1    0    0    0    0  0.00000000000E+00  0.00000000000E+00  0.45593999997E+02  0.45594000000E+02  0.51100000000E-03 0. -1.
         11   -1    0    0    0    0 -0.00000000000E+00 -0.00000000000E+00 -0.45593999997E+02  0.45594000000E+02  0.51100000000E-03 0.  1.
    9900012    2    1    2    0    0 -0.17260007031E+01  0.18637009080E+02 -0.59334576628E+00  0.72461835281E+02  0.70000345194E+02 0.  0.
         12    1    1    2    0    0  0.17260007031E+01 -0.18637009080E+02  0.59334576628E+00  0.18726164719E+02  0.00000000000E+00 0. -1.
         11    1    3    3    0    0 -0.81829821584E+01 -0.21730217115E+01 -0.21031204029E+01  0.87238945462E+01  0.51100000000E-03 0. -1.
        -11    1    3    3    0    0  0.30292047703E+02  0.53822164050E+01  0.12613261409E+02  0.33251628097E+02  0.51100000000E-03 0.  1.
        -12    1    3    3    0    0 -0.23835066247E+02  0.15427814387E+02 -0.11103486772E+02  0.30486312638E+02  0.00000000000E+00 0.  1.
</event>
<event>
 7    1  0.1283194E-013  0.7246157E+02  0.7816164E-02  0.1226708E+00
        -11   -1    0    0    0    0  0.00000000000E+00  0.00000000000E+00  0.45593999997E+02  0.45594000000E+02  0.51100000000E-03 0.  1.
         11   -1    0    0    0    0 -0.00000000000E+00 -0.00000000000E+00 -0.45593999997E+02  0.45594000000E+02  0.51100000000E-03 0. -1.
    9900012    2    1    2    0    0  0.10449747199E+02 -0.40609538120E+01  0.14999693064E+02  0.72461565359E+02  0.69999993570E+02 0.  0.
         12    1    1    2    0    0 -0.10449747199E+02  0.40609538120E+01 -0.14999693064E+02  0.18726434641E+02  0.00000000000E+00 0. -1.
         11    1    3    3    0    0 -0.20107839770E+02 -0.17896536009E+02 -0.68544497285E+01  0.27777593536E+02  0.51100000000E-03 0. -1.
        -11    1    3    3    0    0  0.12849993043E+02  0.14014982409E+02  0.18752729931E+02  0.26705934420E+02  0.51100000000E-03 0.  1.
         12    1    3    3    0    0  0.17707593926E+02 -0.17940021268E+00  0.31014128610E+01  0.17978037402E+02  0.00000000000E+00 0. -1.
</event>
<event>
 7    1  0.1283194E-013  0.7246156E+02  0.7816164E-02  0.1226708E+00
        -11   -1    0    0    0    0  0.00000000000E+00  0.00000000000E+00  0.45593999997E+02  0.45594000000E+02  0.51100000000E-03 0.  1.
         11   -1    0    0    0    0 -0.00000000000E+00 -0.00000000000E+00 -0.45593999997E+02  0.45594000000E+02  0.51100000000E-03 0. -1.
    9900012    2    1    2    0    0 -0.10938646535E+02  0.18714387960E+00  0.15198368580E+02  0.72461563651E+02  0.69999991346E+02 0.  0.
         12    1    1    2    0    0  0.10938646535E+02 -0.18714387960E+00 -0.15198368580E+02  0.18726436349E+02  0.00000000000E+00 0. -1.
         11    1    3    3    0    0  0.20966358087E+01 -0.15151688390E+02 -0.78140210356E+01  0.17176392747E+02  0.51100000000E-03 0. -1.
        -11    1    3    3    0    0 -0.29750030818E+02  0.13623750098E+02  0.19591762555E+02  0.38138013329E+02  0.51100000000E-03 0.  1.
        -12    1    3    3    0    0  0.16714748474E+02  0.17150821719E+01  0.34206270600E+01  0.17147157575E+02  0.00000000000E+00 0.  1.
</event>
<event>
 7    1  0.1283194E-013  0.7246157E+02  0.7816164E-02  0.1226708E+00
        -11   -1    0    0    0    0  0.00000000000E+00  0.00000000000E+00  0.45593999997E+02  0.45594000000E+02  0.51100000000E-03 0. -1.
         11   -1    0    0    0    0 -0.00000000000E+00 -0.00000000000E+00 -0.45593999997E+02  0.45594000000E+02  0.51100000000E-03 0.  1.
    9900012    2    1    2    0    0  0.11584117547E+02 -0.10649134940E+02 -0.10152997105E+02  0.72461569360E+02  0.69999998782E+02 0.  0.
         12    1    1    2    0    0 -0.11584117547E+02  0.10649134940E+02  0.10152997105E+02  0.18726430640E+02  0.00000000000E+00 0. -1.
         11    1    3    3    0    0 -0.67126080457E+00 -0.20419897181E+02  0.46382728183E+01  0.20950808265E+02  0.51100000000E-03 0. -1.
        -11    1    3    3    0    0  0.14903420954E+02 -0.13636546775E+01 -0.29377837979E+02  0.32970120939E+02  0.51100000000E-03 0.  1.
        -12    1    3    3    0    0 -0.26480426021E+01  0.11134416919E+02  0.14586568055E+02  0.18540640155E+02  0.00000000000E+00 0.  1.
</event>
<event>
 7    1  0.1283194E-013  0.7246161E+02  0.7816164E-02  0.1226708E+00
        -11   -1    0    0    0    0  0.00000000000E+00  0.00000000000E+00  0.45593999997E+02  0.45594000000E+02  0.51100000000E-03 0. -1.
         11   -1    0    0    0    0 -0.00000000000E+00 -0.00000000000E+00 -0.45593999997E+02  0.45594000000E+02  0.51100000000E-03 0.  1.
    9900012    2    1    2    0    0  0.82190212251E+01  0.11525910314E+01 -0.16786804208E+02  0.72461612962E+02  0.70000055582E+02 0.  0.
         12    1    1    2    0    0 -0.82190212251E+01 -0.11525910314E+01  0.16786804208E+02  0.18726387038E+02  0.00000000000E+00 0. -1.
         11    1    3    3    0    0  0.35144333723E+02 -0.10967385080E+02 -0.20161195146E+02  0.41974772403E+02  0.51100000000E-03 0.  1.
        -11    1    3    3    0    0 -0.22326059619E+02  0.80819864930E+01  0.56012376500E+00  0.23750477525E+02  0.51100000000E-03 0. -1.
         12    1    3    3    0    0 -0.45992528788E+01  0.40379896185E+01  0.28142671729E+01  0.67363630337E+01  0.00000000000E+00 0. -1.
</event>
<event>
 7    1  0.1283194E-013  0.7246167E+02  0.7816164E-02  0.1226708E+00
        -11   -1    0    0    0    0  0.00000000000E+00  0.00000000000E+00  0.45593999997E+02  0.45594000000E+02  0.51100000000E-03 0.  1.
         11   -1    0    0    0    0 -0.00000000000E+00 -0.00000000000E+00 -0.45593999997E+02  0.45594000000E+02  0.51100000000E-03 0. -1.
    9900012    2    1    2    0    0  0.13631558440E+02 -0.12788996544E+02 -0.11391037603E+01  0.72461671596E+02  0.70000131964E+02 0.  0.
         12    1    1    2    0    0 -0.13631558440E+02  0.12788996544E+02  0.11391037603E+01  0.18726328404E+02  0.00000000000E+00 0. -1.
         11    1    3    3    0    0  0.17922680685E+02 -0.24521979284E+02 -0.26573614485E+02  0.40357241457E+02  0.51100000000E-03 0. -1.
        -11    1    3    3    0    0 -0.37941967687E+01  0.74576208020E+01  0.26399204607E+02  0.27693501788E+02  0.51100000000E-03 0.  1.
         12    1    3    3    0    0 -0.49692547606E+00  0.42753619383E+01 -0.96469388300E+00  0.44109283512E+01  0.00000000000E+00 0. -1.
</event>
<event>
 7    1  0.1283194E-013  0.7246157E+02  0.7816164E-02  0.1226708E+00
        -11   -1    0    0    0    0  0.00000000000E+00  0.00000000000E+00  0.45593999997E+02  0.45594000000E+02  0.51100000000E-03 0.  1.
         11   -1    0    0    0    0 -0.00000000000E+00 -0.00000000000E+00 -0.45593999997E+02  0.45594000000E+02  0.51100000000E-03 0. -1.
    9900012    2    1    2    0    0  0.51648742412E+01  0.17971673928E+02  0.10109420933E+01  0.72461574991E+02  0.70000006119E+02 0.  0.
         12    1    1    2    0    0 -0.51648742412E+01 -0.17971673928E+02 -0.10109420933E+01  0.18726425009E+02  0.00000000000E+00 0. -1.
         11    1    3    3    0    0 -0.22550251963E+00  0.74534113516E+01 -0.35246286317E+01  0.82478602932E+01  0.51100000000E-03 0.  1.
        -11    1    3    3    0    0  0.68200446299E+00 -0.17555169411E+02 -0.20009206475E+02  0.26627381530E+02  0.51100000000E-03 0. -1.
        -12    1    3    3    0    0  0.47083722978E+01  0.28073431987E+02  0.24544777200E+02  0.37586333168E+02  0.00000000000E+00 0.  1.
</event>
<event>
 7    1  0.1283194E-013  0.7246158E+02  0.7816164E-02  0.1226708E+00
        -11   -1    0    0    0    0  0.00000000000E+00  0.00000000000E+00  0.45593999997E+02  0.45594000000E+02  0.51100000000E-03 0.  1.
         11   -1    0    0    0    0 -0.00000000000E+00 -0.00000000000E+00 -0.45593999997E+02  0.45594000000E+02  0.51100000000E-03 0. -1.
    9900012    2    1    2    0    0 -0.12855017106E+02  0.90761290352E+01  0.10151411632E+02  0.72461581732E+02  0.70000014899E+02 0.  0.
         12    1    1    2    0    0  0.12855017106E+02 -0.90761290352E+01 -0.10151411632E+02  0.18726418268E+02  0.00000000000E+00 0. -1.
         11    1    3    3    0    0 -0.13565274442E+02  0.34045335357E+02  0.19320058496E+02  0.41429050083E+02  0.51100000000E-03 0.  1.
        -11    1    3    3    0    0 -0.21165081532E+01 -0.12493629298E+02 -0.12515277188E+02  0.17810180885E+02  0.51100000000E-03 0. -1.
        -12    1    3    3    0    0  0.28267654895E+01 -0.12475577023E+02  0.33466303236E+01  0.13222350764E+02  0.00000000000E+00 0.  1.
</event>
<event>
 7    1  0.1283194E-013  0.7246152E+02  0.7816164E-02  0.1226708E+00
        -11   -1    0    0    0    0  0.00000000000E+00  0.00000000000E+00  0.45593999997E+02  0.45594000000E+02  0.51100000000E-03 0. -1.
         11   -1    0    0    0    0 -0.00000000000E+00 -0.00000000000E+00 -0.45593999997E+02  0.45594000000E+02  0.51100000000E-03 0.  1.
    9900012    2    1    2    0    0  0.17520016129E+02 -0.43258529336E+01  0.50017015421E+01  0.72461521765E+02  0.69999936782E+02 0.  0.
         12    1    1    2    0    0 -0.17520016129E+02  0.43258529336E+01 -0.50017015421E+01  0.18726478235E+02  0.00000000000E+00 0. -1.
         11    1    3    3    0    0  0.27011232879E+02  0.10261050911E+02 -0.23224554851E+02  0.37071226251E+02  0.51100000000E-03 0.  1.
        -11    1    3    3    0    0 -0.44229205100E+01 -0.15531169964E+02  0.20390383987E+02  0.26010521442E+02  0.51100000000E-03 0. -1.
        -12    1    3    3    0    0 -0.50682962404E+01  0.94426611899E+00  0.78358724063E+01  0.93797740726E+01  0.00000000000E+00 0.  1.
</event>
<event>
 7    1  0.1283194E-013  0.7246158E+02  0.7816164E-02  0.1226708E+00
        -11   -1    0    0    0    0  0.00000000000E+00  0.00000000000E+00  0.45593999997E+02  0.45594000000E+02  0.51100000000E-03 0. -1.
         11   -1    0    0    0    0 -0.00000000000E+00 -0.00000000000E+00 -0.45593999997E+02  0.45594000000E+02  0.51100000000E-03 0.  1.
    9900012    2    1    2    0    0  0.15854692091E+02 -0.53458363716E+01 -0.84100916695E+01  0.72461578300E+02  0.70000010429E+02 0.  0.
         12    1    1    2    0    0 -0.15854692091E+02  0.53458363716E+01  0.84100916695E+01  0.18726421700E+02  0.00000000000E+00 0. -1.
         11    1    3    3    0    0 -0.17795972269E+01  0.83321375776E+00  0.19156687451E+02  0.19257203479E+02  0.51100000000E-03 0. -1.
        -11    1    3    3    0    0  0.29580735893E+02  0.12382934025E+01 -0.25334406073E+02  0.38966465555E+02  0.51100000000E-03 0.  1.
        -12    1    3    3    0    0 -0.11946446575E+02 -0.74173435318E+01 -0.22323730474E+01  0.14237909266E+02  0.00000000000E+00 0.  1.
</event>
<event>
 7    1  0.1283194E-013  0.7246154E+02  0.7816164E-02  0.1226708E+00
        -11   -1    0    0    0    0  0.00000000000E+00  0.00000000000E+00  0.45593999997E+02  0.45594000000E+02  0.51100000000E-03 0. -1.
         11   -1    0    0    0    0 -0.00000000000E+00 -0.00000000000E+00 -0.45593999997E+02  0.45594000000E+02  0.51100000000E-03 0.  1.
    9900012    2    1    2    0    0 -0.13736359785E+02  0.94890034554E+00 -0.12692213425E+02  0.72461540814E+02  0.69999961596E+02 0.  0.
         12    1    1    2    0    0  0.13736359785E+02 -0.94890034554E+00  0.12692213425E+02  0.18726459186E+02  0.00000000000E+00 0. -1.
         11    1    3    3    0    0 -0.16343047019E+02 -0.61686700878E+01  0.11897510981E+02  0.21135241761E+02  0.51100000000E-03 0. -1.
        -11    1    3    3    0    0  0.23128543822E+02  0.50443958498E+00 -0.94963427108E+01  0.25007289412E+02  0.51100000000E-03 0.  1.
        -12    1    3    3    0    0 -0.20521856588E+02  0.66131308484E+01 -0.15093381695E+02  0.26319009640E+02  0.00000000000E+00 0.  1.
</event>
<event>
 7    1  0.1283194E-013  0.7246152E+02  0.7816164E-02  0.1226708E+00
        -11   -1    0    0    0    0  0.00000000000E+00  0.00000000000E+00  0.45593999997E+02  0.45594000000E+02  0.51100000000E-03 0.  1.
         11   -1    0    0    0    0 -0.00000000000E+00 -0.00000000000E+00 -0.45593999997E+02  0.45594000000E+02  0.51100000000E-03 0. -1.
    9900012    2    1    2    0    0  0.81183492966E+01 -0.13401649258E+02  0.10255207080E+02  0.72461519541E+02  0.69999933884E+02 0.  0.
         12    1    1    2    0    0 -0.81183492966E+01  0.13401649258E+02 -0.10255207080E+02  0.18726480459E+02  0.00000000000E+00 0. -1.
         11    1    3    3    0    0 -0.93492734867E+01 -0.84357045174E+01  0.32671048436E+02  0.35013817723E+02  0.51100000000E-03 0.  1.
        -11    1    3    3    0    0  0.20983530004E+02  0.30664197200E+01 -0.16520428915E+02  0.26881890431E+02  0.51100000000E-03 0. -1.
         12    1    3    3    0    0 -0.35159072208E+01 -0.80323644606E+01 -0.58954124402E+01  0.10565811386E+02  0.00000000000E+00 0. -1.
</event>
<event>
 7    1  0.1283194E-013  0.7246168E+02  0.7816164E-02  0.1226708E+00
        -11   -1    0    0    0    0  0.00000000000E+00  0.00000000000E+00  0.45593999997E+02  0.45594000000E+02  0.51100000000E-03 0.  1.
         11   -1    0    0    0    0 -0.00000000000E+00 -0.00000000000E+00 -0.45593999997E+02  0.45594000000E+02  0.51100000000E-03 0. -1.
    9900012    2    1    2    0    0 -0.47608107828E+01  0.10160526823E+02  0.14992449048E+02  0.72461677534E+02  0.70000139700E+02 0.  0.
         12    1    1    2    0    0  0.47608107828E+01 -0.10160526823E+02 -0.14992449048E+02  0.18726322466E+02  0.00000000000E+00 0. -1.
         11    1    3    3    0    0 -0.12418309858E+01 -0.24038364803E+02  0.14706017578E+02  0.28207305435E+02  0.51100000000E-03 0. -1.
        -11    1    3    3    0    0 -0.89280896233E+01  0.13095143858E+02  0.11662051401E+02  0.19677322484E+02  0.51100000000E-03 0.  1.
         12    1    3    3    0    0  0.54091098262E+01  0.21103747769E+02 -0.11375619931E+02  0.24577049616E+02  0.00000000000E+00 0. -1.
</event>
<event>
 7    1  0.1283194E-013  0.7246157E+02  0.7816164E-02  0.1226708E+00
        -11   -1    0    0    0    0  0.00000000000E+00  0.00000000000E+00  0.45593999997E+02  0.45594000000E+02  0.51100000000E-03 0. -1.
         11   -1    0    0    0    0 -0.00000000000E+00 -0.00000000000E+00 -0.45593999997E+02  0.45594000000E+02  0.51100000000E-03 0.  1.
    9900012    2    1    2    0    0  0.12084965256E+02  0.12761537628E+02 -0.64634440686E+01  0.72461565820E+02  0.69999994172E+02 0.  0.
         12    1    1    2    0    0 -0.12084965256E+02 -0.12761537628E+02  0.64634440686E+01  0.18726434180E+02  0.00000000000E+00 0. -1.
         11    1    3    3    0    0 -0.21319997376E+02  0.13556026376E+02  0.81368286178E+01  0.26542722532E+02  0.51100000000E-03 0. -1.
        -11    1    3    3    0    0  0.29076745987E+02  0.19862430541E+01  0.13336585541E+01  0.29175005811E+02  0.51100000000E-03 0.  1.
        -12    1    3    3    0    0  0.43282166448E+01 -0.27807318030E+01 -0.15933931240E+02  0.16743837477E+02  0.00000000000E+00 0.  1.
</event>
<event>
 8    1  0.1283194E-013  0.7246168E+02  0.7816164E-02  0.1226708E+00
        -11   -1    0    0    0    0  0.00000000000E+00  0.00000000000E+00  0.45593999997E+02  0.45594000000E+02  0.51100000000E-03 0. -1.
         11   -1    0    0    0    0 -0.00000000000E+00 -0.00000000000E+00 -0.45593999997E+02  0.45594000000E+02  0.51100000000E-03 0.  1.
    9900012    2    1    2    0    0 -0.46986930169E+01  0.63086596429E+01 -0.16994058147E+02  0.72461683895E+02  0.70000147986E+02 0.  0.
        -24    2    3    3    0    0  0.29173750284E+01 -0.50213489403E+01  0.16090523710E+01  0.49386820771E+02  0.49017792628E+02 0.  0.
         12    1    1    2    0    0  0.46986930169E+01 -0.63086596429E+01  0.16994058147E+02  0.18726316105E+02  0.00000000000E+00 0. -1.
         11    1    4    4    0    0 -0.25330359113E+01 -0.18030489165E+02  0.19450939127E+02  0.26643082472E+02  0.51100000000E-03 0. -1.
        -11    1    3    3    0    0 -0.76160680453E+01  0.11330008583E+02 -0.18603110518E+02  0.23074863124E+02  0.51100000000E-03 0.  1.
        -12    1    4    4    0    0  0.54504109397E+01  0.13009140225E+02 -0.17841886755E+02  0.22743738299E+02  0.00000000000E+00 0.  1.
</event>
<event>
 7    1  0.1283194E-013  0.7246174E+02  0.7816164E-02  0.1226708E+00
        -11   -1    0    0    0    0  0.00000000000E+00  0.00000000000E+00  0.45593999997E+02  0.45594000000E+02  0.51100000000E-03 0.  1.
         11   -1    0    0    0    0 -0.00000000000E+00 -0.00000000000E+00 -0.45593999997E+02  0.45594000000E+02  0.51100000000E-03 0. -1.
    9900012    2    1    2    0    0  0.12513238516E+02 -0.13421942052E+02  0.37340734968E+01  0.72461735784E+02  0.70000215580E+02 0.  0.
         12    1    1    2    0    0 -0.12513238516E+02  0.13421942052E+02 -0.37340734968E+01  0.18726264216E+02  0.00000000000E+00 0. -1.
         11    1    3    3    0    0  0.60229591017E+01  0.60652486284E+01  0.24763711666E+02  0.26197417679E+02  0.51100000000E-03 0. -1.
        -11    1    3    3    0    0  0.15808126903E+02 -0.24447530690E+02 -0.94805622151E+01  0.30617963570E+02  0.51100000000E-03 0.  1.
         12    1    3    3    0    0 -0.93178474879E+01  0.49603400097E+01 -0.11549075955E+02  0.15646354535E+02  0.00000000000E+00 0. -1.
</event>
<event>
 7    1  0.1283194E-013  0.7246100E+02  0.7816164E-02  0.1226710E+00
        -11   -1    0    0    0    0  0.00000000000E+00  0.00000000000E+00  0.45593999997E+02  0.45594000000E+02  0.51100000000E-03 0.  1.
         11   -1    0    0    0    0 -0.00000000000E+00 -0.00000000000E+00 -0.45593999997E+02  0.45594000000E+02  0.51100000000E-03 0. -1.
    9900012    2    1    2    0    0 -0.11403275853E+02 -0.27485463538E-01  0.14854800531E+02  0.72460999321E+02  0.69999256197E+02 0.  0.
         12    1    1    2    0    0  0.11403275853E+02  0.27485463538E-01 -0.14854800531E+02  0.18727000679E+02  0.00000000000E+00 0. -1.
         11    1    3    3    0    0 -0.11076883331E+02 -0.22567080749E+01 -0.11930083606E+01  0.11367204796E+02  0.51100000000E-03 0. -1.
        -11    1    3    3    0    0  0.23604460558E+01  0.18949749342E+02 -0.15956403563E+02  0.24885166679E+02  0.51100000000E-03 0.  1.
        -12    1    3    3    0    0 -0.26868385780E+01 -0.16720526731E+02  0.32004212454E+02  0.36208627846E+02  0.00000000000E+00 0.  1.
</event>
<event>
 7    1  0.1283194E-013  0.7246159E+02  0.7816164E-02  0.1226708E+00
        -11   -1    0    0    0    0  0.00000000000E+00  0.00000000000E+00  0.45593999997E+02  0.45594000000E+02  0.51100000000E-03 0.  1.
         11   -1    0    0    0    0 -0.00000000000E+00 -0.00000000000E+00 -0.45593999997E+02  0.45594000000E+02  0.51100000000E-03 0. -1.
    9900012    2    1    2    0    0  0.88568120118E+01 -0.38859229055E+00  0.16494982874E+02  0.72461585955E+02  0.70000020401E+02 0.  0.
         12    1    1    2    0    0 -0.88568120118E+01  0.38859229055E+00 -0.16494982874E+02  0.18726414045E+02  0.00000000000E+00 0. -1.
         11    1    3    3    0    0  0.44759723401E+01  0.11154828881E+02  0.19750166647E+02  0.23119983102E+02  0.51100000000E-03 0. -1.
        -11    1    3    3    0    0  0.13022435331E+02 -0.10453553563E+02 -0.22615243952E+02  0.28112450326E+02  0.51100000000E-03 0.  1.
        -12    1    3    3    0    0 -0.86415956593E+01 -0.10898676087E+01  0.19360060178E+02  0.21229152528E+02  0.00000000000E+00 0.  1.
</event>
<event>
 7    1  0.1283194E-013  0.7246157E+02  0.7816164E-02  0.1226708E+00
        -11   -1    0    0    0    0  0.00000000000E+00  0.00000000000E+00  0.45593999997E+02  0.45594000000E+02  0.51100000000E-03 0.  1.
         11   -1    0    0    0    0 -0.00000000000E+00 -0.00000000000E+00 -0.45593999997E+02  0.45594000000E+02  0.51100000000E-03 0. -1.
    9900012    2    1    2    0    0 -0.10220011831E+02  0.14478219908E+02 -0.60507617094E+01  0.72461569192E+02  0.69999998564E+02 0.  0.
         12    1    1    2    0    0  0.10220011831E+02 -0.14478219908E+02  0.60507617094E+01  0.18726430808E+02  0.00000000000E+00 0. -1.
         11    1    3    3    0    0  0.22105678027E+01  0.28546919199E+01 -0.24719572727E+02  0.24981856457E+02  0.51100000000E-03 0. -1.
        -11    1    3    3    0    0 -0.11520316053E+02  0.79327834617E+01  0.31303064229E+02  0.34285982059E+02  0.51100000000E-03 0.  1.
        -12    1    3    3    0    0 -0.91026358092E+00  0.36907445264E+01 -0.12634253211E+02  0.13193730676E+02  0.00000000000E+00 0.  1.
</event>
<event>
 7    1  0.1283194E-013  0.7246155E+02  0.7816164E-02  0.1226708E+00
        -11   -1    0    0    0    0  0.00000000000E+00  0.00000000000E+00  0.45593999997E+02  0.45594000000E+02  0.51100000000E-03 0.  1.
         11   -1    0    0    0    0 -0.00000000000E+00 -0.00000000000E+00 -0.45593999997E+02  0.45594000000E+02  0.51100000000E-03 0. -1.
    9900012    2    1    2    0    0 -0.16711721042E+02 -0.20992936332E+01 -0.81848154283E+01  0.72461551924E+02  0.69999976069E+02 0.  0.
         12    1    1    2    0    0  0.16711721042E+02  0.20992936332E+01  0.81848154283E+01  0.18726448076E+02  0.00000000000E+00 0. -1.
         11    1    3    3    0    0 -0.12450752537E+01  0.11358491981E+02 -0.32505285353E+02  0.34455175643E+02  0.51100000000E-03 0. -1.
        -11    1    3    3    0    0 -0.11118746480E+01 -0.87106209371E+01  0.20662129297E+02  0.22450718690E+02  0.51100000000E-03 0.  1.
         12    1    3    3    0    0 -0.14354771140E+02 -0.47471646769E+01  0.36583406273E+01  0.15555657592E+02  0.00000000000E+00 0. -1.
</event>
<event>
 7    1  0.1283194E-013  0.7246157E+02  0.7816164E-02  0.1226708E+00
        -11   -1    0    0    0    0  0.00000000000E+00  0.00000000000E+00  0.45593999997E+02  0.45594000000E+02  0.51100000000E-03 0. -1.
         11   -1    0    0    0    0 -0.00000000000E+00 -0.00000000000E+00 -0.45593999997E+02  0.45594000000E+02  0.51100000000E-03 0.  1.
    9900012    2    1    2    0    0 -0.14274105259E+02 -0.11809000269E+02  0.27343671432E+01  0.72461565957E+02  0.69999994349E+02 0.  0.
         12    1    1    2    0    0  0.14274105259E+02  0.11809000269E+02 -0.27343671432E+01  0.18726434043E+02  0.00000000000E+00 0. -1.
         11    1    3    3    0    0  0.56889632407E+01 -0.94053323566E+00 -0.42532240364E+01  0.71651113381E+01  0.51100000000E-03 0. -1.
        -11    1    3    3    0    0 -0.13926345931E+02 -0.31351129295E+01  0.33829468462E+02  0.36717910899E+02  0.51100000000E-03 0.  1.
        -12    1    3    3    0    0 -0.60367225691E+01 -0.77333541037E+01 -0.26841877283E+02  0.28578543720E+02  0.00000000000E+00 0.  1.
</event>
<event>
 7    1  0.1283194E-013  0.7246155E+02  0.7816164E-02  0.1226708E+00
        -11   -1    0    0    0    0  0.00000000000E+00  0.00000000000E+00  0.45593999997E+02  0.45594000000E+02  0.51100000000E-03 0. -1.
         11   -1    0    0    0    0 -0.00000000000E+00 -0.00000000000E+00 -0.45593999997E+02  0.45594000000E+02  0.51100000000E-03 0.  1.
    9900012    2    1    2    0    0  0.95350980831E+01  0.33159091867E+01 -0.15772331979E+02  0.72461553320E+02  0.69999977888E+02 0.  0.
         12    1    1    2    0    0 -0.95350980831E+01 -0.33159091867E+01  0.15772331979E+02  0.18726446680E+02  0.00000000000E+00 0. -1.
         11    1    3    3    0    0  0.32103268640E+02 -0.13989839744E+02 -0.72780605622E+01  0.35767382337E+02  0.51100000000E-03 0. -1.
        -11    1    3    3    0    0 -0.90423820440E+01  0.17668084422E+02 -0.11352506450E+02  0.22864935669E+02  0.51100000000E-03 0.  1.
         12    1    3    3    0    0 -0.13525788513E+02 -0.36233549116E+00  0.28582350338E+01  0.13829235315E+02  0.00000000000E+00 0. -1.
</event>
<event>
 7    1  0.1283194E-013  0.7246159E+02  0.7816164E-02  0.1226708E+00
        -11   -1    0    0    0    0  0.00000000000E+00  0.00000000000E+00  0.45593999997E+02  0.45594000000E+02  0.51100000000E-03 0.  1.
         11   -1    0    0    0    0 -0.00000000000E+00 -0.00000000000E+00 -0.45593999997E+02  0.45594000000E+02  0.51100000000E-03 0. -1.
    9900012    2    1    2    0    0  0.15112734245E+01 -0.59348407808E+01  0.17696672379E+02  0.72461588284E+02  0.70000023435E+02 0.  0.
         12    1    1    2    0    0 -0.15112734245E+01  0.59348407808E+01 -0.17696672379E+02  0.18726411716E+02  0.00000000000E+00 0. -1.
         11    1    3    3    0    0  0.25612332491E+01  0.26025886321E+02  0.19584062227E+02  0.32671733473E+02  0.51100000000E-03 0. -1.
        -11    1    3    3    0    0 -0.20079083387E+01 -0.12929529403E+02  0.10742142064E+02  0.16929206800E+02  0.51100000000E-03 0.  1.
         12    1    3    3    0    0  0.95794851411E+00 -0.19031197698E+02 -0.12629531913E+02  0.22860648012E+02  0.00000000000E+00 0. -1.
</event>
<event>
 7    1  0.1283194E-013  0.7246157E+02  0.7816164E-02  0.1226708E+00
        -11   -1    0    0    0    0  0.00000000000E+00  0.00000000000E+00  0.45593999997E+02  0.45594000000E+02  0.51100000000E-03 0.  1.
         11   -1    0    0    0    0 -0.00000000000E+00 -0.00000000000E+00 -0.45593999997E+02  0.45594000000E+02  0.51100000000E-03 0. -1.
    9900012    2    1    2    0    0 -0.15688289448E+02  0.85649903674E+01  0.55855009107E+01  0.72461566644E+02  0.69999995245E+02 0.  0.
         12    1    1    2    0    0  0.15688289448E+02 -0.85649903674E+01 -0.55855009107E+01  0.18726433356E+02  0.00000000000E+00 0. -1.
         11    1    3    3    0    0 -0.19724834415E+01  0.15572762461E+02 -0.10155789898E+02  0.18696034079E+02  0.51100000000E-03 0.  1.
        -11    1    3    3    0    0 -0.27005253713E+02 -0.11669124412E+02 -0.38161972535E+01  0.29665056116E+02  0.51100000000E-03 0. -1.
        -12    1    3    3    0    0  0.13289447706E+02  0.46613523183E+01  0.19557488062E+02  0.24100476449E+02  0.00000000000E+00 0.  1.
</event>
<event>
 7    1  0.1283194E-013  0.7246147E+02  0.7816164E-02  0.1226708E+00
        -11   -1    0    0    0    0  0.00000000000E+00  0.00000000000E+00  0.45593999997E+02  0.45594000000E+02  0.51100000000E-03 0.  1.
         11   -1    0    0    0    0 -0.00000000000E+00 -0.00000000000E+00 -0.45593999997E+02  0.45594000000E+02  0.51100000000E-03 0. -1.
    9900012    2    1    2    0    0 -0.48746864281E+01 -0.15703908739E+02 -0.89614448006E+01  0.72461473083E+02  0.69999873364E+02 0.  0.
         12    1    1    2    0    0  0.48746864281E+01  0.15703908739E+02  0.89614448006E+01  0.18726526917E+02  0.00000000000E+00 0. -1.
         11    1    3    3    0    0  0.26410731109E+02 -0.20971490021E+01 -0.24777861165E+01  0.26609475304E+02  0.51100000000E-03 0. -1.
        -11    1    3    3    0    0 -0.18955316132E+02 -0.12980921221E+02 -0.17832231347E+02  0.29082585863E+02  0.51100000000E-03 0.  1.
        -12    1    3    3    0    0 -0.12330101405E+02 -0.62583851622E+00  0.11348572663E+02  0.16769411916E+02  0.00000000000E+00 0.  1.
</event>
<event>
 7    1  0.1283194E-013  0.7246157E+02  0.7816164E-02  0.1226708E+00
        -11   -1    0    0    0    0  0.00000000000E+00  0.00000000000E+00  0.45593999997E+02  0.45594000000E+02  0.51100000000E-03 0.  1.
         11   -1    0    0    0    0 -0.00000000000E+00 -0.00000000000E+00 -0.45593999997E+02  0.45594000000E+02  0.51100000000E-03 0. -1.
    9900012    2    1    2    0    0  0.15199009916E+02  0.99592133012E+00  0.10893924278E+02  0.72461565532E+02  0.69999993796E+02 0.  0.
         12    1    1    2    0    0 -0.15199009916E+02 -0.99592133012E+00 -0.10893924278E+02  0.18726434468E+02  0.00000000000E+00 0. -1.
         11    1    3    3    0    0  0.46360784599E+01  0.69139985848E+01 -0.64621409581E+01  0.10538304700E+02  0.51100000000E-03 0. -1.
        -11    1    3    3    0    0  0.82527816120E+01  0.13648959667E+02  0.33073879573E+02  0.36718987113E+02  0.51100000000E-03 0.  1.
        -12    1    3    3    0    0  0.23101498437E+01 -0.19567036921E+02 -0.15717814337E+02  0.25204273720E+02  0.00000000000E+00 0.  1.
</event>
<event>
 7    1  0.1283194E-013  0.7246134E+02  0.7816164E-02  0.1226709E+00
        -11   -1    0    0    0    0  0.00000000000E+00  0.00000000000E+00  0.45593999997E+02  0.45594000000E+02  0.51100000000E-03 0.  1.
         11   -1    0    0    0    0 -0.00000000000E+00 -0.00000000000E+00 -0.45593999997E+02  0.45594000000E+02  0.51100000000E-03 0. -1.
    9900012    2    1    2    0    0 -0.77871428768E+01 -0.12742184500E+02  0.11299775294E+02  0.72461340349E+02  0.69999700453E+02 0.  0.
         12    1    1    2    0    0  0.77871428768E+01  0.12742184500E+02 -0.11299775294E+02  0.18726659651E+02  0.00000000000E+00 0. -1.
         11    1    3    3    0    0 -0.37389974846E+01  0.14694669870E+02 -0.13289139842E+02  0.20162208778E+02  0.51100000000E-03 0. -1.
        -11    1    3    3    0    0  0.49375188818E+01 -0.12419732477E+02  0.30923188690E+02  0.33687867943E+02  0.51100000000E-03 0.  1.
         12    1    3    3    0    0 -0.89856642740E+01 -0.15017121893E+02 -0.63342735544E+01  0.18611263629E+02  0.00000000000E+00 0. -1.
</event>
<event>
 7    1  0.1283194E-013  0.7246160E+02  0.7816164E-02  0.1226708E+00
        -11   -1    0    0    0    0  0.00000000000E+00  0.00000000000E+00  0.45593999997E+02  0.45594000000E+02  0.51100000000E-03 0. -1.
         11   -1    0    0    0    0 -0.00000000000E+00 -0.00000000000E+00 -0.45593999997E+02  0.45594000000E+02  0.51100000000E-03 0.  1.
    9900012    2    1    2    0    0  0.70500286474E+00  0.18566149964E+02 -0.23407356733E+01  0.72461601601E+02  0.70000040782E+02 0.  0.
         12    1    1    2    0    0 -0.70500286474E+00 -0.18566149964E+02  0.23407356733E+01  0.18726398399E+02  0.00000000000E+00 0. -1.
         11    1    3    3    0    0 -0.74852931172E+01 -0.17372607774E+02  0.88003928239E+01  0.20863461554E+02  0.51100000000E-03 0. -1.
        -11    1    3    3    0    0  0.20415968428E+02  0.15982572011E+02 -0.11076426308E+02  0.28194708634E+02  0.51100000000E-03 0.  1.
        -12    1    3    3    0    0 -0.12225672446E+02  0.19956185726E+02 -0.64702189259E-01  0.23403431413E+02  0.00000000000E+00 0.  1.
</event>
<event>
 7    1  0.1283194E-013  0.7246155E+02  0.7816164E-02  0.1226708E+00
        -11   -1    0    0    0    0  0.00000000000E+00  0.00000000000E+00  0.45593999997E+02  0.45594000000E+02  0.51100000000E-03 0.  1.
         11   -1    0    0    0    0 -0.00000000000E+00 -0.00000000000E+00 -0.45593999997E+02  0.45594000000E+02  0.51100000000E-03 0. -1.
    9900012    2    1    2    0    0  0.23318786588E+01  0.12484046444E+02  0.13761931185E+02  0.72461552829E+02  0.69999977248E+02 0.  0.
         12    1    1    2    0    0 -0.23318786588E+01 -0.12484046444E+02 -0.13761931185E+02  0.18726447171E+02  0.00000000000E+00 0. -1.
         11    1    3    3    0    0  0.24688537756E+02 -0.54622119472E+01  0.24466950581E+02  0.35185100922E+02  0.51100000000E-03 0.  1.
        -11    1    3    3    0    0 -0.22811424852E+02  0.13023012753E+02 -0.88499090266E+00  0.26281993343E+02  0.51100000000E-03 0. -1.
        -12    1    3    3    0    0  0.45476575431E+00  0.49232456380E+01 -0.98200284929E+01  0.10994458564E+02  0.00000000000E+00 0.  1.
</event>
<event>
 7    1  0.1283194E-013  0.7246156E+02  0.7816164E-02  0.1226708E+00
        -11   -1    0    0    0    0  0.00000000000E+00  0.00000000000E+00  0.45593999997E+02  0.45594000000E+02  0.51100000000E-03 0.  1.
         11   -1    0    0    0    0 -0.00000000000E+00 -0.00000000000E+00 -0.45593999997E+02  0.45594000000E+02  0.51100000000E-03 0. -1.
    9900012    2    1    2    0    0 -0.10541345340E+02  0.14219839891E+01  0.15412248019E+02  0.72461564433E+02  0.69999992365E+02 0.  0.
         12    1    1    2    0    0  0.10541345340E+02 -0.14219839891E+01 -0.15412248019E+02  0.18726435567E+02  0.00000000000E+00 0. -1.
         11    1    3    3    0    0 -0.13850088206E+02 -0.57639973641E+01 -0.23964524659E+02  0.28272726281E+02  0.51100000000E-03 0. -1.
        -11    1    3    3    0    0  0.67753799272E+01  0.11957022192E+02  0.31335034711E+02  0.34216378439E+02  0.51100000000E-03 0.  1.
         12    1    3    3    0    0 -0.34666370612E+01 -0.47710408389E+01  0.80417379675E+01  0.99724597135E+01  0.00000000000E+00 0. -1.
</event>
<event>
 7    1  0.1283194E-013  0.7246157E+02  0.7816164E-02  0.1226708E+00
        -11   -1    0    0    0    0  0.00000000000E+00  0.00000000000E+00  0.45593999997E+02  0.45594000000E+02  0.51100000000E-03 0.  1.
         11   -1    0    0    0    0 -0.00000000000E+00 -0.00000000000E+00 -0.45593999997E+02  0.45594000000E+02  0.51100000000E-03 0. -1.
    9900012    2    1    2    0    0  0.17672426520E+02 -0.58146438789E+01  0.21341383046E+01  0.72461567108E+02  0.69999995849E+02 0.  0.
         12    1    1    2    0    0 -0.17672426520E+02  0.58146438789E+01 -0.21341383046E+01  0.18726432892E+02  0.00000000000E+00 0. -1.
         11    1    3    3    0    0  0.29523238521E+02  0.78094451581E+01 -0.20881195739E+01  0.30609954101E+02  0.51100000000E-03 0. -1.
        -11    1    3    3    0    0 -0.19236908193E+02 -0.19606656423E+02 -0.57628608361E+01  0.28065818680E+02  0.51100000000E-03 0.  1.
        -12    1    3    3    0    0  0.73860961929E+01  0.59825673855E+01  0.99851187147E+01  0.13785794327E+02  0.00000000000E+00 0.  1.
</event>
<event>
 7    1  0.1283194E-013  0.7246162E+02  0.7816164E-02  0.1226708E+00
        -11   -1    0    0    0    0  0.00000000000E+00  0.00000000000E+00  0.45593999997E+02  0.45594000000E+02  0.51100000000E-03 0. -1.
         11   -1    0    0    0    0 -0.00000000000E+00 -0.00000000000E+00 -0.45593999997E+02  0.45594000000E+02  0.51100000000E-03 0.  1.
    9900012    2    1    2    0    0 -0.93489896768E+01  0.15762763123E+02 -0.38482247573E+01  0.72461624402E+02  0.70000070485E+02 0.  0.
         12    1    1    2    0    0  0.93489896768E+01 -0.15762763123E+02  0.38482247573E+01  0.18726375598E+02  0.00000000000E+00 0. -1.
         11    1    3    3    0    0 -0.27923002151E+02  0.46792021093E+01  0.10337161540E+02  0.30140436136E+02  0.51100000000E-03 0. -1.
        -11    1    3    3    0    0  0.19896905526E+01  0.81624556036E+01 -0.22152376020E+02  0.23692030592E+02  0.51100000000E-03 0.  1.
         12    1    3    3    0    0  0.16584321921E+02  0.29211054103E+01  0.79669897224E+01  0.18629157674E+02  0.00000000000E+00 0. -1.
</event>
<event>
 7    1  0.1283194E-013  0.7246160E+02  0.7816164E-02  0.1226708E+00
        -11   -1    0    0    0    0  0.00000000000E+00  0.00000000000E+00  0.45593999997E+02  0.45594000000E+02  0.51100000000E-03 0. -1.
         11   -1    0    0    0    0 -0.00000000000E+00 -0.00000000000E+00 -0.45593999997E+02  0.45594000000E+02  0.51100000000E-03 0.  1.
    9900012    2    1    2    0    0  0.15500538464E+02 -0.10498803869E+02 -0.43194694247E+00  0.72461597422E+02  0.70000035339E+02 0.  0.
         12    1    1    2    0    0 -0.15500538464E+02  0.10498803869E+02  0.43194694247E+00  0.18726402578E+02  0.00000000000E+00 0. -1.
         11    1    3    3    0    0  0.21683885780E+02  0.47118567267E+01 -0.16603563028E+02  0.27714090312E+02  0.51100000000E-03 0. -1.
        -11    1    3    3    0    0 -0.99414575497E+01 -0.23388635131E+02 -0.92064967613E+00  0.25430462591E+02  0.51100000000E-03 0.  1.
         12    1    3    3    0    0  0.37581102338E+01  0.81779745361E+01  0.17092265762E+02  0.19317044518E+02  0.00000000000E+00 0. -1.
</event>
<event>
 7    1  0.1283194E-013  0.7246156E+02  0.7816164E-02  0.1226708E+00
        -11   -1    0    0    0    0  0.00000000000E+00  0.00000000000E+00  0.45593999997E+02  0.45594000000E+02  0.51100000000E-03 0. -1.
         11   -1    0    0    0    0 -0.00000000000E+00 -0.00000000000E+00 -0.45593999997E+02  0.45594000000E+02  0.51100000000E-03 0.  1.
    9900012    2    1    2    0    0  0.11296570635E+02  0.10819530522E+02 -0.10295864067E+02  0.72461559716E+02  0.69999986220E+02 0.  0.
         12    1    1    2    0    0 -0.11296570635E+02 -0.10819530522E+02  0.10295864067E+02  0.18726440284E+02  0.00000000000E+00 0. -1.
         11    1    3    3    0    0  0.17366297163E+02  0.33330516375E+02 -0.18876211113E+02  0.42057376823E+02  0.51100000000E-03 0.  1.
        -11    1    3    3    0    0 -0.99533547053E+01 -0.23156527661E+02  0.78579332838E+01  0.26401537057E+02  0.51100000000E-03 0. -1.
         12    1    3    3    0    0  0.38836281776E+01  0.64554180819E+00  0.72241376229E+00  0.40026458364E+01  0.00000000000E+00 0. -1.
</event>
<event>
 7    1  0.1283194E-013  0.7246157E+02  0.7816164E-02  0.1226708E+00
        -11   -1    0    0    0    0  0.00000000000E+00  0.00000000000E+00  0.45593999997E+02  0.45594000000E+02  0.51100000000E-03 0.  1.
         11   -1    0    0    0    0 -0.00000000000E+00 -0.00000000000E+00 -0.45593999997E+02  0.45594000000E+02  0.51100000000E-03 0. -1.
    9900012    2    1    2    0    0 -0.80699896642E+01  0.16202553858E+02  0.47991250329E+01  0.72461572530E+02  0.70000002913E+02 0.  0.
         12    1    1    2    0    0  0.80699896642E+01 -0.16202553858E+02 -0.47991250329E+01  0.18726427470E+02  0.00000000000E+00 0. -1.
         11    1    3    3    0    0  0.16124465282E+02 -0.12579328270E+02 -0.41400231072E+01  0.20865705642E+02  0.51100000000E-03 0. -1.
        -11    1    3    3    0    0 -0.13994645985E+02  0.18420509937E+02  0.22093557494E+02  0.31988913479E+02  0.51100000000E-03 0.  1.
         12    1    3    3    0    0 -0.10199808962E+02  0.10361372191E+02 -0.13154409354E+02  0.19606953409E+02  0.00000000000E+00 0. -1.
</event>
<event>
 7    1  0.1283194E-013  0.7246154E+02  0.7816164E-02  0.1226708E+00
        -11   -1    0    0    0    0  0.00000000000E+00  0.00000000000E+00  0.45593999997E+02  0.45594000000E+02  0.51100000000E-03 0.  1.
         11   -1    0    0    0    0 -0.00000000000E+00 -0.00000000000E+00 -0.45593999997E+02  0.45594000000E+02  0.51100000000E-03 0. -1.
    9900012    2    1    2    0    0 -0.56045714234E+01  0.87934776449E+01  0.15554549173E+02  0.72461535574E+02  0.69999954770E+02 0.  0.
         12    1    1    2    0    0  0.56045714234E+01 -0.87934776449E+01 -0.15554549173E+02  0.18726464426E+02  0.00000000000E+00 0. -1.
         11    1    3    3    0    0 -0.47556932754E+01  0.16846091183E+01 -0.84362411077E+01  0.98297858929E+01  0.51100000000E-03 0. -1.
        -11    1    3    3    0    0  0.19836428193E+02 -0.16264069095E+02  0.16608183966E+02  0.30558723826E+02  0.51100000000E-03 0.  1.
        -12    1    3    3    0    0 -0.20685306341E+02  0.23372937622E+02  0.73826063144E+01  0.32073025855E+02  0.00000000000E+00 0.  1.
</event>
<event>
 7    1  0.1283194E-013  0.7246157E+02  0.7816164E-02  0.1226708E+00
        -11   -1    0    0    0    0  0.00000000000E+00  0.00000000000E+00  0.45593999997E+02  0.45594000000E+02  0.51100000000E-03 0.  1.
         11   -1    0    0    0    0 -0.00000000000E+00 -0.00000000000E+00 -0.45593999997E+02  0.45594000000E+02  0.51100000000E-03 0. -1.
    9900012    2    1    2    0    0  0.37004989668E+01  0.85521773705E+01  0.16243332990E+02  0.72461566890E+02  0.69999995566E+02 0.  0.
         12    1    1    2    0    0 -0.37004989668E+01 -0.85521773705E+01 -0.16243332990E+02  0.18726433110E+02  0.00000000000E+00 0. -1.
         11    1    3    3    0    0  0.14830252875E+02 -0.38024408018E+01 -0.20641672323E+02  0.25699680795E+02  0.51100000000E-03 0. -1.
        -11    1    3    3    0    0 -0.80922075994E+01  0.10498971424E+02  0.42310894121E+01  0.13914537099E+02  0.51100000000E-03 0.  1.
         12    1    3    3    0    0 -0.30375463093E+01  0.18556467478E+01  0.32653915901E+02  0.32847348997E+02  0.00000000000E+00 0. -1.
</event>
<event>
 7    1  0.1283194E-013  0.7246157E+02  0.7816164E-02  0.1226708E+00
        -11   -1    0    0    0    0  0.00000000000E+00  0.00000000000E+00  0.45593999997E+02  0.45594000000E+02  0.51100000000E-03 0.  1.
         11   -1    0    0    0    0 -0.00000000000E+00 -0.00000000000E+00 -0.45593999997E+02  0.45594000000E+02  0.51100000000E-03 0. -1.
    9900012    2    1    2    0    0 -0.11273105173E+02 -0.14002902896E+02 -0.52454574676E+01  0.72461574452E+02  0.70000005417E+02 0.  0.
         12    1    1    2    0    0  0.11273105173E+02  0.14002902896E+02  0.52454574676E+01  0.18726425548E+02  0.00000000000E+00 0. -1.
         11    1    3    3    0    0 -0.73167974050E+00 -0.11859629537E+02 -0.80711610032E+01  0.14364184913E+02  0.51100000000E-03 0. -1.
        -11    1    3    3    0    0  0.50162744185E+01  0.60766382732E+01  0.27040235815E+02  0.28164923130E+02  0.51100000000E-03 0.  1.
        -12    1    3    3    0    0 -0.15557699851E+02 -0.82199116313E+01 -0.24214532279E+02  0.29932466410E+02  0.00000000000E+00 0.  1.
</event>
<event>
 7    1  0.1283194E-013  0.7246155E+02  0.7816164E-02  0.1226708E+00
        -11   -1    0    0    0    0  0.00000000000E+00  0.00000000000E+00  0.45593999997E+02  0.45594000000E+02  0.51100000000E-03 0. -1.
         11   -1    0    0    0    0 -0.00000000000E+00 -0.00000000000E+00 -0.45593999997E+02  0.45594000000E+02  0.51100000000E-03 0.  1.
    9900012    2    1    2    0    0 -0.12605925009E+02  0.12820175357E+02 -0.52357965046E+01  0.72461553286E+02  0.69999977843E+02 0.  0.
         12    1    1    2    0    0  0.12605925009E+02 -0.12820175357E+02  0.52357965046E+01  0.18726446714E+02  0.00000000000E+00 0. -1.
         11    1    3    3    0    0 -0.18100247514E+02  0.20847817409E+02  0.17212204636E+02  0.32534757406E+02  0.51100000000E-03 0. -1.
        -11    1    3    3    0    0  0.30061874976E+01  0.12237292343E+02 -0.84619652635E+01  0.15178713501E+02  0.51100000000E-03 0.  1.
         12    1    3    3    0    0  0.24881350071E+01 -0.20264934395E+02 -0.13986035877E+02  0.24748082379E+02  0.00000000000E+00 0. -1.
</event>
<event>
 7    1  0.1283194E-013  0.7246156E+02  0.7816164E-02  0.1226708E+00
        -11   -1    0    0    0    0  0.00000000000E+00  0.00000000000E+00  0.45593999997E+02  0.45594000000E+02  0.51100000000E-03 0.  1.
         11   -1    0    0    0    0 -0.00000000000E+00 -0.00000000000E+00 -0.45593999997E+02  0.45594000000E+02  0.51100000000E-03 0. -1.
    9900012    2    1    2    0    0 -0.10478165416E+02  0.14861286795E+02  0.44754428827E+01  0.72461564550E+02  0.69999992516E+02 0.  0.
         12    1    1    2    0    0  0.10478165416E+02 -0.14861286795E+02 -0.44754428827E+01  0.18726435450E+02  0.00000000000E+00 0. -1.
         11    1    3    3    0    0  0.21982613280E+02  0.57242048808E+01  0.31924537946E+01  0.22938909513E+02  0.51100000000E-03 0. -1.
        -11    1    3    3    0    0 -0.25824606533E+02  0.20310597643E+02 -0.76743780779E+01  0.33739098363E+02  0.51100000000E-03 0.  1.
        -12    1    3    3    0    0 -0.66361721631E+01 -0.11173515729E+02  0.89573671661E+01  0.15783556674E+02  0.00000000000E+00 0.  1.
</event>
<event>
 7    1  0.1283194E-013  0.7246148E+02  0.7816164E-02  0.1226708E+00
        -11   -1    0    0    0    0  0.00000000000E+00  0.00000000000E+00  0.45593999997E+02  0.45594000000E+02  0.51100000000E-03 0.  1.
         11   -1    0    0    0    0 -0.00000000000E+00 -0.00000000000E+00 -0.45593999997E+02  0.45594000000E+02  0.51100000000E-03 0. -1.
    9900012    2    1    2    0    0 -0.11545910783E+01  0.16241220876E+02  0.92505217934E+01  0.72461481649E+02  0.69999884523E+02 0.  0.
         12    1    1    2    0    0  0.11545910783E+01 -0.16241220876E+02 -0.92505217934E+01  0.18726518351E+02  0.00000000000E+00 0. -1.
         11    1    3    3    0    0  0.14876586831E+02  0.10669945364E+02  0.29742373182E+01  0.18547416470E+02  0.51100000000E-03 0. -1.
        -11    1    3    3    0    0 -0.16114402786E+02  0.16664153039E+01  0.27725800197E+02  0.32111850055E+02  0.51100000000E-03 0.  1.
        -12    1    3    3    0    0  0.83224877156E-01  0.39048602084E+01 -0.21449515722E+02  0.21802215124E+02  0.00000000000E+00 0.  1.
</event>
<event>
 7    1  0.1283194E-013  0.7246158E+02  0.7816164E-02  0.1226708E+00
        -11   -1    0    0    0    0  0.00000000000E+00  0.00000000000E+00  0.45593999997E+02  0.45594000000E+02  0.51100000000E-03 0.  1.
         11   -1    0    0    0    0 -0.00000000000E+00 -0.00000000000E+00 -0.45593999997E+02  0.45594000000E+02  0.51100000000E-03 0. -1.
    9900012    2    1    2    0    0  0.15432544848E+02 -0.10420542509E+02 -0.19818271914E+01  0.72461580542E+02  0.70000013350E+02 0.  0.
         12    1    1    2    0    0 -0.15432544848E+02  0.10420542509E+02  0.19818271914E+01  0.18726419458E+02  0.00000000000E+00 0. -1.
         11    1    3    3    0    0 -0.14881109642E+02 -0.23341232643E+02 -0.34475542809E+01  0.27895271934E+02  0.51100000000E-03 0. -1.
        -11    1    3    3    0    0  0.22783915681E+02 -0.36475394290E+01 -0.75217396515E+01  0.24269073433E+02  0.51100000000E-03 0.  1.
         12    1    3    3    0    0  0.75297388096E+01  0.16568229563E+02  0.89874667410E+01  0.20297235176E+02  0.00000000000E+00 0. -1.
</event>
<event>
 7    1  0.1283194E-013  0.7246158E+02  0.7816164E-02  0.1226708E+00
        -11   -1    0    0    0    0  0.00000000000E+00  0.00000000000E+00  0.45593999997E+02  0.45594000000E+02  0.51100000000E-03 0.  1.
         11   -1    0    0    0    0 -0.00000000000E+00 -0.00000000000E+00 -0.45593999997E+02  0.45594000000E+02  0.51100000000E-03 0. -1.
    9900012    2    1    2    0    0  0.29552006989E+01 -0.16493140473E+02  0.83619420433E+01  0.72461575660E+02  0.70000006990E+02 0.  0.
         12    1    1    2    0    0 -0.29552006989E+01  0.16493140473E+02 -0.83619420433E+01  0.18726424340E+02  0.00000000000E+00 0. -1.
         11    1    3    3    0    0 -0.96407446187E+00  0.18147596636E+02 -0.13410078290E+02  0.22585280677E+02  0.51100000000E-03 0. -1.
        -11    1    3    3    0    0 -0.11146447757E+01 -0.12444661205E+02  0.23949333318E+02  0.27012637637E+02  0.51100000000E-03 0.  1.
        -12    1    3    3    0    0  0.50339199365E+01 -0.22196075903E+02 -0.21773129838E+01  0.22863657346E+02  0.00000000000E+00 0.  1.
</event>
<event>
 7    1  0.1283194E-013  0.7246153E+02  0.7816164E-02  0.1226708E+00
        -11   -1    0    0    0    0  0.00000000000E+00  0.00000000000E+00  0.45593999997E+02  0.45594000000E+02  0.51100000000E-03 0. -1.
         11   -1    0    0    0    0 -0.00000000000E+00 -0.00000000000E+00 -0.45593999997E+02  0.45594000000E+02  0.51100000000E-03 0.  1.
    9900012    2    1    2    0    0  0.99079678855E+01  0.71809288953E+01  0.14175582464E+02  0.72461529281E+02  0.69999946572E+02 0.  0.
         12    1    1    2    0    0 -0.99079678855E+01 -0.71809288953E+01 -0.14175582464E+02  0.18726470719E+02  0.00000000000E+00 0. -1.
         11    1    3    3    0    0 -0.24690873148E+02 -0.37095051271E+01  0.14425839143E+02  0.28835819398E+02  0.51100000000E-03 0. -1.
        -11    1    3    3    0    0  0.36639371645E+02  0.66662688259E+01 -0.42214236937E+01  0.37479369163E+02  0.51100000000E-03 0.  1.
        -12    1    3    3    0    0 -0.20405306113E+01  0.42241651964E+01  0.39711670148E+01  0.61463407196E+01  0.00000000000E+00 0.  1.
</event>
<event>
 7    1  0.1283194E-013  0.7246154E+02  0.7816164E-02  0.1226708E+00
        -11   -1    0    0    0    0  0.00000000000E+00  0.00000000000E+00  0.45593999997E+02  0.45594000000E+02  0.51100000000E-03 0. -1.
         11   -1    0    0    0    0 -0.00000000000E+00 -0.00000000000E+00 -0.45593999997E+02  0.45594000000E+02  0.51100000000E-03 0.  1.
    9900012    2    1    2    0    0 -0.82738925510E+01 -0.11570370112E+02  0.12179875482E+02  0.72461544670E+02  0.69999966619E+02 0.  0.
         12    1    1    2    0    0  0.82738925510E+01  0.11570370112E+02 -0.12179875482E+02  0.18726455330E+02  0.00000000000E+00 0. -1.
         11    1    3    3    0    0  0.58530601137E+01  0.17833853138E+02  0.15607819422E+02  0.24411240399E+02  0.51100000000E-03 0. -1.
        -11    1    3    3    0    0  0.71768269410E+00 -0.18646212267E+02 -0.16998028786E+02  0.25241419993E+02  0.51100000000E-03 0.  1.
        -12    1    3    3    0    0 -0.14844635359E+02 -0.10758010983E+02  0.13570084847E+02  0.22808884278E+02  0.00000000000E+00 0.  1.
</event>
<event>
 7    1  0.1283194E-013  0.7246156E+02  0.7816164E-02  0.1226708E+00
        -11   -1    0    0    0    0  0.00000000000E+00  0.00000000000E+00  0.45593999997E+02  0.45594000000E+02  0.51100000000E-03 0. -1.
         11   -1    0    0    0    0 -0.00000000000E+00 -0.00000000000E+00 -0.45593999997E+02  0.45594000000E+02  0.51100000000E-03 0.  1.
    9900012    2    1    2    0    0 -0.10489272225E+02 -0.65623905452E+01 -0.14056667439E+02  0.72461556105E+02  0.69999981515E+02 0.  0.
         12    1    1    2    0    0  0.10489272225E+02  0.65623905452E+01  0.14056667439E+02  0.18726443895E+02  0.00000000000E+00 0. -1.
         11    1    3    3    0    0  0.19655696210E+02 -0.70945364782E+01  0.11318854769E+02  0.23765422674E+02  0.51100000000E-03 0. -1.
        -11    1    3    3    0    0 -0.17598952707E+02 -0.13557838826E+02 -0.17376705692E+02  0.28204397369E+02  0.51100000000E-03 0.  1.
        -12    1    3    3    0    0 -0.12546015728E+02  0.14089984758E+02 -0.79988165163E+01  0.20491736061E+02  0.00000000000E+00 0.  1.
</event>
<event>
 7    1  0.1283194E-013  0.7246155E+02  0.7816164E-02  0.1226708E+00
        -11   -1    0    0    0    0  0.00000000000E+00  0.00000000000E+00  0.45593999997E+02  0.45594000000E+02  0.51100000000E-03 0.  1.
         11   -1    0    0    0    0 -0.00000000000E+00 -0.00000000000E+00 -0.45593999997E+02  0.45594000000E+02  0.51100000000E-03 0. -1.
    9900012    2    1    2    0    0 -0.10092508486E+02 -0.13068868073E+02 -0.88332226134E+01  0.72461551806E+02  0.69999975915E+02 0.  0.
         12    1    1    2    0    0  0.10092508486E+02  0.13068868073E+02  0.88332226134E+01  0.18726448194E+02  0.00000000000E+00 0. -1.
         11    1    3    3    0    0 -0.34085667357E+02 -0.72738029758E+01  0.47292415866E+01  0.35172526994E+02  0.51100000000E-03 0. -1.
        -11    1    3    3    0    0  0.15654275152E+02 -0.15031796736E+02 -0.52648307305E+01  0.22332256637E+02  0.51100000000E-03 0.  1.
         12    1    3    3    0    0  0.83388837188E+01  0.92367316386E+01 -0.82976334694E+01  0.14956768175E+02  0.00000000000E+00 0. -1.
</event>
<event>
 7    1  0.1283194E-013  0.7246155E+02  0.7816164E-02  0.1226708E+00
        -11   -1    0    0    0    0  0.00000000000E+00  0.00000000000E+00  0.45593999997E+02  0.45594000000E+02  0.51100000000E-03 0.  1.
         11   -1    0    0    0    0 -0.00000000000E+00 -0.00000000000E+00 -0.45593999997E+02  0.45594000000E+02  0.51100000000E-03 0. -1.
    9900012    2    1    2    0    0  0.73472571626E+01  0.14483799734E+02  0.93229367471E+01  0.72461553671E+02  0.69999978345E+02 0.  0.
         12    1    1    2    0    0 -0.73472571626E+01 -0.14483799734E+02 -0.93229367471E+01  0.18726446329E+02  0.00000000000E+00 0. -1.
         11    1    3    3    0    0  0.23851265434E+02 -0.26363815456E+01  0.11205637753E+02  0.26483951521E+02  0.51100000000E-03 0. -1.
        -11    1    3    3    0    0 -0.27759851084E+02  0.47860080591E+01  0.36089881019E+01  0.28399647898E+02  0.51100000000E-03 0.  1.
        -12    1    3    3    0    0  0.11255842812E+02  0.12334173220E+02 -0.54916891078E+01  0.17577954252E+02  0.00000000000E+00 0.  1.
</event>
<event>
 7    1  0.1283194E-013  0.7246158E+02  0.7816164E-02  0.1226708E+00
        -11   -1    0    0    0    0  0.00000000000E+00  0.00000000000E+00  0.45593999997E+02  0.45594000000E+02  0.51100000000E-03 0.  1.
         11   -1    0    0    0    0 -0.00000000000E+00 -0.00000000000E+00 -0.45593999997E+02  0.45594000000E+02  0.51100000000E-03 0. -1.
    9900012    2    1    2    0    0 -0.17632301368E+02  0.55626272776E+01 -0.29728362089E+01  0.72461584730E+02  0.70000018805E+02 0.  0.
         12    1    1    2    0    0  0.17632301368E+02 -0.55626272776E+01  0.29728362089E+01  0.18726415270E+02  0.00000000000E+00 0. -1.
         11    1    3    3    0    0  0.15096092897E+01  0.94607871137E+01 -0.13854325064E+02  0.16844219669E+02  0.51100000000E-03 0. -1.
        -11    1    3    3    0    0  0.44124971266E+01  0.94960355548E+01  0.23499669017E+02  0.25727014329E+02  0.51100000000E-03 0.  1.
        -12    1    3    3    0    0 -0.23554407784E+02 -0.13394195391E+02 -0.12618180161E+02  0.29890350731E+02  0.00000000000E+00 0.  1.
</event>
<event>
 8    1  0.1283194E-013  0.7246153E+02  0.7816164E-02  0.1226708E+00
        -11   -1    0    0    0    0  0.00000000000E+00  0.00000000000E+00  0.45593999997E+02  0.45594000000E+02  0.51100000000E-03 0.  1.
         11   -1    0    0    0    0 -0.00000000000E+00 -0.00000000000E+00 -0.45593999997E+02  0.45594000000E+02  0.51100000000E-03 0. -1.
    9900012    2    1    2    0    0  0.25719834837E+01 -0.18375134766E+02 -0.25337515199E+01  0.72461532808E+02  0.69999951167E+02 0.  0.
         24    2    3    3    0    0  0.74500119633E+01 -0.28953739822E+02  0.36314387082E+01  0.59281562490E+02  0.51061674240E+02 0.  0.
         12    1    1    2    0    0 -0.25719834837E+01  0.18375134766E+02  0.25337515199E+01  0.18726467192E+02  0.00000000000E+00 0. -1.
         11    1    3    3    0    0 -0.48780284795E+01  0.10578605056E+02 -0.61651902281E+01  0.13179970318E+02  0.51100000000E-03 0. -1.
        -11    1    4    4    0    0  0.26867924698E+02 -0.52608738782E+01 -0.41104548266E+01  0.27684978069E+02  0.51100000000E-03 0.  1.
         12    1    4    4    0    0 -0.19417912734E+02 -0.23692865944E+02  0.77418935348E+01  0.31596584421E+02  0.00000000000E+00 0. -1.
</event>
<event>
 7    1  0.1283194E-013  0.7246146E+02  0.7816164E-02  0.1226708E+00
        -11   -1    0    0    0    0  0.00000000000E+00  0.00000000000E+00  0.45593999997E+02  0.45594000000E+02  0.51100000000E-03 0.  1.
         11   -1    0    0    0    0 -0.00000000000E+00 -0.00000000000E+00 -0.45593999997E+02  0.45594000000E+02  0.51100000000E-03 0. -1.
    9900012    2    1    2    0    0  0.68435386732E+00  0.10394940155E+02  0.15561494171E+02  0.72461462096E+02  0.69999859051E+02 0.  0.
         12    1    1    2    0    0 -0.68435386732E+00 -0.10394940155E+02 -0.15561494171E+02  0.18726537904E+02  0.00000000000E+00 0. -1.
         11    1    3    3    0    0  0.87877492239E+01  0.17001458854E+02 -0.19199543341E+01  0.19234353758E+02  0.51100000000E-03 0. -1.
        -11    1    3    3    0    0  0.11966794212E+02 -0.15790360874E+02  0.23118779544E+02  0.30446964185E+02  0.51100000000E-03 0.  1.
        -12    1    3    3    0    0 -0.20070189568E+02  0.91838421745E+01 -0.56373310382E+01  0.22780144153E+02  0.00000000000E+00 0.  1.
</event>
<event>
 7    1  0.1283194E-013  0.7246161E+02  0.7816164E-02  0.1226708E+00
        -11   -1    0    0    0    0  0.00000000000E+00  0.00000000000E+00  0.45593999997E+02  0.45594000000E+02  0.51100000000E-03 0. -1.
         11   -1    0    0    0    0 -0.00000000000E+00 -0.00000000000E+00 -0.45593999997E+02  0.45594000000E+02  0.51100000000E-03 0.  1.
    9900012    2    1    2    0    0 -0.74983490760E+01 -0.14875274554E+02 -0.85544430474E+01  0.72461614129E+02  0.70000057103E+02 0.  0.
         12    1    1    2    0    0  0.74983490760E+01  0.14875274554E+02  0.85544430474E+01  0.18726385871E+02  0.00000000000E+00 0. -1.
         11    1    3    3    0    0 -0.13345920006E+02 -0.53062576455E+01  0.89479204963E+01  0.16921442979E+02  0.51100000000E-03 0. -1.
        -11    1    3    3    0    0  0.26398481509E+02 -0.11147717336E+02 -0.24301769369E+00  0.28656770328E+02  0.51100000000E-03 0.  1.
        -12    1    3    3    0    0 -0.20550910578E+02  0.15787004266E+01 -0.17259345850E+02  0.26883400823E+02  0.00000000000E+00 0.  1.
</event>
<event>
 7    1  0.1283194E-013  0.7246149E+02  0.7816164E-02  0.1226708E+00
        -11   -1    0    0    0    0  0.00000000000E+00  0.00000000000E+00  0.45593999997E+02  0.45594000000E+02  0.51100000000E-03 0.  1.
         11   -1    0    0    0    0 -0.00000000000E+00 -0.00000000000E+00 -0.45593999997E+02  0.45594000000E+02  0.51100000000E-03 0. -1.
    9900012    2    1    2    0    0  0.11237729085E+02 -0.14552110122E+02  0.35540931647E+01  0.72461493592E+02  0.69999900081E+02 0.  0.
         12    1    1    2    0    0 -0.11237729085E+02  0.14552110122E+02 -0.35540931647E+01  0.18726506408E+02  0.00000000000E+00 0. -1.
         11    1    3    3    0    0 -0.15196721916E+02 -0.21254557459E+02 -0.38161762785E+01  0.26405676878E+02  0.51100000000E-03 0. -1.
        -11    1    3    3    0    0  0.20403237615E+02  0.18695153288E+02  0.14079268071E+02  0.31048778580E+02  0.51100000000E-03 0.  1.
        -12    1    3    3    0    0  0.60312133867E+01 -0.11992705952E+02 -0.67089986277E+01  0.15007038134E+02  0.00000000000E+00 0.  1.
</event>
<event>
 7    1  0.1283194E-013  0.7246223E+02  0.7816164E-02  0.1226706E+00
        -11   -1    0    0    0    0  0.00000000000E+00  0.00000000000E+00  0.45593999997E+02  0.45594000000E+02  0.51100000000E-03 0. -1.
         11   -1    0    0    0    0 -0.00000000000E+00 -0.00000000000E+00 -0.45593999997E+02  0.45594000000E+02  0.51100000000E-03 0.  1.
    9900012    2    1    2    0    0 -0.98717913984E+01 -0.13857140784E+02  0.78218882404E+01  0.72462227606E+02  0.70000856265E+02 0.  0.
         12    1    1    2    0    0  0.98717913984E+01  0.13857140784E+02 -0.78218882404E+01  0.18725772394E+02  0.00000000000E+00 0. -1.
         11    1    3    3    0    0 -0.33980355820E+01 -0.36707576125E+02  0.17854919792E+02  0.40960846571E+02  0.51100000000E-03 0. -1.
        -11    1    3    3    0    0 -0.11844382863E+02  0.21040056072E+02 -0.74103523513E+01  0.25256418732E+02  0.51100000000E-03 0.  1.
        -12    1    3    3    0    0  0.53706270469E+01  0.18103792687E+01 -0.26226791999E+01  0.62449623025E+01  0.00000000000E+00 0.  1.
</event>
<event>
 7    1  0.1283194E-013  0.7246112E+02  0.7816164E-02  0.1226709E+00
        -11   -1    0    0    0    0  0.00000000000E+00  0.00000000000E+00  0.45593999997E+02  0.45594000000E+02  0.51100000000E-03 0. -1.
         11   -1    0    0    0    0 -0.00000000000E+00 -0.00000000000E+00 -0.45593999997E+02  0.45594000000E+02  0.51100000000E-03 0.  1.
    9900012    2    1    2    0    0  0.15366291965E+02  0.89623778701E+01 -0.58522464729E+01  0.72461122667E+02  0.69999416880E+02 0.  0.
         12    1    1    2    0    0 -0.15366291965E+02 -0.89623778701E+01  0.58522464729E+01  0.18726877333E+02  0.00000000000E+00 0. -1.
         11    1    3    3    0    0  0.12203229693E+02 -0.19622087386E+02 -0.18903984388E+01  0.23184450281E+02  0.51100000000E-03 0. -1.
        -11    1    3    3    0    0 -0.15420351708E+02  0.16171459321E+02  0.82384703768E+01  0.23815451660E+02  0.51100000000E-03 0.  1.
         12    1    3    3    0    0  0.18583413981E+02  0.12413005935E+02 -0.12200318411E+02  0.25461220726E+02  0.00000000000E+00 0. -1.
</event>
<event>
 7    1  0.1283194E-013  0.7246155E+02  0.7816164E-02  0.1226708E+00
        -11   -1    0    0    0    0  0.00000000000E+00  0.00000000000E+00  0.45593999997E+02  0.45594000000E+02  0.51100000000E-03 0.  1.
         11   -1    0    0    0    0 -0.00000000000E+00 -0.00000000000E+00 -0.45593999997E+02  0.45594000000E+02  0.51100000000E-03 0. -1.
    9900012    2    1    2    0    0  0.72821992761E-02  0.85961351626E+01  0.16636899686E+02  0.72461547482E+02  0.69999970282E+02 0.  0.
         12    1    1    2    0    0 -0.72821992761E-02 -0.85961351626E+01 -0.16636899686E+02  0.18726452518E+02  0.00000000000E+00 0. -1.
         11    1    3    3    0    0 -0.69989991819E+01  0.44390699321E+01 -0.44967919093E+01  0.94293408649E+01  0.51100000000E-03 0. -1.
        -11    1    3    3    0    0  0.16903920291E+02  0.24709027237E+02  0.26064476617E+02  0.39694275277E+02  0.51100000000E-03 0.  1.
        -12    1    3    3    0    0 -0.98976389100E+01 -0.20551962006E+02 -0.49307850216E+01  0.23337931340E+02  0.00000000000E+00 0.  1.
</event>
<event>
 7    1  0.1283194E-013  0.7246159E+02  0.7816164E-02  0.1226708E+00
        -11   -1    0    0    0    0  0.00000000000E+00  0.00000000000E+00  0.45593999997E+02  0.45594000000E+02  0.51100000000E-03 0.  1.
         11   -1    0    0    0    0 -0.00000000000E+00 -0.00000000000E+00 -0.45593999997E+02  0.45594000000E+02  0.51100000000E-03 0. -1.
    9900012    2    1    2    0    0  0.47955753237E+01  0.17398145405E+02  0.49985480981E+01  0.72461588456E+02  0.70000023659E+02 0.  0.
         12    1    1    2    0    0 -0.47955753237E+01 -0.17398145405E+02 -0.49985480981E+01  0.18726411544E+02  0.00000000000E+00 0. -1.
         11    1    3    3    0    0 -0.24000804717E+02 -0.14659492943E+02  0.63984523796E+01  0.28842322263E+02  0.51100000000E-03 0.  1.
        -11    1    3    3    0    0  0.22117817671E+02  0.26800176897E+02  0.10803338368E+01  0.34765132844E+02  0.51100000000E-03 0. -1.
        -12    1    3    3    0    0  0.66785623697E+01  0.52574614509E+01 -0.24802381183E+01  0.88541333487E+01  0.00000000000E+00 0.  1.
</event>
<event>
 7    1  0.1283194E-013  0.7246158E+02  0.7816164E-02  0.1226708E+00
        -11   -1    0    0    0    0  0.00000000000E+00  0.00000000000E+00  0.45593999997E+02  0.45594000000E+02  0.51100000000E-03 0. -1.
         11   -1    0    0    0    0 -0.00000000000E+00 -0.00000000000E+00 -0.45593999997E+02  0.45594000000E+02  0.51100000000E-03 0.  1.
    9900012    2    1    2    0    0 -0.32262781655E+01 -0.18251086446E+02 -0.26772510265E+01  0.72461582823E+02  0.70000016320E+02 0.  0.
         12    1    1    2    0    0  0.32262781655E+01  0.18251086446E+02  0.26772510265E+01  0.18726417177E+02  0.00000000000E+00 0. -1.
         11    1    3    3    0    0 -0.23410334360E+01  0.27108002763E+00 -0.27606023257E+02  0.27706433229E+02  0.51100000000E-03 0.  1.
        -11    1    3    3    0    0 -0.15434238328E+02 -0.73768882737E+01  0.18828922323E+02  0.25439388937E+02  0.51100000000E-03 0. -1.
         12    1    3    3    0    0  0.14548993599E+02 -0.11145278199E+02  0.60998499078E+01  0.19315760657E+02  0.00000000000E+00 0. -1.
</event>
<event>
 7    1  0.1283194E-013  0.7246159E+02  0.7816164E-02  0.1226708E+00
        -11   -1    0    0    0    0  0.00000000000E+00  0.00000000000E+00  0.45593999997E+02  0.45594000000E+02  0.51100000000E-03 0. -1.
         11   -1    0    0    0    0 -0.00000000000E+00 -0.00000000000E+00 -0.45593999997E+02  0.45594000000E+02  0.51100000000E-03 0.  1.
    9900012    2    1    2    0    0 -0.10487370525E+01 -0.65385757580E+01 -0.17516443500E+02  0.72461585094E+02  0.70000019279E+02 0.  0.
         12    1    1    2    0    0  0.10487370525E+01  0.65385757580E+01  0.17516443500E+02  0.18726414906E+02  0.00000000000E+00 0. -1.
         11    1    3    3    0    0 -0.10072436491E+02 -0.13295082119E+02  0.23414237119E+01  0.16843261284E+02  0.51100000000E-03 0. -1.
        -11    1    3    3    0    0 -0.14871727060E+02  0.17163158110E+02 -0.18886347930E+02  0.29537034388E+02  0.51100000000E-03 0.  1.
        -12    1    3    3    0    0  0.23895426499E+02 -0.10406651749E+02 -0.97151928180E+00  0.26081289422E+02  0.00000000000E+00 0.  1.
</event>
<event>
 7    1  0.1283194E-013  0.7246151E+02  0.7816164E-02  0.1226708E+00
        -11   -1    0    0    0    0  0.00000000000E+00  0.00000000000E+00  0.45593999997E+02  0.45594000000E+02  0.51100000000E-03 0. -1.
         11   -1    0    0    0    0 -0.00000000000E+00 -0.00000000000E+00 -0.45593999997E+02  0.45594000000E+02  0.51100000000E-03 0.  1.
    9900012    2    1    2    0    0  0.10820630134E+02  0.52890381924E+01 -0.14339512335E+02  0.72461506054E+02  0.69999916316E+02 0.  0.
         12    1    1    2    0    0 -0.10820630134E+02 -0.52890381924E+01  0.14339512335E+02  0.18726493946E+02  0.00000000000E+00 0. -1.
         11    1    3    3    0    0  0.35288564613E+01 -0.74363171653E+01 -0.47381436425E+01  0.94974547299E+01  0.51100000000E-03 0. -1.
        -11    1    3    3    0    0  0.31383928309E+02  0.19328786910E+02 -0.22639365724E+01  0.36928016039E+02  0.51100000000E-03 0.  1.
        -12    1    3    3    0    0 -0.24092154636E+02 -0.66034315525E+01 -0.73374321200E+01  0.26036035286E+02  0.00000000000E+00 0.  1.
</event>
<event>
 7    1  0.1283194E-013  0.7246150E+02  0.7816164E-02  0.1226708E+00
        -11   -1    0    0    0    0  0.00000000000E+00  0.00000000000E+00  0.45593999997E+02  0.45594000000E+02  0.51100000000E-03 0. -1.
         11   -1    0    0    0    0 -0.00000000000E+00 -0.00000000000E+00 -0.45593999997E+02  0.45594000000E+02  0.51100000000E-03 0.  1.
    9900012    2    1    2    0    0 -0.78609808059E+00  0.21333435125E+01 -0.18587975972E+02  0.72461495909E+02  0.69999903099E+02 0.  0.
         12    1    1    2    0    0  0.78609808059E+00 -0.21333435125E+01  0.18587975972E+02  0.18726504091E+02  0.00000000000E+00 0. -1.
         11    1    3    3    0    0 -0.32742730273E+01 -0.21683732901E+02  0.67765400379E+01  0.22952704231E+02  0.51100000000E-03 0. -1.
        -11    1    3    3    0    0  0.16608046403E+02  0.22677725996E+02 -0.19315023599E+02  0.34105374922E+02  0.51100000000E-03 0.  1.
         12    1    3    3    0    0 -0.14119871457E+02  0.11393504181E+01 -0.60494924111E+01  0.15403416756E+02  0.00000000000E+00 0. -1.
</event>
<event>
 7    1  0.1283194E-013  0.7246154E+02  0.7816164E-02  0.1226708E+00
        -11   -1    0    0    0    0  0.00000000000E+00  0.00000000000E+00  0.45593999997E+02  0.45594000000E+02  0.51100000000E-03 0. -1.
         11   -1    0    0    0    0 -0.00000000000E+00 -0.00000000000E+00 -0.45593999997E+02  0.45594000000E+02  0.51100000000E-03 0.  1.
    9900012    2    1    2    0    0  0.68575262849E+01  0.14170598389E+02 -0.10141432970E+02  0.72461543097E+02  0.69999964570E+02 0.  0.
         12    1    1    2    0    0 -0.68575262849E+01 -0.14170598389E+02  0.10141432970E+02  0.18726456903E+02  0.00000000000E+00 0. -1.
         11    1    3    3    0    0  0.21480963871E+01  0.10333444423E+02  0.20981187602E+02  0.23486264607E+02  0.51100000000E-03 0. -1.
        -11    1    3    3    0    0  0.22612337851E+01 -0.13121030396E+02 -0.28742732934E+02  0.31676794561E+02  0.51100000000E-03 0.  1.
        -12    1    3    3    0    0  0.24481961126E+01  0.16958184362E+02 -0.23798876374E+01  0.17298483929E+02  0.00000000000E+00 0.  1.
</event>
<event>
 7    1  0.1283194E-013  0.7246172E+02  0.7816164E-02  0.1226708E+00
        -11   -1    0    0    0    0  0.00000000000E+00  0.00000000000E+00  0.45593999997E+02  0.45594000000E+02  0.51100000000E-03 0.  1.
         11   -1    0    0    0    0 -0.00000000000E+00 -0.00000000000E+00 -0.45593999997E+02  0.45594000000E+02  0.51100000000E-03 0. -1.
    9900012    2    1    2    0    0 -0.23067279174E+01  0.18233252332E+02  0.35917939470E+01  0.72461722526E+02  0.70000198310E+02 0.  0.
         12    1    1    2    0    0  0.23067279174E+01 -0.18233252332E+02 -0.35917939470E+01  0.18726277474E+02  0.00000000000E+00 0. -1.
         11    1    3    3    0    0 -0.11761921207E+02 -0.13719514175E+02 -0.10945568837E+01  0.18104306524E+02  0.51100000000E-03 0. -1.
        -11    1    3    3    0    0 -0.15286517851E+02  0.22193088369E+02 -0.17084401586E+01  0.27002399290E+02  0.51100000000E-03 0.  1.
         12    1    3    3    0    0  0.24741711141E+02  0.97596781372E+01  0.63947909893E+01  0.27355016712E+02  0.00000000000E+00 0. -1.
</event>
