<event>
 7    1  0.4237994E-013  0.5930198E+02  0.7816164E-02  0.1266605E+00
        -11   -1    0    0    0    0  0.00000000000E+00  0.00000000000E+00  0.45593999997E+02  0.45594000000E+02  0.51100000000E-03 0.  1.
         11   -1    0    0    0    0 -0.00000000000E+00 -0.00000000000E+00 -0.45593999997E+02  0.45594000000E+02  0.51100000000E-03 0. -1.
    9900012    2    1    2    0    0 -0.18608711521E+02  0.15129789600E+02  0.21012460108E+02  0.59301981785E+02  0.50000068861E+02 0.  0.
         12    1    1    2    0    0  0.18608711521E+02 -0.15129789600E+02 -0.21012460108E+02  0.31886018215E+02  0.00000000000E+00 0. -1.
         11    1    3    3    0    0  0.50325554370E+01  0.22082491522E+02  0.15346968321E+01  0.22700624235E+02  0.51100000000E-03 0. -1.
        -11    1    3    3    0    0 -0.16023149189E+02 -0.44741421060E+01  0.22548937299E+02  0.28021667172E+02  0.51100000000E-03 0.  1.
         12    1    3    3    0    0 -0.76181177689E+01 -0.24785598162E+01 -0.30711740236E+01  0.85796903783E+01  0.00000000000E+00 0. -1.
</event>
<event>
 7    1  0.4237994E-013  0.5930192E+02  0.7816164E-02  0.1266605E+00
        -11   -1    0    0    0    0  0.00000000000E+00  0.00000000000E+00  0.45593999997E+02  0.45594000000E+02  0.51100000000E-03 0.  1.
         11   -1    0    0    0    0 -0.00000000000E+00 -0.00000000000E+00 -0.45593999997E+02  0.45594000000E+02  0.51100000000E-03 0. -1.
    9900012    2    1    2    0    0 -0.23749330502E+01  0.12972190553E+02  0.29031082497E+02  0.59301924894E+02  0.49999965104E+02 0.  0.
         12    1    1    2    0    0  0.23749330502E+01 -0.12972190553E+02 -0.29031082497E+02  0.31886075106E+02  0.00000000000E+00 0. -1.
         11    1    3    3    0    0 -0.23620362851E+02  0.18453698189E+01  0.24178609536E+02  0.33851618725E+02  0.51100000000E-03 0. -1.
        -11    1    3    3    0    0  0.80744894637E+01  0.81177365232E+01  0.27756553326E+01  0.11781311011E+02  0.51100000000E-03 0.  1.
         12    1    3    3    0    0  0.13170940337E+02  0.30090842107E+01  0.20768176285E+01  0.13668995157E+02  0.00000000000E+00 0. -1.
</event>
<event>
 7    1  0.4237994E-013  0.5930189E+02  0.7816164E-02  0.1266605E+00
        -11   -1    0    0    0    0  0.00000000000E+00  0.00000000000E+00  0.45593999997E+02  0.45594000000E+02  0.51100000000E-03 0.  1.
         11   -1    0    0    0    0 -0.00000000000E+00 -0.00000000000E+00 -0.45593999997E+02  0.45594000000E+02  0.51100000000E-03 0. -1.
    9900012    2    1    2    0    0 -0.28927852322E+01  0.73469736006E+01  0.30893000336E+02  0.59301894919E+02  0.49999910437E+02 0.  0.
         12    1    1    2    0    0  0.28927852322E+01 -0.73469736006E+01 -0.30893000336E+02  0.31886105081E+02  0.00000000000E+00 0. -1.
         11    1    3    3    0    0  0.10319910379E+02 -0.17275287387E+02  0.12980113245E+02  0.23946178080E+02  0.51100000000E-03 0. -1.
        -11    1    3    3    0    0 -0.12871780290E+02  0.15872294951E+02  0.16942614594E+02  0.26545520609E+02  0.51100000000E-03 0.  1.
         12    1    3    3    0    0 -0.34091532071E+00  0.87499660361E+01  0.97027249775E+00  0.88101962298E+01  0.00000000000E+00 0. -1.
</event>
<event>
 7    1  0.4237994E-013  0.5930214E+02  0.7816164E-02  0.1266604E+00
        -11   -1    0    0    0    0  0.00000000000E+00  0.00000000000E+00  0.45593999997E+02  0.45594000000E+02  0.51100000000E-03 0.  1.
         11   -1    0    0    0    0 -0.00000000000E+00 -0.00000000000E+00 -0.45593999997E+02  0.45594000000E+02  0.51100000000E-03 0. -1.
    9900012    2    1    2    0    0 -0.13479889271E+02 -0.29026448640E+01  0.28750223395E+02  0.59302139383E+02  0.50000356281E+02 0.  0.
         12    1    1    2    0    0  0.13479889271E+02  0.29026448640E+01 -0.28750223395E+02  0.31885860617E+02  0.00000000000E+00 0. -1.
         11    1    3    3    0    0 -0.16673001036E+02 -0.15032495728E+02  0.21550234597E+02  0.31118764481E+02  0.51100000000E-03 0. -1.
        -11    1    3    3    0    0 -0.28800881211E+01  0.62868767358E+01  0.15114983748E+02  0.16621746618E+02  0.51100000000E-03 0.  1.
         12    1    3    3    0    0  0.60731998861E+01  0.58429741286E+01 -0.79149949498E+01  0.11561628284E+02  0.00000000000E+00 0. -1.
</event>
<event>
 7    1  0.4237994E-013  0.5930195E+02  0.7816164E-02  0.1266605E+00
        -11   -1    0    0    0    0  0.00000000000E+00  0.00000000000E+00  0.45593999997E+02  0.45594000000E+02  0.51100000000E-03 0. -1.
         11   -1    0    0    0    0 -0.00000000000E+00 -0.00000000000E+00 -0.45593999997E+02  0.45594000000E+02  0.51100000000E-03 0.  1.
    9900012    2    1    2    0    0  0.23112905333E+02  0.17886944210E+01 -0.21893253709E+02  0.59301946957E+02  0.50000005343E+02 0.  0.
         12    1    1    2    0    0 -0.23112905333E+02 -0.17886944210E+01  0.21893253709E+02  0.31886053043E+02  0.00000000000E+00 0. -1.
         11    1    3    3    0    0 -0.11199048156E+02  0.52915019248E+01 -0.26866017393E+01  0.12674245594E+02  0.51100000000E-03 0. -1.
        -11    1    3    3    0    0  0.19257634145E+02  0.81923531031E+01 -0.21327537297E+01  0.21036153663E+02  0.51100000000E-03 0.  1.
         12    1    3    3    0    0  0.15054319344E+02 -0.11695160607E+02 -0.17073898240E+02  0.25591547700E+02  0.00000000000E+00 0. -1.
</event>
<event>
 7    1  0.4237994E-013  0.5930195E+02  0.7816164E-02  0.1266605E+00
        -11   -1    0    0    0    0  0.00000000000E+00  0.00000000000E+00  0.45593999997E+02  0.45594000000E+02  0.51100000000E-03 0. -1.
         11   -1    0    0    0    0 -0.00000000000E+00 -0.00000000000E+00 -0.45593999997E+02  0.45594000000E+02  0.51100000000E-03 0.  1.
    9900012    2    1    2    0    0 -0.46498646299E+01 -0.15228547991E+02 -0.27625903567E+02  0.59301945636E+02  0.50000002933E+02 0.  0.
         12    1    1    2    0    0  0.46498646299E+01  0.15228547991E+02  0.27625903567E+02  0.31886054364E+02  0.00000000000E+00 0. -1.
         11    1    3    3    0    0 -0.24501539847E+02  0.12995003732E+01 -0.99016163931E+01  0.26458574481E+02  0.51100000000E-03 0.  1.
        -11    1    3    3    0    0  0.16270022804E+02 -0.13535752616E+02 -0.18502522534E+02  0.28111805017E+02  0.51100000000E-03 0. -1.
        -12    1    3    3    0    0  0.35816524125E+01 -0.29922957484E+01  0.77823535951E+00  0.47315661386E+01  0.00000000000E+00 0.  1.
</event>
<event>
 7    1  0.4237994E-013  0.5930195E+02  0.7816164E-02  0.1266605E+00
        -11   -1    0    0    0    0  0.00000000000E+00  0.00000000000E+00  0.45593999997E+02  0.45594000000E+02  0.51100000000E-03 0.  1.
         11   -1    0    0    0    0 -0.00000000000E+00 -0.00000000000E+00 -0.45593999997E+02  0.45594000000E+02  0.51100000000E-03 0. -1.
    9900012    2    1    2    0    0  0.25393397495E+01  0.15079824699E+02  0.27979830302E+02  0.59301948770E+02  0.50000008649E+02 0.  0.
         12    1    1    2    0    0 -0.25393397495E+01 -0.15079824699E+02 -0.27979830302E+02  0.31886051230E+02  0.00000000000E+00 0. -1.
         11    1    3    3    0    0 -0.96010480464E+01 -0.14197010051E+02  0.49317212814E+01  0.17834155237E+02  0.51100000000E-03 0. -1.
        -11    1    3    3    0    0 -0.24594292481E+01  0.89981508928E+01  0.80729535231E+01  0.12336453727E+02  0.51100000000E-03 0.  1.
         12    1    3    3    0    0  0.14599817044E+02  0.20278683857E+02  0.14975155497E+02  0.29131339806E+02  0.00000000000E+00 0. -1.
</event>
<event>
 7    1  0.4237994E-013  0.5930196E+02  0.7816164E-02  0.1266605E+00
        -11   -1    0    0    0    0  0.00000000000E+00  0.00000000000E+00  0.45593999997E+02  0.45594000000E+02  0.51100000000E-03 0.  1.
         11   -1    0    0    0    0 -0.00000000000E+00 -0.00000000000E+00 -0.45593999997E+02  0.45594000000E+02  0.51100000000E-03 0. -1.
    9900012    2    1    2    0    0 -0.26437189536E+02  0.16448280223E+02  0.68737684749E+01  0.59301959075E+02  0.50000027442E+02 0.  0.
         12    1    1    2    0    0  0.26437189536E+02 -0.16448280223E+02 -0.68737684749E+01  0.31886040925E+02  0.00000000000E+00 0. -1.
         11    1    3    3    0    0  0.74115535118E+01 -0.16583290513E+01 -0.31383008175E+01  0.82176707760E+01  0.51100000000E-03 0. -1.
        -11    1    3    3    0    0 -0.35082549275E+02  0.36338103390E+01  0.95990021908E+01  0.36553121406E+02  0.51100000000E-03 0.  1.
         12    1    3    3    0    0  0.12338062272E+01  0.14472798935E+02  0.41306710164E+00  0.14531166892E+02  0.00000000000E+00 0. -1.
</event>
<event>
 7    1  0.4237994E-013  0.5930195E+02  0.7816164E-02  0.1266605E+00
        -11   -1    0    0    0    0  0.00000000000E+00  0.00000000000E+00  0.45593999997E+02  0.45594000000E+02  0.51100000000E-03 0.  1.
         11   -1    0    0    0    0 -0.00000000000E+00 -0.00000000000E+00 -0.45593999997E+02  0.45594000000E+02  0.51100000000E-03 0. -1.
    9900012    2    1    2    0    0 -0.29672806819E+02 -0.99460044292E+01  0.61091710102E+01  0.59301946010E+02  0.50000003615E+02 0.  0.
         12    1    1    2    0    0  0.29672806819E+02  0.99460044292E+01 -0.61091710102E+01  0.31886053990E+02  0.00000000000E+00 0. -1.
         11    1    3    3    0    0 -0.10951600512E+02 -0.17182774521E+02 -0.18449578624E+00  0.20376931393E+02  0.51100000000E-03 0. -1.
        -11    1    3    3    0    0 -0.69958723641E+01  0.67151262109E+01  0.19181681203E+02  0.21493534939E+02  0.51100000000E-03 0.  1.
         12    1    3    3    0    0 -0.11725333943E+02  0.52164388120E+00 -0.12888014406E+02  0.17431479678E+02  0.00000000000E+00 0. -1.
</event>
<event>
 7    1  0.4237994E-013  0.5930196E+02  0.7816164E-02  0.1266605E+00
        -11   -1    0    0    0    0  0.00000000000E+00  0.00000000000E+00  0.45593999997E+02  0.45594000000E+02  0.51100000000E-03 0. -1.
         11   -1    0    0    0    0 -0.00000000000E+00 -0.00000000000E+00 -0.45593999997E+02  0.45594000000E+02  0.51100000000E-03 0.  1.
    9900012    2    1    2    0    0  0.18740185579E+02 -0.24483351655E+02 -0.81296046135E+01  0.59301960187E+02  0.50000029471E+02 0.  0.
         12    1    1    2    0    0 -0.18740185579E+02  0.24483351655E+02  0.81296046135E+01  0.31886039813E+02  0.00000000000E+00 0. -1.
         11    1    3    3    0    0  0.36877123768E+01  0.46356265875E+01 -0.16611667431E+02  0.17636205701E+02  0.51100000000E-03 0. -1.
        -11    1    3    3    0    0  0.47202308084E+01 -0.99580557440E+01  0.15298478571E+02  0.18854360237E+02  0.51100000000E-03 0.  1.
         12    1    3    3    0    0  0.10332242394E+02 -0.19160922498E+02 -0.68164157542E+01  0.22811394249E+02  0.00000000000E+00 0. -1.
</event>
<event>
 7    1  0.4237994E-013  0.5930199E+02  0.7816164E-02  0.1266605E+00
        -11   -1    0    0    0    0  0.00000000000E+00  0.00000000000E+00  0.45593999997E+02  0.45594000000E+02  0.51100000000E-03 0. -1.
         11   -1    0    0    0    0 -0.00000000000E+00 -0.00000000000E+00 -0.45593999997E+02  0.45594000000E+02  0.51100000000E-03 0.  1.
    9900012    2    1    2    0    0 -0.31618097107E+01  0.16926232357E+02 -0.26836972870E+02  0.59301992171E+02  0.50000087802E+02 0.  0.
         12    1    1    2    0    0  0.31618097107E+01 -0.16926232357E+02  0.26836972870E+02  0.31886007829E+02  0.00000000000E+00 0. -1.
         11    1    3    3    0    0 -0.10659290338E+01  0.32269279651E+00 -0.17087585640E+02  0.17123840650E+02  0.51100000000E-03 0. -1.
        -11    1    3    3    0    0 -0.19477742157E+02  0.12593349629E+02 -0.57704283089E+01  0.23901312465E+02  0.51100000000E-03 0.  1.
        -12    1    3    3    0    0  0.17381861480E+02  0.40101899314E+01 -0.39789589209E+01  0.18276839056E+02  0.00000000000E+00 0.  1.
</event>
<event>
 7    1  0.4237994E-013  0.5930194E+02  0.7816164E-02  0.1266605E+00
        -11   -1    0    0    0    0  0.00000000000E+00  0.00000000000E+00  0.45593999997E+02  0.45594000000E+02  0.51100000000E-03 0.  1.
         11   -1    0    0    0    0 -0.00000000000E+00 -0.00000000000E+00 -0.45593999997E+02  0.45594000000E+02  0.51100000000E-03 0. -1.
    9900012    2    1    2    0    0 -0.21207839548E+02 -0.23344351931E+02  0.46893094118E+01  0.59301939596E+02  0.49999991917E+02 0.  0.
         12    1    1    2    0    0  0.21207839548E+02  0.23344351931E+02 -0.46893094118E+01  0.31886060404E+02  0.00000000000E+00 0. -1.
         11    1    3    3    0    0 -0.20639561079E+02 -0.51770443943E+01  0.12984610303E+02  0.24927763141E+02  0.51100000000E-03 0. -1.
        -11    1    3    3    0    0  0.12656304521E+02 -0.33165728775E+01 -0.58741555840E+01  0.14341806157E+02  0.51100000000E-03 0.  1.
        -12    1    3    3    0    0 -0.13224582989E+02 -0.14850734659E+02 -0.24211453072E+01  0.20032370298E+02  0.00000000000E+00 0.  1.
</event>
<event>
 7    1  0.4237994E-013  0.5930190E+02  0.7816164E-02  0.1266605E+00
        -11   -1    0    0    0    0  0.00000000000E+00  0.00000000000E+00  0.45593999997E+02  0.45594000000E+02  0.51100000000E-03 0.  1.
         11   -1    0    0    0    0 -0.00000000000E+00 -0.00000000000E+00 -0.45593999997E+02  0.45594000000E+02  0.51100000000E-03 0. -1.
    9900012    2    1    2    0    0 -0.26674202029E+02 -0.94639145192E+01  0.14684842149E+02  0.59301900821E+02  0.49999921202E+02 0.  0.
         12    1    1    2    0    0  0.26674202029E+02  0.94639145192E+01 -0.14684842149E+02  0.31886099179E+02  0.00000000000E+00 0. -1.
         11    1    3    3    0    0  0.14020710212E+01 -0.18283246534E+02  0.40495432029E+01  0.18778756811E+02  0.51100000000E-03 0. -1.
        -11    1    3    3    0    0 -0.23400842239E+02  0.82901511073E+01  0.18771822821E+02  0.31124063924E+02  0.51100000000E-03 0.  1.
        -12    1    3    3    0    0 -0.46754308109E+01  0.52918090705E+00 -0.81365238750E+01  0.93990800863E+01  0.00000000000E+00 0.  1.
</event>
<event>
 7    1  0.4237994E-013  0.5930192E+02  0.7816164E-02  0.1266605E+00
        -11   -1    0    0    0    0  0.00000000000E+00  0.00000000000E+00  0.45593999997E+02  0.45594000000E+02  0.51100000000E-03 0.  1.
         11   -1    0    0    0    0 -0.00000000000E+00 -0.00000000000E+00 -0.45593999997E+02  0.45594000000E+02  0.51100000000E-03 0. -1.
    9900012    2    1    2    0    0  0.25201159934E+02 -0.73509257518E+01  0.18099381748E+02  0.59301918536E+02  0.49999953510E+02 0.  0.
         12    1    1    2    0    0 -0.25201159934E+02  0.73509257518E+01 -0.18099381748E+02  0.31886081464E+02  0.00000000000E+00 0. -1.
         11    1    3    3    0    0  0.44783600075E+01 -0.62611392492E+01 -0.13790533623E+02  0.15793555360E+02  0.51100000000E-03 0. -1.
        -11    1    3    3    0    0  0.14113435822E+02  0.51508910206E+01  0.61917633730E+01  0.16249882552E+02  0.51100000000E-03 0.  1.
         12    1    3    3    0    0  0.66093641044E+01 -0.62406775231E+01  0.25698151998E+02  0.27258480624E+02  0.00000000000E+00 0. -1.
</event>
<event>
 7    1  0.4237994E-013  0.5930195E+02  0.7816164E-02  0.1266605E+00
        -11   -1    0    0    0    0  0.00000000000E+00  0.00000000000E+00  0.45593999997E+02  0.45594000000E+02  0.51100000000E-03 0.  1.
         11   -1    0    0    0    0 -0.00000000000E+00 -0.00000000000E+00 -0.45593999997E+02  0.45594000000E+02  0.51100000000E-03 0. -1.
    9900012    2    1    2    0    0  0.10509154209E+02 -0.18432376342E+02  0.23801793466E+02  0.59301949884E+02  0.50000010681E+02 0.  0.
         12    1    1    2    0    0 -0.10509154209E+02  0.18432376342E+02 -0.23801793466E+02  0.31886050116E+02  0.00000000000E+00 0. -1.
         11    1    3    3    0    0  0.54959354443E-01 -0.56356783593E+01 -0.67274002532E+01  0.87762067847E+01  0.51100000000E-03 0. -1.
        -11    1    3    3    0    0  0.12810641476E+02 -0.22872322261E+02  0.30446807400E+02  0.40177901161E+02  0.51100000000E-03 0.  1.
        -12    1    3    3    0    0 -0.23564466214E+01  0.10075624278E+02  0.82386318984E-01  0.10347841938E+02  0.00000000000E+00 0.  1.
</event>
<event>
 7    1  0.4237994E-013  0.5930190E+02  0.7816164E-02  0.1266605E+00
        -11   -1    0    0    0    0  0.00000000000E+00  0.00000000000E+00  0.45593999997E+02  0.45594000000E+02  0.51100000000E-03 0. -1.
         11   -1    0    0    0    0 -0.00000000000E+00 -0.00000000000E+00 -0.45593999997E+02  0.45594000000E+02  0.51100000000E-03 0.  1.
    9900012    2    1    2    0    0  0.63257933400E+01 -0.24362166946E+02 -0.19575297778E+02  0.59301903927E+02  0.49999926866E+02 0.  0.
         12    1    1    2    0    0 -0.63257933400E+01  0.24362166946E+02  0.19575297778E+02  0.31886096073E+02  0.00000000000E+00 0. -1.
         11    1    3    3    0    0  0.15419283849E+02 -0.12844832576E+02  0.64214609273E+01  0.21070813914E+02  0.51100000000E-03 0. -1.
        -11    1    3    3    0    0 -0.90471375651E+01  0.57720729718E+01 -0.94435304058E+01  0.14295026803E+02  0.51100000000E-03 0.  1.
         12    1    3    3    0    0 -0.46352943977E-01 -0.17289407342E+02 -0.16553228300E+02  0.23936063210E+02  0.00000000000E+00 0. -1.
</event>
<event>
 7    1  0.4237994E-013  0.5930196E+02  0.7816164E-02  0.1266605E+00
        -11   -1    0    0    0    0  0.00000000000E+00  0.00000000000E+00  0.45593999997E+02  0.45594000000E+02  0.51100000000E-03 0. -1.
         11   -1    0    0    0    0 -0.00000000000E+00 -0.00000000000E+00 -0.45593999997E+02  0.45594000000E+02  0.51100000000E-03 0.  1.
    9900012    2    1    2    0    0 -0.13543603569E+02  0.15346924666E+02  0.24449182108E+02  0.59301956029E+02  0.50000021888E+02 0.  0.
         12    1    1    2    0    0  0.13543603569E+02 -0.15346924666E+02 -0.24449182108E+02  0.31886043971E+02  0.00000000000E+00 0. -1.
         11    1    3    3    0    0  0.96404322846E+01  0.10495469381E+02  0.26127464344E+02  0.29761337428E+02  0.51100000000E-03 0. -1.
        -11    1    3    3    0    0 -0.22682094930E+02  0.57900696957E+01  0.40127676044E+01  0.23750887175E+02  0.51100000000E-03 0.  1.
         12    1    3    3    0    0 -0.50194092382E+00 -0.93861441042E+00 -0.56910498407E+01  0.57897314265E+01  0.00000000000E+00 0. -1.
</event>
<event>
 7    1  0.4237994E-013  0.5930194E+02  0.7816164E-02  0.1266605E+00
        -11   -1    0    0    0    0  0.00000000000E+00  0.00000000000E+00  0.45593999997E+02  0.45594000000E+02  0.51100000000E-03 0. -1.
         11   -1    0    0    0    0 -0.00000000000E+00 -0.00000000000E+00 -0.45593999997E+02  0.45594000000E+02  0.51100000000E-03 0.  1.
    9900012    2    1    2    0    0  0.28303867004E+02  0.12543751634E+01 -0.14630060237E+02  0.59301937105E+02  0.49999987374E+02 0.  0.
         12    1    1    2    0    0 -0.28303867004E+02 -0.12543751634E+01  0.14630060237E+02  0.31886062895E+02  0.00000000000E+00 0. -1.
         11    1    3    3    0    0  0.61147377159E+01 -0.23238354865E+00 -0.28432408227E+02  0.29083429256E+02  0.51100000000E-03 0. -1.
        -11    1    3    3    0    0  0.10058532962E+02  0.80630068125E+01  0.84733916165E+01  0.15426747225E+02  0.51100000000E-03 0.  1.
        -12    1    3    3    0    0  0.12130596327E+02 -0.65762481004E+01  0.53289563736E+01  0.14791760624E+02  0.00000000000E+00 0.  1.
</event>
<event>
 7    1  0.4237994E-013  0.5930194E+02  0.7816164E-02  0.1266605E+00
        -11   -1    0    0    0    0  0.00000000000E+00  0.00000000000E+00  0.45593999997E+02  0.45594000000E+02  0.51100000000E-03 0.  1.
         11   -1    0    0    0    0 -0.00000000000E+00 -0.00000000000E+00 -0.45593999997E+02  0.45594000000E+02  0.51100000000E-03 0. -1.
    9900012    2    1    2    0    0 -0.23220514749E+02 -0.15124181915E+01  0.21800021061E+02  0.59301942981E+02  0.49999998090E+02 0.  0.
         12    1    1    2    0    0  0.23220514749E+02  0.15124181915E+01 -0.21800021061E+02  0.31886057019E+02  0.00000000000E+00 0. -1.
         11    1    3    3    0    0 -0.74596390375E+00 -0.87607056668E+01 -0.12883690615E+02  0.15597945699E+02  0.51100000000E-03 0. -1.
        -11    1    3    3    0    0 -0.17630794807E+02  0.19623815719E+01  0.30817045644E+02  0.35558208187E+02  0.51100000000E-03 0.  1.
         12    1    3    3    0    0 -0.48437560374E+01  0.52859059034E+01  0.38666660317E+01  0.81457890943E+01  0.00000000000E+00 0. -1.
</event>
<event>
 7    1  0.4237994E-013  0.5930195E+02  0.7816164E-02  0.1266605E+00
        -11   -1    0    0    0    0  0.00000000000E+00  0.00000000000E+00  0.45593999997E+02  0.45594000000E+02  0.51100000000E-03 0.  1.
         11   -1    0    0    0    0 -0.00000000000E+00 -0.00000000000E+00 -0.45593999997E+02  0.45594000000E+02  0.51100000000E-03 0. -1.
    9900012    2    1    2    0    0 -0.30585058101E+02  0.89504001891E+01 -0.10791801874E+01  0.59301951758E+02  0.50000014099E+02 0.  0.
         12    1    1    2    0    0  0.30585058101E+02 -0.89504001891E+01  0.10791801874E+01  0.31886048242E+02  0.00000000000E+00 0. -1.
         11    1    3    3    0    0 -0.12312121737E+02 -0.98074164428E+01  0.64244253454E+01  0.17001382304E+02  0.51100000000E-03 0. -1.
        -11    1    3    3    0    0  0.19744564035E+01  0.11078118416E+02 -0.15554017797E+02  0.19197673182E+02  0.51100000000E-03 0.  1.
        -12    1    3    3    0    0 -0.20247392767E+02  0.76796982162E+01  0.80504122638E+01  0.23102896273E+02  0.00000000000E+00 0.  1.
</event>
<event>
 7    1  0.4237994E-013  0.5930196E+02  0.7816164E-02  0.1266605E+00
        -11   -1    0    0    0    0  0.00000000000E+00  0.00000000000E+00  0.45593999997E+02  0.45594000000E+02  0.51100000000E-03 0. -1.
         11   -1    0    0    0    0 -0.00000000000E+00 -0.00000000000E+00 -0.45593999997E+02  0.45594000000E+02  0.51100000000E-03 0.  1.
    9900012    2    1    2    0    0 -0.24441845975E+02  0.48130383371E+01 -0.19903531564E+02  0.59301956949E+02  0.50000023566E+02 0.  0.
         12    1    1    2    0    0  0.24441845975E+02 -0.48130383371E+01  0.19903531564E+02  0.31886043051E+02  0.00000000000E+00 0. -1.
         11    1    3    3    0    0  0.13381469327E+02  0.74191132676E+00 -0.12926687136E+02  0.18620241522E+02  0.51100000000E-03 0. -1.
        -11    1    3    3    0    0 -0.22121360832E+02  0.70799708157E+01 -0.82380942580E+01  0.24644406852E+02  0.51100000000E-03 0.  1.
         12    1    3    3    0    0 -0.15701954470E+02 -0.30088438054E+01  0.12612498301E+01  0.16037308576E+02  0.00000000000E+00 0. -1.
</event>
<event>
 7    1  0.4237994E-013  0.5930201E+02  0.7816164E-02  0.1266605E+00
        -11   -1    0    0    0    0  0.00000000000E+00  0.00000000000E+00  0.45593999997E+02  0.45594000000E+02  0.51100000000E-03 0.  1.
         11   -1    0    0    0    0 -0.00000000000E+00 -0.00000000000E+00 -0.45593999997E+02  0.45594000000E+02  0.51100000000E-03 0. -1.
    9900012    2    1    2    0    0  0.21907062796E+02 -0.21514489403E+01  0.23068776827E+02  0.59302006253E+02  0.50000113484E+02 0.  0.
         12    1    1    2    0    0 -0.21907062796E+02  0.21514489403E+01 -0.23068776827E+02  0.31885993747E+02  0.00000000000E+00 0. -1.
         11    1    3    3    0    0 -0.53609679323E+00  0.51064046296E+01  0.15359190428E+02  0.16194675016E+02  0.51100000000E-03 0. -1.
        -11    1    3    3    0    0  0.25089865653E+02 -0.84308210401E+01 -0.75908288060E+01  0.27535445959E+02  0.51100000000E-03 0.  1.
        -12    1    3    3    0    0 -0.26467060638E+01  0.11729674702E+01  0.15300415205E+02  0.15571885278E+02  0.00000000000E+00 0.  1.
</event>
<event>
 7    1  0.4237994E-013  0.5930193E+02  0.7816164E-02  0.1266605E+00
        -11   -1    0    0    0    0  0.00000000000E+00  0.00000000000E+00  0.45593999997E+02  0.45594000000E+02  0.51100000000E-03 0. -1.
         11   -1    0    0    0    0 -0.00000000000E+00 -0.00000000000E+00 -0.45593999997E+02  0.45594000000E+02  0.51100000000E-03 0.  1.
    9900012    2    1    2    0    0 -0.11824536731E+02  0.27778063293E+02 -0.10260666519E+02  0.59301925506E+02  0.49999966222E+02 0.  0.
         12    1    1    2    0    0  0.11824536731E+02 -0.27778063293E+02  0.10260666519E+02  0.31886074494E+02  0.00000000000E+00 0. -1.
         11    1    3    3    0    0  0.10477518956E+02  0.13341970808E+02  0.37379293857E+01  0.17371203322E+02  0.51100000000E-03 0. -1.
        -11    1    3    3    0    0 -0.20892704778E+02 -0.31427685410E+01 -0.35250571811E+01  0.21419807082E+02  0.51100000000E-03 0.  1.
        -12    1    3    3    0    0 -0.14093509091E+01  0.17578861026E+02 -0.10473538723E+02  0.20510915102E+02  0.00000000000E+00 0.  1.
</event>
<event>
 7    1  0.4237994E-013  0.5930195E+02  0.7816164E-02  0.1266605E+00
        -11   -1    0    0    0    0  0.00000000000E+00  0.00000000000E+00  0.45593999997E+02  0.45594000000E+02  0.51100000000E-03 0.  1.
         11   -1    0    0    0    0 -0.00000000000E+00 -0.00000000000E+00 -0.45593999997E+02  0.45594000000E+02  0.51100000000E-03 0. -1.
    9900012    2    1    2    0    0  0.45551085116E+01  0.19019795828E+02  0.25183701243E+02  0.59301945757E+02  0.50000003154E+02 0.  0.
         12    1    1    2    0    0 -0.45551085116E+01 -0.19019795828E+02 -0.25183701243E+02  0.31886054243E+02  0.00000000000E+00 0. -1.
         11    1    3    3    0    0  0.12759326725E+02  0.20558411236E+01  0.27475174090E+01  0.13212711810E+02  0.51100000000E-03 0. -1.
        -11    1    3    3    0    0 -0.44178958317E+01  0.13798092881E+02  0.32111063482E+02  0.35228192814E+02  0.51100000000E-03 0.  1.
        -12    1    3    3    0    0 -0.37863223818E+01  0.31658618234E+01 -0.96748796487E+01  0.10861041132E+02  0.00000000000E+00 0.  1.
</event>
<event>
 7    1  0.4237994E-013  0.5930193E+02  0.7816164E-02  0.1266605E+00
        -11   -1    0    0    0    0  0.00000000000E+00  0.00000000000E+00  0.45593999997E+02  0.45594000000E+02  0.51100000000E-03 0.  1.
         11   -1    0    0    0    0 -0.00000000000E+00 -0.00000000000E+00 -0.45593999997E+02  0.45594000000E+02  0.51100000000E-03 0. -1.
    9900012    2    1    2    0    0 -0.25085965566E+02  0.18130280957E+02  0.76621719488E+01  0.59301927257E+02  0.49999969415E+02 0.  0.
         12    1    1    2    0    0  0.25085965566E+02 -0.18130280957E+02 -0.76621719488E+01  0.31886072743E+02  0.00000000000E+00 0. -1.
         11    1    3    3    0    0 -0.29260691643E+02  0.99362972677E+01 -0.81027710234E+01  0.31946407894E+02  0.51100000000E-03 0. -1.
        -11    1    3    3    0    0 -0.18106601255E+01  0.12331025109E+02  0.15743371305E+02  0.20079502251E+02  0.51100000000E-03 0.  1.
         12    1    3    3    0    0  0.59853862017E+01 -0.41370414195E+01  0.21571667162E-01  0.72760171129E+01  0.00000000000E+00 0. -1.
</event>
<event>
 7    1  0.4237994E-013  0.5930180E+02  0.7816164E-02  0.1266605E+00
        -11   -1    0    0    0    0  0.00000000000E+00  0.00000000000E+00  0.45593999997E+02  0.45594000000E+02  0.51100000000E-03 0.  1.
         11   -1    0    0    0    0 -0.00000000000E+00 -0.00000000000E+00 -0.45593999997E+02  0.45594000000E+02  0.51100000000E-03 0. -1.
    9900012    2    1    2    0    0  0.15305852637E+02 -0.22862230157E+02  0.16117672409E+02  0.59301795199E+02  0.49999728572E+02 0.  0.
         12    1    1    2    0    0 -0.15305852637E+02  0.22862230157E+02 -0.16117672409E+02  0.31886204801E+02  0.00000000000E+00 0. -1.
         11    1    3    3    0    0 -0.85330103118E+00  0.35934883538E+01  0.24874296031E+02  0.25147005478E+02  0.51100000000E-03 0.  1.
        -11    1    3    3    0    0  0.16733319522E+02 -0.25259235090E+02 -0.57110073255E+01  0.30832589001E+02  0.51100000000E-03 0. -1.
        -12    1    3    3    0    0 -0.57416585297E+00 -0.11964834203E+01 -0.30456162965E+01  0.33222007205E+01  0.00000000000E+00 0.  1.
</event>
<event>
 7    1  0.4237994E-013  0.5930195E+02  0.7816164E-02  0.1266605E+00
        -11   -1    0    0    0    0  0.00000000000E+00  0.00000000000E+00  0.45593999997E+02  0.45594000000E+02  0.51100000000E-03 0.  1.
         11   -1    0    0    0    0 -0.00000000000E+00 -0.00000000000E+00 -0.45593999997E+02  0.45594000000E+02  0.51100000000E-03 0. -1.
    9900012    2    1    2    0    0 -0.23391811609E+02  0.90148709182E+01  0.19704704604E+02  0.59301950831E+02  0.50000012408E+02 0.  0.
         12    1    1    2    0    0  0.23391811609E+02 -0.90148709182E+01 -0.19704704604E+02  0.31886049169E+02  0.00000000000E+00 0. -1.
         11    1    3    3    0    0 -0.12263277445E+02  0.47116026172E+01 -0.15078077191E+02  0.19998389559E+02  0.51100000000E-03 0. -1.
        -11    1    3    3    0    0 -0.10222216579E+02  0.76419201966E+01  0.17394916267E+02  0.21574887446E+02  0.51100000000E-03 0.  1.
         12    1    3    3    0    0 -0.90631758480E+00 -0.33386518957E+01  0.17387865528E+02  0.17728673827E+02  0.00000000000E+00 0. -1.
</event>
<event>
 7    1  0.4237994E-013  0.5930206E+02  0.7816164E-02  0.1266604E+00
        -11   -1    0    0    0    0  0.00000000000E+00  0.00000000000E+00  0.45593999997E+02  0.45594000000E+02  0.51100000000E-03 0.  1.
         11   -1    0    0    0    0 -0.00000000000E+00 -0.00000000000E+00 -0.45593999997E+02  0.45594000000E+02  0.51100000000E-03 0. -1.
    9900012    2    1    2    0    0 -0.20222170785E+02  0.78835892602E+01  0.23358641203E+02  0.59302058118E+02  0.50000208072E+02 0.  0.
         12    1    1    2    0    0  0.20222170785E+02 -0.78835892602E+01 -0.23358641203E+02  0.31885941882E+02  0.00000000000E+00 0. -1.
         11    1    3    3    0    0 -0.79833752929E+01 -0.12821172487E+02 -0.62756387098E+01  0.16355439049E+02  0.51100000000E-03 0. -1.
        -11    1    3    3    0    0 -0.15101109406E+02  0.75956948460E+01  0.21134895142E+02  0.27063293931E+02  0.51100000000E-03 0.  1.
         12    1    3    3    0    0  0.28623139130E+01  0.13109066901E+02  0.84993847699E+01  0.15883325137E+02  0.00000000000E+00 0. -1.
</event>
<event>
 7    1  0.4237994E-013  0.5930194E+02  0.7816164E-02  0.1266605E+00
        -11   -1    0    0    0    0  0.00000000000E+00  0.00000000000E+00  0.45593999997E+02  0.45594000000E+02  0.51100000000E-03 0.  1.
         11   -1    0    0    0    0 -0.00000000000E+00 -0.00000000000E+00 -0.45593999997E+02  0.45594000000E+02  0.51100000000E-03 0. -1.
    9900012    2    1    2    0    0  0.16624435361E+02 -0.26976648278E+02 -0.35509665128E+01  0.59301940874E+02  0.49999994249E+02 0.  0.
         12    1    1    2    0    0 -0.16624435361E+02  0.26976648278E+02  0.35509665128E+01  0.31886059126E+02  0.00000000000E+00 0. -1.
         11    1    3    3    0    0 -0.41142559669E+01 -0.85660604361E+01  0.29483632307E+01  0.99497406779E+01  0.51100000000E-03 0. -1.
        -11    1    3    3    0    0  0.19079848129E+02  0.43043328573E+01 -0.15405115383E+02  0.24897499196E+02  0.51100000000E-03 0.  1.
        -12    1    3    3    0    0  0.16588431985E+01 -0.22714920699E+02  0.89057856400E+01  0.24454701000E+02  0.00000000000E+00 0.  1.
</event>
<event>
 7    1  0.4237994E-013  0.5930194E+02  0.7816164E-02  0.1266605E+00
        -11   -1    0    0    0    0  0.00000000000E+00  0.00000000000E+00  0.45593999997E+02  0.45594000000E+02  0.51100000000E-03 0.  1.
         11   -1    0    0    0    0 -0.00000000000E+00 -0.00000000000E+00 -0.45593999997E+02  0.45594000000E+02  0.51100000000E-03 0. -1.
    9900012    2    1    2    0    0  0.19732983645E+01 -0.33579311490E+01  0.31647295678E+02  0.59301938284E+02  0.49999989525E+02 0.  0.
         12    1    1    2    0    0 -0.19732983645E+01  0.33579311490E+01 -0.31647295678E+02  0.31886061716E+02  0.00000000000E+00 0. -1.
         11    1    3    3    0    0 -0.70323907369E+01  0.90622781353E+01  0.14212811286E+02  0.18264265915E+02  0.51100000000E-03 0. -1.
        -11    1    3    3    0    0 -0.22450442075E+01 -0.16402238708E+02 -0.35177467146E+01  0.16924780659E+02  0.51100000000E-03 0.  1.
        -12    1    3    3    0    0  0.11250733309E+02  0.39820294241E+01  0.20952231106E+02  0.24112891711E+02  0.00000000000E+00 0.  1.
</event>
<event>
 7    1  0.4237994E-013  0.5930199E+02  0.7816164E-02  0.1266605E+00
        -11   -1    0    0    0    0  0.00000000000E+00  0.00000000000E+00  0.45593999997E+02  0.45594000000E+02  0.51100000000E-03 0.  1.
         11   -1    0    0    0    0 -0.00000000000E+00 -0.00000000000E+00 -0.45593999997E+02  0.45594000000E+02  0.51100000000E-03 0. -1.
    9900012    2    1    2    0    0  0.30251450380E+02  0.80964118580E+01  0.60013021254E+01  0.59301987984E+02  0.50000080166E+02 0.  0.
         12    1    1    2    0    0 -0.30251450380E+02 -0.80964118580E+01 -0.60013021254E+01  0.31886012016E+02  0.00000000000E+00 0. -1.
         11    1    3    3    0    0  0.51122496955E+01  0.13936612834E+01 -0.97731301925E+01  0.11117169727E+02  0.51100000000E-03 0. -1.
        -11    1    3    3    0    0  0.78238802837E+01  0.21342540937E+02  0.96699132097E+01  0.24702720054E+02  0.51100000000E-03 0.  1.
        -12    1    3    3    0    0  0.17315320401E+02 -0.14639790363E+02  0.61045191082E+01  0.23482098202E+02  0.00000000000E+00 0.  1.
</event>
<event>
 7    1  0.4237994E-013  0.5930195E+02  0.7816164E-02  0.1266605E+00
        -11   -1    0    0    0    0  0.00000000000E+00  0.00000000000E+00  0.45593999997E+02  0.45594000000E+02  0.51100000000E-03 0.  1.
         11   -1    0    0    0    0 -0.00000000000E+00 -0.00000000000E+00 -0.45593999997E+02  0.45594000000E+02  0.51100000000E-03 0. -1.
    9900012    2    1    2    0    0 -0.12066001062E+02  0.28817091354E+02  0.63802221467E+01  0.59301947087E+02  0.50000005580E+02 0.  0.
         12    1    1    2    0    0  0.12066001062E+02 -0.28817091354E+02 -0.63802221467E+01  0.31886052913E+02  0.00000000000E+00 0. -1.
         11    1    3    3    0    0 -0.37168561844E+01 -0.26174078116E+01  0.14335376198E+02  0.15038911348E+02  0.51100000000E-03 0. -1.
        -11    1    3    3    0    0  0.65922385767E+01  0.22496254314E+02  0.30889013628E+01  0.23644880619E+02  0.51100000000E-03 0.  1.
         12    1    3    3    0    0 -0.14941383454E+02  0.89382448513E+01 -0.11044055414E+02  0.20618155120E+02  0.00000000000E+00 0. -1.
</event>
<event>
 7    1  0.4237994E-013  0.5930195E+02  0.7816164E-02  0.1266605E+00
        -11   -1    0    0    0    0  0.00000000000E+00  0.00000000000E+00  0.45593999997E+02  0.45594000000E+02  0.51100000000E-03 0. -1.
         11   -1    0    0    0    0 -0.00000000000E+00 -0.00000000000E+00 -0.45593999997E+02  0.45594000000E+02  0.51100000000E-03 0.  1.
    9900012    2    1    2    0    0  0.28950882185E+02 -0.78215395199E+01 -0.10834666841E+02  0.59301951870E+02  0.50000014303E+02 0.  0.
         12    1    1    2    0    0 -0.28950882185E+02  0.78215395199E+01  0.10834666841E+02  0.31886048130E+02  0.00000000000E+00 0. -1.
         11    1    3    3    0    0 -0.14515083786E+01 -0.54240564838E+01  0.11557467357E+02  0.12849214657E+02  0.51100000000E-03 0. -1.
        -11    1    3    3    0    0  0.29192837161E+02  0.77180302588E+01 -0.14141633056E+02  0.33343297952E+02  0.51100000000E-03 0.  1.
         12    1    3    3    0    0  0.12095534035E+01 -0.10115513295E+02 -0.82505011425E+01  0.13109439262E+02  0.00000000000E+00 0. -1.
</event>
<event>
 7    1  0.4237994E-013  0.5930194E+02  0.7816164E-02  0.1266605E+00
        -11   -1    0    0    0    0  0.00000000000E+00  0.00000000000E+00  0.45593999997E+02  0.45594000000E+02  0.51100000000E-03 0.  1.
         11   -1    0    0    0    0 -0.00000000000E+00 -0.00000000000E+00 -0.45593999997E+02  0.45594000000E+02  0.51100000000E-03 0. -1.
    9900012    2    1    2    0    0  0.10099499861E+02  0.17241393205E+02  0.24848641626E+02  0.59301944620E+02  0.50000001079E+02 0.  0.
         12    1    1    2    0    0 -0.10099499861E+02 -0.17241393205E+02 -0.24848641626E+02  0.31886055380E+02  0.00000000000E+00 0. -1.
         11    1    3    3    0    0  0.28798418653E+02  0.92361883589E+01  0.13460061969E+02  0.33103313441E+02  0.51100000000E-03 0.  1.
        -11    1    3    3    0    0 -0.16411487947E+02  0.14456399045E+01  0.94207614200E+01  0.18978344431E+02  0.51100000000E-03 0. -1.
        -12    1    3    3    0    0 -0.22874308457E+01  0.65595649412E+01  0.19678182370E+01  0.72202867468E+01  0.00000000000E+00 0.  1.
</event>
<event>
 7    1  0.4237994E-013  0.5930195E+02  0.7816164E-02  0.1266605E+00
        -11   -1    0    0    0    0  0.00000000000E+00  0.00000000000E+00  0.45593999997E+02  0.45594000000E+02  0.51100000000E-03 0. -1.
         11   -1    0    0    0    0 -0.00000000000E+00 -0.00000000000E+00 -0.45593999997E+02  0.45594000000E+02  0.51100000000E-03 0.  1.
    9900012    2    1    2    0    0 -0.21694002632E+02 -0.10629980975E+02 -0.20810913253E+02  0.59301947310E+02  0.50000005986E+02 0.  0.
         12    1    1    2    0    0  0.21694002632E+02  0.10629980975E+02  0.20810913253E+02  0.31886052690E+02  0.00000000000E+00 0. -1.
         11    1    3    3    0    0  0.11672901601E+02 -0.91815005318E+01  0.46151785487E+01  0.15551734858E+02  0.51100000000E-03 0. -1.
        -11    1    3    3    0    0 -0.17178409727E+02 -0.10509266794E+01 -0.54875395602E+01  0.18064199355E+02  0.51100000000E-03 0.  1.
         12    1    3    3    0    0 -0.16188494505E+02 -0.39755376385E+00 -0.19938552242E+02  0.25686013097E+02  0.00000000000E+00 0. -1.
</event>
<event>
 7    1  0.4237994E-013  0.5930193E+02  0.7816164E-02  0.1266605E+00
        -11   -1    0    0    0    0  0.00000000000E+00  0.00000000000E+00  0.45593999997E+02  0.45594000000E+02  0.51100000000E-03 0. -1.
         11   -1    0    0    0    0 -0.00000000000E+00 -0.00000000000E+00 -0.45593999997E+02  0.45594000000E+02  0.51100000000E-03 0.  1.
    9900012    2    1    2    0    0  0.11336055055E+02 -0.10729092275E+02 -0.27804711266E+02  0.59301928843E+02  0.49999972307E+02 0.  0.
         12    1    1    2    0    0 -0.11336055055E+02  0.10729092275E+02  0.27804711266E+02  0.31886071157E+02  0.00000000000E+00 0. -1.
         11    1    3    3    0    0 -0.15682966991E+02 -0.64960019238E+01 -0.19622252616E+02  0.25945833821E+02  0.51100000000E-03 0. -1.
        -11    1    3    3    0    0  0.23567689612E+02  0.33640457560E+01 -0.44674230350E+01  0.24222111104E+02  0.51100000000E-03 0.  1.
        -12    1    3    3    0    0  0.34513324338E+01 -0.75971361074E+01 -0.37150356144E+01  0.91339839183E+01  0.00000000000E+00 0.  1.
</event>
<event>
 7    1  0.4237994E-013  0.5930194E+02  0.7816164E-02  0.1266605E+00
        -11   -1    0    0    0    0  0.00000000000E+00  0.00000000000E+00  0.45593999997E+02  0.45594000000E+02  0.51100000000E-03 0.  1.
         11   -1    0    0    0    0 -0.00000000000E+00 -0.00000000000E+00 -0.45593999997E+02  0.45594000000E+02  0.51100000000E-03 0. -1.
    9900012    2    1    2    0    0 -0.27364055519E+02 -0.15644817649E+02  0.48133885372E+01  0.59301944068E+02  0.50000000073E+02 0.  0.
         12    1    1    2    0    0  0.27364055519E+02  0.15644817649E+02 -0.48133885372E+01  0.31886055932E+02  0.00000000000E+00 0. -1.
         11    1    3    3    0    0 -0.17263273467E+02  0.79441610720E+01 -0.14852806705E+02  0.24119207558E+02  0.51100000000E-03 0. -1.
        -11    1    3    3    0    0 -0.36836914178E+01 -0.25100183506E+01  0.10332979288E+02  0.11253454394E+02  0.51100000000E-03 0.  1.
         12    1    3    3    0    0 -0.64170906336E+01 -0.21078960371E+02  0.93332159550E+01  0.23929282116E+02  0.00000000000E+00 0. -1.
</event>
<event>
 7    1  0.4237994E-013  0.5930197E+02  0.7816164E-02  0.1266605E+00
        -11   -1    0    0    0    0  0.00000000000E+00  0.00000000000E+00  0.45593999997E+02  0.45594000000E+02  0.51100000000E-03 0. -1.
         11   -1    0    0    0    0 -0.00000000000E+00 -0.00000000000E+00 -0.45593999997E+02  0.45594000000E+02  0.51100000000E-03 0.  1.
    9900012    2    1    2    0    0  0.14800821728E+02 -0.20112523849E+02 -0.19827776627E+02  0.59301973823E+02  0.50000054340E+02 0.  0.
         12    1    1    2    0    0 -0.14800821728E+02  0.20112523849E+02  0.19827776627E+02  0.31886026177E+02  0.00000000000E+00 0. -1.
         11    1    3    3    0    0  0.25399923590E+01  0.76926110905E+01 -0.25304370908E+02  0.26569512865E+02  0.51100000000E-03 0. -1.
        -11    1    3    3    0    0  0.13712814739E+02 -0.26670970138E+02  0.37784069379E+01  0.30226781096E+02  0.51100000000E-03 0.  1.
        -12    1    3    3    0    0 -0.14519853707E+01 -0.11341648018E+01  0.16981873440E+01  0.25056798618E+01  0.00000000000E+00 0.  1.
</event>
<event>
 7    1  0.4237994E-013  0.5930191E+02  0.7816164E-02  0.1266605E+00
        -11   -1    0    0    0    0  0.00000000000E+00  0.00000000000E+00  0.45593999997E+02  0.45594000000E+02  0.51100000000E-03 0.  1.
         11   -1    0    0    0    0 -0.00000000000E+00 -0.00000000000E+00 -0.45593999997E+02  0.45594000000E+02  0.51100000000E-03 0. -1.
    9900012    2    1    2    0    0  0.21949516746E+01 -0.27192064263E+02 -0.16507462372E+02  0.59301913917E+02  0.49999945085E+02 0.  0.
         12    1    1    2    0    0 -0.21949516746E+01  0.27192064263E+02  0.16507462372E+02  0.31886086083E+02  0.00000000000E+00 0. -1.
         11    1    3    3    0    0  0.72324395256E+01 -0.33931158865E+01 -0.10861171540E+02  0.13482821084E+02  0.51100000000E-03 0. -1.
        -11    1    3    3    0    0 -0.81098377862E+00 -0.29563509576E+02  0.78044181582E+01  0.30587051773E+02  0.51100000000E-03 0.  1.
        -12    1    3    3    0    0 -0.42265040724E+01  0.57645611994E+01 -0.13450708990E+02  0.15232041060E+02  0.00000000000E+00 0.  1.
</event>
<event>
 7    1  0.4237994E-013  0.5930193E+02  0.7816164E-02  0.1266605E+00
        -11   -1    0    0    0    0  0.00000000000E+00  0.00000000000E+00  0.45593999997E+02  0.45594000000E+02  0.51100000000E-03 0.  1.
         11   -1    0    0    0    0 -0.00000000000E+00 -0.00000000000E+00 -0.45593999997E+02  0.45594000000E+02  0.51100000000E-03 0. -1.
    9900012    2    1    2    0    0  0.21464662943E+02  0.23145461598E+02 -0.45030293280E+01  0.59301930613E+02  0.49999975534E+02 0.  0.
         12    1    1    2    0    0 -0.21464662943E+02 -0.23145461598E+02  0.45030293280E+01  0.31886069387E+02  0.00000000000E+00 0. -1.
         11    1    3    3    0    0 -0.19846461864E+01  0.96557338885E+01 -0.19330285762E+02  0.21698662754E+02  0.51100000000E-03 0. -1.
        -11    1    3    3    0    0  0.26534142025E+02  0.77904077965E+01  0.95860257289E+01  0.29268464876E+02  0.51100000000E-03 0.  1.
        -12    1    3    3    0    0 -0.30848328958E+01  0.56993199128E+01  0.52412307047E+01  0.83348029829E+01  0.00000000000E+00 0.  1.
</event>
<event>
 7    1  0.4237994E-013  0.5930193E+02  0.7816164E-02  0.1266605E+00
        -11   -1    0    0    0    0  0.00000000000E+00  0.00000000000E+00  0.45593999997E+02  0.45594000000E+02  0.51100000000E-03 0.  1.
         11   -1    0    0    0    0 -0.00000000000E+00 -0.00000000000E+00 -0.45593999997E+02  0.45594000000E+02  0.51100000000E-03 0. -1.
    9900012    2    1    2    0    0  0.60625114258E+01  0.13999460002E+02  0.27999683150E+02  0.59301934365E+02  0.49999982378E+02 0.  0.
         12    1    1    2    0    0 -0.60625114258E+01 -0.13999460002E+02 -0.27999683150E+02  0.31886065635E+02  0.00000000000E+00 0. -1.
         11    1    3    3    0    0  0.24598581897E+02  0.12929580020E+02  0.16411842552E+02  0.32274027438E+02  0.51100000000E-03 0.  1.
        -11    1    3    3    0    0 -0.13148763501E+02 -0.53534341577E+01  0.20741593397E+01  0.14347521602E+02  0.51100000000E-03 0. -1.
         12    1    3    3    0    0 -0.53873069697E+01  0.64233141394E+01  0.95136812585E+01  0.12680385326E+02  0.00000000000E+00 0. -1.
</event>
<event>
 7    1  0.4237994E-013  0.5930196E+02  0.7816164E-02  0.1266605E+00
        -11   -1    0    0    0    0  0.00000000000E+00  0.00000000000E+00  0.45593999997E+02  0.45594000000E+02  0.51100000000E-03 0. -1.
         11   -1    0    0    0    0 -0.00000000000E+00 -0.00000000000E+00 -0.45593999997E+02  0.45594000000E+02  0.51100000000E-03 0.  1.
    9900012    2    1    2    0    0  0.26497178027E+02  0.13951172036E+02 -0.10953707770E+02  0.59301962954E+02  0.50000034518E+02 0.  0.
         12    1    1    2    0    0 -0.26497178027E+02 -0.13951172036E+02  0.10953707770E+02  0.31886037046E+02  0.00000000000E+00 0. -1.
         11    1    3    3    0    0  0.48965157402E+01  0.50636462423E+01  0.81478037808E+01  0.10770472895E+02  0.51100000000E-03 0. -1.
        -11    1    3    3    0    0  0.23190648364E+02  0.27385999685E+01 -0.28713699196E+02  0.37010574477E+02  0.51100000000E-03 0.  1.
        -12    1    3    3    0    0 -0.15899860775E+01  0.61489258249E+01  0.96121876456E+01  0.11520915583E+02  0.00000000000E+00 0.  1.
</event>
<event>
 7    1  0.4237994E-013  0.5930194E+02  0.7816164E-02  0.1266605E+00
        -11   -1    0    0    0    0  0.00000000000E+00  0.00000000000E+00  0.45593999997E+02  0.45594000000E+02  0.51100000000E-03 0.  1.
         11   -1    0    0    0    0 -0.00000000000E+00 -0.00000000000E+00 -0.45593999997E+02  0.45594000000E+02  0.51100000000E-03 0. -1.
    9900012    2    1    2    0    0 -0.11489278213E+02  0.18699927988E+01  0.29685360562E+02  0.59301936922E+02  0.49999987041E+02 0.  0.
         12    1    1    2    0    0  0.11489278213E+02 -0.18699927988E+01 -0.29685360562E+02  0.31886063078E+02  0.00000000000E+00 0. -1.
         11    1    3    3    0    0  0.64133370684E+01  0.11115939520E+01  0.19571681272E+02  0.20625645239E+02  0.51100000000E-03 0.  1.
        -11    1    3    3    0    0 -0.77076475501E+01 -0.17724519612E+01 -0.11897907013E+02  0.14286693399E+02  0.51100000000E-03 0. -1.
        -12    1    3    3    0    0 -0.10194967731E+02  0.25308508080E+01  0.22011586303E+02  0.24389598284E+02  0.00000000000E+00 0.  1.
</event>
<event>
 7    1  0.4237994E-013  0.5930198E+02  0.7816164E-02  0.1266605E+00
        -11   -1    0    0    0    0  0.00000000000E+00  0.00000000000E+00  0.45593999997E+02  0.45594000000E+02  0.51100000000E-03 0.  1.
         11   -1    0    0    0    0 -0.00000000000E+00 -0.00000000000E+00 -0.45593999997E+02  0.45594000000E+02  0.51100000000E-03 0. -1.
    9900012    2    1    2    0    0 -0.27172900336E+02  0.16386269576E+02 -0.31371503076E+01  0.59301983389E+02  0.50000071786E+02 0.  0.
         12    1    1    2    0    0  0.27172900336E+02 -0.16386269576E+02  0.31371503076E+01  0.31886016611E+02  0.00000000000E+00 0. -1.
         11    1    3    3    0    0  0.23654923022E+00  0.14484767640E+02 -0.94246539004E+01  0.17282608326E+02  0.51100000000E-03 0. -1.
        -11    1    3    3    0    0 -0.21652292460E+02  0.11087080815E+02  0.14589071360E+02  0.28365227537E+02  0.51100000000E-03 0.  1.
         12    1    3    3    0    0 -0.57571571055E+01 -0.91855788796E+01 -0.83015677675E+01  0.13654147527E+02  0.00000000000E+00 0. -1.
</event>
<event>
 7    1  0.4237994E-013  0.5930195E+02  0.7816164E-02  0.1266605E+00
        -11   -1    0    0    0    0  0.00000000000E+00  0.00000000000E+00  0.45593999997E+02  0.45594000000E+02  0.51100000000E-03 0. -1.
         11   -1    0    0    0    0 -0.00000000000E+00 -0.00000000000E+00 -0.45593999997E+02  0.45594000000E+02  0.51100000000E-03 0.  1.
    9900012    2    1    2    0    0  0.10987256255E+02  0.42410929992E+01 -0.29631287763E+02  0.59301954708E+02  0.50000019479E+02 0.  0.
         12    1    1    2    0    0 -0.10987256255E+02 -0.42410929992E+01  0.29631287763E+02  0.31886045292E+02  0.00000000000E+00 0. -1.
         11    1    3    3    0    0 -0.45894463485E+01 -0.50840266201E+01  0.10528513431E+00  0.68499218740E+01  0.51100000000E-03 0. -1.
        -11    1    3    3    0    0  0.13208204757E+02  0.10781142177E+02 -0.39115444790E+02  0.42669751826E+02  0.51100000000E-03 0.  1.
        -12    1    3    3    0    0  0.23684978472E+01 -0.14560225577E+01  0.93788718925E+01  0.97822810079E+01  0.00000000000E+00 0.  1.
</event>
<event>
 7    1  0.4237994E-013  0.5930195E+02  0.7816164E-02  0.1266605E+00
        -11   -1    0    0    0    0  0.00000000000E+00  0.00000000000E+00  0.45593999997E+02  0.45594000000E+02  0.51100000000E-03 0. -1.
         11   -1    0    0    0    0 -0.00000000000E+00 -0.00000000000E+00 -0.45593999997E+02  0.45594000000E+02  0.51100000000E-03 0.  1.
    9900012    2    1    2    0    0 -0.11693889858E+02 -0.14789680009E+02 -0.25714560743E+02  0.59301947736E+02  0.50000006762E+02 0.  0.
         12    1    1    2    0    0  0.11693889858E+02  0.14789680009E+02  0.25714560743E+02  0.31886052264E+02  0.00000000000E+00 0. -1.
         11    1    3    3    0    0 -0.20491340934E+02  0.48014828983E+01 -0.16132554689E+02  0.26518080857E+02  0.51100000000E-03 0. -1.
        -11    1    3    3    0    0 -0.59838796720E+01 -0.81064043907E+01  0.26557061257E+01  0.10419855247E+02  0.51100000000E-03 0.  1.
         12    1    3    3    0    0  0.14781330748E+02 -0.11484758517E+02 -0.12237712180E+02  0.22364011632E+02  0.00000000000E+00 0. -1.
</event>
<event>
 7    1  0.4237994E-013  0.5930194E+02  0.7816164E-02  0.1266605E+00
        -11   -1    0    0    0    0  0.00000000000E+00  0.00000000000E+00  0.45593999997E+02  0.45594000000E+02  0.51100000000E-03 0.  1.
         11   -1    0    0    0    0 -0.00000000000E+00 -0.00000000000E+00 -0.45593999997E+02  0.45594000000E+02  0.51100000000E-03 0. -1.
    9900012    2    1    2    0    0 -0.47836953633E+01 -0.28229828648E+01  0.31398530225E+02  0.59301942327E+02  0.49999996899E+02 0.  0.
         12    1    1    2    0    0  0.47836953633E+01  0.28229828648E+01 -0.31398530225E+02  0.31886057673E+02  0.00000000000E+00 0. -1.
         11    1    3    3    0    0 -0.60139398157E+01 -0.17873138275E+02  0.22283626355E+02  0.29192063094E+02  0.51100000000E-03 0. -1.
        -11    1    3    3    0    0 -0.75991532064E+00  0.93731247033E+01 -0.77615958733E+01  0.12193248491E+02  0.51100000000E-03 0.  1.
        -12    1    3    3    0    0  0.19901597731E+01  0.56770307068E+01  0.16876499743E+02  0.17916630742E+02  0.00000000000E+00 0.  1.
</event>
<event>
 7    1  0.4237994E-013  0.5930195E+02  0.7816164E-02  0.1266605E+00
        -11   -1    0    0    0    0  0.00000000000E+00  0.00000000000E+00  0.45593999997E+02  0.45594000000E+02  0.51100000000E-03 0. -1.
         11   -1    0    0    0    0 -0.00000000000E+00 -0.00000000000E+00 -0.45593999997E+02  0.45594000000E+02  0.51100000000E-03 0.  1.
    9900012    2    1    2    0    0 -0.27346075538E+02 -0.10376561988E+02 -0.12697991748E+02  0.59301954769E+02  0.50000019590E+02 0.  0.
         12    1    1    2    0    0  0.27346075538E+02  0.10376561988E+02  0.12697991748E+02  0.31886045231E+02  0.00000000000E+00 0. -1.
         11    1    3    3    0    0  0.65281749056E+01 -0.25968129267E+01  0.89149507089E+01  0.11350632202E+02  0.51100000000E-03 0.  1.
        -11    1    3    3    0    0 -0.23580769984E+02  0.20117132691E+01 -0.20236414997E+01  0.23752785700E+02  0.51100000000E-03 0. -1.
        -12    1    3    3    0    0 -0.10293480460E+02 -0.97914623303E+01 -0.19589300958E+02  0.24198536868E+02  0.00000000000E+00 0.  1.
</event>
<event>
 7    1  0.4237994E-013  0.5930195E+02  0.7816164E-02  0.1266605E+00
        -11   -1    0    0    0    0  0.00000000000E+00  0.00000000000E+00  0.45593999997E+02  0.45594000000E+02  0.51100000000E-03 0. -1.
         11   -1    0    0    0    0 -0.00000000000E+00 -0.00000000000E+00 -0.45593999997E+02  0.45594000000E+02  0.51100000000E-03 0.  1.
    9900012    2    1    2    0    0 -0.19089591416E+02  0.23383871172E+02 -0.10271432436E+02  0.59301948884E+02  0.50000008858E+02 0.  0.
         12    1    1    2    0    0  0.19089591416E+02 -0.23383871172E+02  0.10271432436E+02  0.31886051116E+02  0.00000000000E+00 0. -1.
         11    1    3    3    0    0  0.83729549271E+01  0.38399255252E+01  0.25686467227E+01  0.95629152719E+01  0.51100000000E-03 0. -1.
        -11    1    3    3    0    0 -0.33236253408E+02  0.66644966890E+01 -0.99958316520E+01  0.35340921145E+02  0.51100000000E-03 0.  1.
        -12    1    3    3    0    0  0.57737070647E+01  0.12879448958E+02 -0.28442475071E+01  0.14398112467E+02  0.00000000000E+00 0.  1.
</event>
<event>
 7    1  0.4237994E-013  0.5930192E+02  0.7816164E-02  0.1266605E+00
        -11   -1    0    0    0    0  0.00000000000E+00  0.00000000000E+00  0.45593999997E+02  0.45594000000E+02  0.51100000000E-03 0.  1.
         11   -1    0    0    0    0 -0.00000000000E+00 -0.00000000000E+00 -0.45593999997E+02  0.45594000000E+02  0.51100000000E-03 0. -1.
    9900012    2    1    2    0    0  0.22456627126E+02 -0.12692691103E+02  0.18743468068E+02  0.59301919894E+02  0.49999955986E+02 0.  0.
         12    1    1    2    0    0 -0.22456627126E+02  0.12692691103E+02 -0.18743468068E+02  0.31886080106E+02  0.00000000000E+00 0. -1.
         11    1    3    3    0    0  0.62475061335E+01 -0.29359718947E+02  0.60254807298E+01  0.30615859417E+02  0.51100000000E-03 0. -1.
        -11    1    3    3    0    0  0.44830425723E+01  0.16064387864E-01  0.54626838139E+01  0.70667420698E+01  0.51100000000E-03 0.  1.
         12    1    3    3    0    0  0.11726078420E+02  0.16650963457E+02  0.72553035242E+01  0.21619318407E+02  0.00000000000E+00 0. -1.
</event>
<event>
 7    1  0.4237994E-013  0.5930186E+02  0.7816164E-02  0.1266605E+00
        -11   -1    0    0    0    0  0.00000000000E+00  0.00000000000E+00  0.45593999997E+02  0.45594000000E+02  0.51100000000E-03 0. -1.
         11   -1    0    0    0    0 -0.00000000000E+00 -0.00000000000E+00 -0.45593999997E+02  0.45594000000E+02  0.51100000000E-03 0.  1.
    9900012    2    1    2    0    0  0.10722972590E+02  0.25031033643E+02 -0.16588881695E+02  0.59301862224E+02  0.49999850809E+02 0.  0.
         12    1    1    2    0    0 -0.10722972590E+02 -0.25031033643E+02  0.16588881695E+02  0.31886137776E+02  0.00000000000E+00 0. -1.
         11    1    3    3    0    0  0.20801913279E+02  0.19748004709E+02  0.68955623209E+01  0.29500035018E+02  0.51100000000E-03 0. -1.
        -11    1    3    3    0    0 -0.69654528058E+00  0.80741778171E+01 -0.13973143535E+02  0.16153212165E+02  0.51100000000E-03 0.  1.
         12    1    3    3    0    0 -0.93823954088E+01 -0.27911488828E+01 -0.95113004806E+01  0.13648615041E+02  0.00000000000E+00 0. -1.
</event>
<event>
 7    1  0.4237994E-013  0.5930199E+02  0.7816164E-02  0.1266605E+00
        -11   -1    0    0    0    0  0.00000000000E+00  0.00000000000E+00  0.45593999997E+02  0.45594000000E+02  0.51100000000E-03 0.  1.
         11   -1    0    0    0    0 -0.00000000000E+00 -0.00000000000E+00 -0.45593999997E+02  0.45594000000E+02  0.51100000000E-03 0. -1.
    9900012    2    1    2    0    0 -0.10733789822E+02 -0.15196227468E+02  0.25895518472E+02  0.59301992879E+02  0.50000089093E+02 0.  0.
         12    1    1    2    0    0  0.10733789822E+02  0.15196227468E+02 -0.25895518472E+02  0.31886007121E+02  0.00000000000E+00 0. -1.
         11    1    3    3    0    0  0.13499459144E+02 -0.10324657898E+02 -0.63574087777E+01  0.18145263969E+02  0.51100000000E-03 0. -1.
        -11    1    3    3    0    0 -0.34325100813E+01 -0.29084067984E+01  0.40170466199E+01  0.60313861898E+01  0.51100000000E-03 0.  1.
         12    1    3    3    0    0 -0.20800738885E+02 -0.19631627711E+01  0.28235880630E+02  0.35125342720E+02  0.00000000000E+00 0. -1.
</event>
<event>
 7    1  0.4237994E-013  0.5930195E+02  0.7816164E-02  0.1266605E+00
        -11   -1    0    0    0    0  0.00000000000E+00  0.00000000000E+00  0.45593999997E+02  0.45594000000E+02  0.51100000000E-03 0.  1.
         11   -1    0    0    0    0 -0.00000000000E+00 -0.00000000000E+00 -0.45593999997E+02  0.45594000000E+02  0.51100000000E-03 0. -1.
    9900012    2    1    2    0    0  0.18242147940E+02 -0.73971634419E+01  0.25084387173E+02  0.59301945552E+02  0.50000002779E+02 0.  0.
         12    1    1    2    0    0 -0.18242147940E+02  0.73971634419E+01 -0.25084387173E+02  0.31886054448E+02  0.00000000000E+00 0. -1.
         11    1    3    3    0    0  0.10545998598E+01  0.16618118602E+02  0.59486520629E+01  0.17682208809E+02  0.51100000000E-03 0. -1.
        -11    1    3    3    0    0  0.19560130442E+02 -0.12029916884E+02  0.18317759752E+02  0.29374443411E+02  0.51100000000E-03 0.  1.
         12    1    3    3    0    0 -0.23725823622E+01 -0.11985365160E+02  0.81797535825E+00  0.12245293332E+02  0.00000000000E+00 0. -1.
</event>
<event>
 7    1  0.4237994E-013  0.5930194E+02  0.7816164E-02  0.1266605E+00
        -11   -1    0    0    0    0  0.00000000000E+00  0.00000000000E+00  0.45593999997E+02  0.45594000000E+02  0.51100000000E-03 0. -1.
         11   -1    0    0    0    0 -0.00000000000E+00 -0.00000000000E+00 -0.45593999997E+02  0.45594000000E+02  0.51100000000E-03 0.  1.
    9900012    2    1    2    0    0  0.26236618107E+02  0.16458426398E+01 -0.18045827678E+02  0.59301939969E+02  0.49999992598E+02 0.  0.
         12    1    1    2    0    0 -0.26236618107E+02 -0.16458426398E+01  0.18045827678E+02  0.31886060031E+02  0.00000000000E+00 0. -1.
         11    1    3    3    0    0  0.99082470605E+01  0.92186080824E+01 -0.51920766713E+01  0.14495301142E+02  0.51100000000E-03 0. -1.
        -11    1    3    3    0    0 -0.11868261728E+00 -0.13931723223E+02  0.91054075603E+01  0.16643780960E+02  0.51100000000E-03 0.  1.
        -12    1    3    3    0    0  0.16447053664E+02  0.63589577805E+01 -0.21959158567E+02  0.28162857867E+02  0.00000000000E+00 0.  1.
</event>
<event>
 7    1  0.4237994E-013  0.5930192E+02  0.7816164E-02  0.1266605E+00
        -11   -1    0    0    0    0  0.00000000000E+00  0.00000000000E+00  0.45593999997E+02  0.45594000000E+02  0.51100000000E-03 0.  1.
         11   -1    0    0    0    0 -0.00000000000E+00 -0.00000000000E+00 -0.45593999997E+02  0.45594000000E+02  0.51100000000E-03 0. -1.
    9900012    2    1    2    0    0 -0.88923929950E+01 -0.13874037910E+02  0.27297586262E+02  0.59301924719E+02  0.49999964785E+02 0.  0.
         12    1    1    2    0    0  0.88923929950E+01  0.13874037910E+02 -0.27297586262E+02  0.31886075281E+02  0.00000000000E+00 0. -1.
         11    1    3    3    0    0  0.66243965043E+01  0.83101212827E+01  0.18719801279E+01  0.10790970978E+02  0.51100000000E-03 0. -1.
        -11    1    3    3    0    0 -0.23600808498E+02 -0.95165955290E+01  0.20561633763E+02  0.32716120423E+02  0.51100000000E-03 0.  1.
        -12    1    3    3    0    0  0.80840189987E+01 -0.12667563664E+02  0.48639723708E+01  0.15794833319E+02  0.00000000000E+00 0.  1.
</event>
<event>
 7    1  0.4237994E-013  0.5930195E+02  0.7816164E-02  0.1266605E+00
        -11   -1    0    0    0    0  0.00000000000E+00  0.00000000000E+00  0.45593999997E+02  0.45594000000E+02  0.51100000000E-03 0. -1.
         11   -1    0    0    0    0 -0.00000000000E+00 -0.00000000000E+00 -0.45593999997E+02  0.45594000000E+02  0.51100000000E-03 0.  1.
    9900012    2    1    2    0    0 -0.95261885666E+01 -0.30343900040E+02 -0.22846806284E+01  0.59301948130E+02  0.50000007482E+02 0.  0.
         12    1    1    2    0    0  0.95261885666E+01  0.30343900040E+02  0.22846806284E+01  0.31886051870E+02  0.00000000000E+00 0. -1.
         11    1    3    3    0    0  0.16997052218E+02 -0.13985980403E+01 -0.58891527642E+01  0.18042671120E+02  0.51100000000E-03 0. -1.
        -11    1    3    3    0    0 -0.57651236465E+01 -0.15044929234E+02  0.17968535798E+01  0.16211577017E+02  0.51100000000E-03 0.  1.
         12    1    3    3    0    0 -0.20758117138E+02 -0.13900372766E+02  0.18076185559E+01  0.25047699994E+02  0.00000000000E+00 0. -1.
</event>
<event>
 7    1  0.4237994E-013  0.5930200E+02  0.7816164E-02  0.1266605E+00
        -11   -1    0    0    0    0  0.00000000000E+00  0.00000000000E+00  0.45593999997E+02  0.45594000000E+02  0.51100000000E-03 0.  1.
         11   -1    0    0    0    0 -0.00000000000E+00 -0.00000000000E+00 -0.45593999997E+02  0.45594000000E+02  0.51100000000E-03 0. -1.
    9900012    2    1    2    0    0  0.27408203400E+02 -0.65333120806E+01  0.14927262355E+02  0.59302000851E+02  0.50000103631E+02 0.  0.
         12    1    1    2    0    0 -0.27408203400E+02  0.65333120806E+01 -0.14927262355E+02  0.31885999149E+02  0.00000000000E+00 0. -1.
         11    1    3    3    0    0 -0.39170224798E+01  0.12220671190E+02 -0.55980435248E+01  0.14000927148E+02  0.51100000000E-03 0. -1.
        -11    1    3    3    0    0  0.13279060749E+02 -0.11465170361E+02  0.18874272037E+02  0.25768619113E+02  0.51100000000E-03 0.  1.
        -12    1    3    3    0    0  0.18046165131E+02 -0.72888129093E+01  0.16510338428E+01  0.19532454590E+02  0.00000000000E+00 0.  1.
</event>
<event>
 7    1  0.4237994E-013  0.5930193E+02  0.7816164E-02  0.1266605E+00
        -11   -1    0    0    0    0  0.00000000000E+00  0.00000000000E+00  0.45593999997E+02  0.45594000000E+02  0.51100000000E-03 0.  1.
         11   -1    0    0    0    0 -0.00000000000E+00 -0.00000000000E+00 -0.45593999997E+02  0.45594000000E+02  0.51100000000E-03 0. -1.
    9900012    2    1    2    0    0  0.12585483736E+02 -0.21081245064E+02  0.20344740841E+02  0.59301925074E+02  0.49999965432E+02 0.  0.
         12    1    1    2    0    0 -0.12585483736E+02  0.21081245064E+02 -0.20344740841E+02  0.31886074926E+02  0.00000000000E+00 0. -1.
         11    1    3    3    0    0  0.19640183091E+02 -0.74661322894E+01  0.16201379290E+02  0.26532331491E+02  0.51100000000E-03 0. -1.
        -11    1    3    3    0    0 -0.66471112929E+00 -0.13538506672E+02 -0.10268043228E+02  0.17004873295E+02  0.51100000000E-03 0.  1.
        -12    1    3    3    0    0 -0.63899882255E+01 -0.76606102507E-01  0.14411404780E+02  0.15764720287E+02  0.00000000000E+00 0.  1.
</event>
<event>
 7    1  0.4237994E-013  0.5930194E+02  0.7816164E-02  0.1266605E+00
        -11   -1    0    0    0    0  0.00000000000E+00  0.00000000000E+00  0.45593999997E+02  0.45594000000E+02  0.51100000000E-03 0. -1.
         11   -1    0    0    0    0 -0.00000000000E+00 -0.00000000000E+00 -0.45593999997E+02  0.45594000000E+02  0.51100000000E-03 0.  1.
    9900012    2    1    2    0    0 -0.17942621438E+02 -0.20002826047E+02 -0.17165960088E+02  0.59301938787E+02  0.49999990443E+02 0.  0.
         12    1    1    2    0    0  0.17942621438E+02  0.20002826047E+02  0.17165960088E+02  0.31886061213E+02  0.00000000000E+00 0. -1.
         11    1    3    3    0    0  0.56544502812E+01 -0.15119133683E+02  0.23069124342E+01  0.16305914772E+02  0.51100000000E-03 0. -1.
        -11    1    3    3    0    0 -0.27735009222E+02  0.28926013017E+00 -0.65882197412E+01  0.28508227718E+02  0.51100000000E-03 0.  1.
        -12    1    3    3    0    0  0.41379375031E+01 -0.51729524941E+01 -0.12884652781E+02  0.14487796298E+02  0.00000000000E+00 0.  1.
</event>
<event>
 7    1  0.4237994E-013  0.5930193E+02  0.7816164E-02  0.1266605E+00
        -11   -1    0    0    0    0  0.00000000000E+00  0.00000000000E+00  0.45593999997E+02  0.45594000000E+02  0.51100000000E-03 0.  1.
         11   -1    0    0    0    0 -0.00000000000E+00 -0.00000000000E+00 -0.45593999997E+02  0.45594000000E+02  0.51100000000E-03 0. -1.
    9900012    2    1    2    0    0  0.15561011136E+02 -0.11308828019E+02  0.25430032264E+02  0.59301934082E+02  0.49999981861E+02 0.  0.
         12    1    1    2    0    0 -0.15561011136E+02  0.11308828019E+02 -0.25430032264E+02  0.31886065918E+02  0.00000000000E+00 0. -1.
         11    1    3    3    0    0  0.65291482793E+01 -0.10228818455E+02 -0.12372847496E+02  0.17330489309E+02  0.51100000000E-03 0. -1.
        -11    1    3    3    0    0 -0.31037843586E+01 -0.38327043907E+01  0.17285609786E+02  0.17975411156E+02  0.51100000000E-03 0.  1.
         12    1    3    3    0    0  0.12135647216E+02  0.27526948267E+01  0.20517269975E+02  0.23996033617E+02  0.00000000000E+00 0. -1.
</event>
<event>
 7    1  0.4237994E-013  0.5930194E+02  0.7816164E-02  0.1266605E+00
        -11   -1    0    0    0    0  0.00000000000E+00  0.00000000000E+00  0.45593999997E+02  0.45594000000E+02  0.51100000000E-03 0.  1.
         11   -1    0    0    0    0 -0.00000000000E+00 -0.00000000000E+00 -0.45593999997E+02  0.45594000000E+02  0.51100000000E-03 0. -1.
    9900012    2    1    2    0    0 -0.44961442470E+01 -0.27723795041E+02  0.15096242729E+02  0.59301942402E+02  0.49999997036E+02 0.  0.
         12    1    1    2    0    0  0.44961442470E+01  0.27723795041E+02 -0.15096242729E+02  0.31886057598E+02  0.00000000000E+00 0. -1.
         11    1    3    3    0    0 -0.14657620113E+02 -0.12603214266E+02  0.18722111534E+01  0.19421431773E+02  0.51100000000E-03 0. -1.
        -11    1    3    3    0    0  0.51466123673E+01 -0.94413221438E+01  0.24235750512E+02  0.26514105412E+02  0.51100000000E-03 0.  1.
        -12    1    3    3    0    0  0.50148634991E+01 -0.56792586313E+01 -0.11011718936E+02  0.13366405218E+02  0.00000000000E+00 0.  1.
</event>
<event>
 7    1  0.4237994E-013  0.5930193E+02  0.7816164E-02  0.1266605E+00
        -11   -1    0    0    0    0  0.00000000000E+00  0.00000000000E+00  0.45593999997E+02  0.45594000000E+02  0.51100000000E-03 0.  1.
         11   -1    0    0    0    0 -0.00000000000E+00 -0.00000000000E+00 -0.45593999997E+02  0.45594000000E+02  0.51100000000E-03 0. -1.
    9900012    2    1    2    0    0 -0.13011290395E+02  0.15346392558E+01  0.29070131535E+02  0.59301931837E+02  0.49999977768E+02 0.  0.
         12    1    1    2    0    0  0.13011290395E+02 -0.15346392558E+01 -0.29070131535E+02  0.31886068163E+02  0.00000000000E+00 0. -1.
         11    1    3    3    0    0 -0.80725229588E+01 -0.23038067784E+02  0.10072087695E+02  0.26407672085E+02  0.51100000000E-03 0. -1.
        -11    1    3    3    0    0  0.12877716900E+01  0.89068917655E+01  0.25786694117E+01  0.93616565331E+01  0.51100000000E-03 0.  1.
         12    1    3    3    0    0 -0.62265391258E+01  0.15665815274E+02  0.16419374428E+02  0.23532603220E+02  0.00000000000E+00 0. -1.
</event>
<event>
 7    1  0.4237994E-013  0.5930197E+02  0.7816164E-02  0.1266605E+00
        -11   -1    0    0    0    0  0.00000000000E+00  0.00000000000E+00  0.45593999997E+02  0.45594000000E+02  0.51100000000E-03 0.  1.
         11   -1    0    0    0    0 -0.00000000000E+00 -0.00000000000E+00 -0.45593999997E+02  0.45594000000E+02  0.51100000000E-03 0. -1.
    9900012    2    1    2    0    0 -0.15627981923E+02  0.32393589457E+01  0.27604196052E+02  0.59301970064E+02  0.50000047485E+02 0.  0.
         12    1    1    2    0    0  0.15627981923E+02 -0.32393589457E+01 -0.27604196052E+02  0.31886029936E+02  0.00000000000E+00 0. -1.
         11    1    3    3    0    0 -0.53204471451E+01 -0.89091891621E+01  0.94396637764E+01  0.14028116831E+02  0.51100000000E-03 0. -1.
        -11    1    3    3    0    0  0.61802513800E+01  0.18375534866E+01 -0.94859855653E+01  0.11469787807E+02  0.51100000000E-03 0.  1.
        -12    1    3    3    0    0 -0.16487786158E+02  0.10310994621E+02  0.27650517841E+02  0.33804065426E+02  0.00000000000E+00 0.  1.
</event>
<event>
 7    1  0.4237994E-013  0.5930193E+02  0.7816164E-02  0.1266605E+00
        -11   -1    0    0    0    0  0.00000000000E+00  0.00000000000E+00  0.45593999997E+02  0.45594000000E+02  0.51100000000E-03 0.  1.
         11   -1    0    0    0    0 -0.00000000000E+00 -0.00000000000E+00 -0.45593999997E+02  0.45594000000E+02  0.51100000000E-03 0. -1.
    9900012    2    1    2    0    0 -0.13824076312E+02  0.23406750967E+02  0.16665538935E+02  0.59301933063E+02  0.49999980002E+02 0.  0.
         12    1    1    2    0    0  0.13824076312E+02 -0.23406750967E+02 -0.16665538935E+02  0.31886066937E+02  0.00000000000E+00 0. -1.
         11    1    3    3    0    0 -0.19008364620E+02  0.26665069762E+02 -0.75439326538E+01  0.33604386486E+02  0.51100000000E-03 0.  1.
        -11    1    3    3    0    0  0.12596059880E+00 -0.19346097188E+00  0.13183062123E+02  0.13185083255E+02  0.51100000000E-03 0. -1.
        -12    1    3    3    0    0  0.50583277099E+01 -0.30648578222E+01  0.11026409466E+02  0.12512463323E+02  0.00000000000E+00 0.  1.
</event>
<event>
 7    1  0.4237994E-013  0.5930185E+02  0.7816164E-02  0.1266605E+00
        -11   -1    0    0    0    0  0.00000000000E+00  0.00000000000E+00  0.45593999997E+02  0.45594000000E+02  0.51100000000E-03 0.  1.
         11   -1    0    0    0    0 -0.00000000000E+00 -0.00000000000E+00 -0.45593999997E+02  0.45594000000E+02  0.51100000000E-03 0. -1.
    9900012    2    1    2    0    0  0.38614536729E+01 -0.13119534839E+02  0.28804406513E+02  0.59301845427E+02  0.49999820176E+02 0.  0.
         12    1    1    2    0    0 -0.38614536729E+01  0.13119534839E+02 -0.28804406513E+02  0.31886154573E+02  0.00000000000E+00 0. -1.
         11    1    3    3    0    0 -0.15003550688E+02  0.98742190943E+01  0.17479522175E+02  0.25062729933E+02  0.51100000000E-03 0.  1.
        -11    1    3    3    0    0  0.12661904275E+02 -0.20203520646E+02  0.38835227213E+01  0.24157562281E+02  0.51100000000E-03 0. -1.
        -12    1    3    3    0    0  0.62031000858E+01 -0.27902332866E+01  0.74413616171E+01  0.10081553213E+02  0.00000000000E+00 0.  1.
</event>
<event>
 7    1  0.4237994E-013  0.5930221E+02  0.7816164E-02  0.1266604E+00
        -11   -1    0    0    0    0  0.00000000000E+00  0.00000000000E+00  0.45593999997E+02  0.45594000000E+02  0.51100000000E-03 0.  1.
         11   -1    0    0    0    0 -0.00000000000E+00 -0.00000000000E+00 -0.45593999997E+02  0.45594000000E+02  0.51100000000E-03 0. -1.
    9900012    2    1    2    0    0  0.27234974841E+02  0.16573267833E+02 -0.53511041974E+00  0.59302213129E+02  0.50000490773E+02 0.  0.
         12    1    1    2    0    0 -0.27234974841E+02 -0.16573267833E+02  0.53511041974E+00  0.31885786871E+02  0.00000000000E+00 0. -1.
         11    1    3    3    0    0  0.12602263325E+01  0.23424242527E+02  0.73059690305E+00  0.23469492548E+02  0.51100000000E-03 0. -1.
        -11    1    3    3    0    0  0.28707602577E+02 -0.38228622255E+01 -0.60078949955E+01  0.29577618630E+02  0.51100000000E-03 0.  1.
        -12    1    3    3    0    0 -0.27328540684E+01 -0.30281124688E+01  0.47421876727E+01  0.62551019500E+01  0.00000000000E+00 0.  1.
</event>
<event>
 7    1  0.4237994E-013  0.5930201E+02  0.7816164E-02  0.1266605E+00
        -11   -1    0    0    0    0  0.00000000000E+00  0.00000000000E+00  0.45593999997E+02  0.45594000000E+02  0.51100000000E-03 0.  1.
         11   -1    0    0    0    0 -0.00000000000E+00 -0.00000000000E+00 -0.45593999997E+02  0.45594000000E+02  0.51100000000E-03 0. -1.
    9900012    2    1    2    0    0  0.17806266207E+02 -0.12186200865E+02  0.23476575684E+02  0.59302012269E+02  0.50000124455E+02 0.  0.
         12    1    1    2    0    0 -0.17806266207E+02  0.12186200865E+02 -0.23476575684E+02  0.31885987731E+02  0.00000000000E+00 0. -1.
         11    1    3    3    0    0  0.40615380750E+01 -0.27889340015E+02  0.32626637057E+01  0.28371752725E+02  0.51100000000E-03 0. -1.
        -11    1    3    3    0    0  0.15057783340E+02  0.11970623375E+02  0.18237605803E+02  0.26507412714E+02  0.51100000000E-03 0.  1.
        -12    1    3    3    0    0 -0.13130552080E+01  0.37325157741E+01  0.19763061749E+01  0.44228468298E+01  0.00000000000E+00 0.  1.
</event>
<event>
 7    1  0.4237994E-013  0.5930194E+02  0.7816164E-02  0.1266605E+00
        -11   -1    0    0    0    0  0.00000000000E+00  0.00000000000E+00  0.45593999997E+02  0.45594000000E+02  0.51100000000E-03 0.  1.
         11   -1    0    0    0    0 -0.00000000000E+00 -0.00000000000E+00 -0.45593999997E+02  0.45594000000E+02  0.51100000000E-03 0. -1.
    9900012    2    1    2    0    0  0.21983899834E+02  0.14018637464E+02 -0.18355012781E+02  0.59301944389E+02  0.50000000658E+02 0.  0.
         12    1    1    2    0    0 -0.21983899834E+02 -0.14018637464E+02  0.18355012781E+02  0.31886055611E+02  0.00000000000E+00 0. -1.
         11    1    3    3    0    0  0.22899633168E+02 -0.12121514996E+02  0.17920881515E+01  0.25971829070E+02  0.51100000000E-03 0. -1.
        -11    1    3    3    0    0  0.81904633956E+00  0.14499585841E+02 -0.87947971784E+01  0.16978141363E+02  0.51100000000E-03 0.  1.
         12    1    3    3    0    0 -0.17347796739E+01  0.11640566619E+02 -0.11352303754E+02  0.16351973956E+02  0.00000000000E+00 0. -1.
</event>
<event>
 7    1  0.4237994E-013  0.5930193E+02  0.7816164E-02  0.1266605E+00
        -11   -1    0    0    0    0  0.00000000000E+00  0.00000000000E+00  0.45593999997E+02  0.45594000000E+02  0.51100000000E-03 0. -1.
         11   -1    0    0    0    0 -0.00000000000E+00 -0.00000000000E+00 -0.45593999997E+02  0.45594000000E+02  0.51100000000E-03 0.  1.
    9900012    2    1    2    0    0  0.19370598804E+00 -0.45683368230E-01 -0.31885448699E+02  0.59301930193E+02  0.49999974770E+02 0.  0.
         12    1    1    2    0    0 -0.19370598804E+00  0.45683368230E-01  0.31885448699E+02  0.31886069807E+02  0.00000000000E+00 0. -1.
         11    1    3    3    0    0 -0.16025089681E+01 -0.88918855898E+01  0.65961129266E+01  0.11186705071E+02  0.51100000000E-03 0. -1.
        -11    1    3    3    0    0  0.68661187065E+01  0.17458819957E+02 -0.22892162140E+02  0.29597382792E+02  0.51100000000E-03 0.  1.
         12    1    3    3    0    0 -0.50699037503E+01 -0.86126177358E+01 -0.15589399485E+02  0.18517842331E+02  0.00000000000E+00 0. -1.
</event>
<event>
 7    1  0.4237994E-013  0.5930194E+02  0.7816164E-02  0.1266605E+00
        -11   -1    0    0    0    0  0.00000000000E+00  0.00000000000E+00  0.45593999997E+02  0.45594000000E+02  0.51100000000E-03 0. -1.
         11   -1    0    0    0    0 -0.00000000000E+00 -0.00000000000E+00 -0.45593999997E+02  0.45594000000E+02  0.51100000000E-03 0.  1.
    9900012    2    1    2    0    0  0.42867018744E+00 -0.93386291959E+01 -0.30484866192E+02  0.59301940034E+02  0.49999992717E+02 0.  0.
         12    1    1    2    0    0 -0.42867018744E+00  0.93386291959E+01  0.30484866192E+02  0.31886059966E+02  0.00000000000E+00 0. -1.
         11    1    3    3    0    0 -0.70432772896E+01 -0.40096916269E+01  0.33833955265E+01  0.87825251193E+01  0.51100000000E-03 0. -1.
        -11    1    3    3    0    0  0.21611233718E+02 -0.49544927798E+01 -0.14333108034E+02  0.26401333445E+02  0.51100000000E-03 0.  1.
        -12    1    3    3    0    0 -0.14139286241E+02 -0.37444478920E+00 -0.19535153685E+02  0.24118081470E+02  0.00000000000E+00 0.  1.
</event>
<event>
 7    1  0.4237994E-013  0.5930195E+02  0.7816164E-02  0.1266605E+00
        -11   -1    0    0    0    0  0.00000000000E+00  0.00000000000E+00  0.45593999997E+02  0.45594000000E+02  0.51100000000E-03 0. -1.
         11   -1    0    0    0    0 -0.00000000000E+00 -0.00000000000E+00 -0.45593999997E+02  0.45594000000E+02  0.51100000000E-03 0.  1.
    9900012    2    1    2    0    0 -0.38282448951E+01  0.13439332715E+02 -0.28660934398E+02  0.59301948451E+02  0.50000008067E+02 0.  0.
         12    1    1    2    0    0  0.38282448951E+01 -0.13439332715E+02  0.28660934398E+02  0.31886051549E+02  0.00000000000E+00 0. -1.
         11    1    3    3    0    0 -0.51827261079E+01  0.85949187262E+01  0.33268359985E+01  0.10573604676E+02  0.51100000000E-03 0. -1.
        -11    1    3    3    0    0  0.11417581249E+02 -0.43386929574E+01 -0.32880470013E+02  0.35075785475E+02  0.51100000000E-03 0.  1.
        -12    1    3    3    0    0 -0.10063100036E+02  0.91831069459E+01  0.89269961649E+00  0.13652558300E+02  0.00000000000E+00 0.  1.
</event>
<event>
 7    1  0.4237994E-013  0.5930196E+02  0.7816164E-02  0.1266605E+00
        -11   -1    0    0    0    0  0.00000000000E+00  0.00000000000E+00  0.45593999997E+02  0.45594000000E+02  0.51100000000E-03 0. -1.
         11   -1    0    0    0    0 -0.00000000000E+00 -0.00000000000E+00 -0.45593999997E+02  0.45594000000E+02  0.51100000000E-03 0.  1.
    9900012    2    1    2    0    0  0.18912003585E+02  0.11952322169E+01 -0.25644240727E+02  0.59301960075E+02  0.50000029267E+02 0.  0.
         12    1    1    2    0    0 -0.18912003585E+02 -0.11952322169E+01  0.25644240727E+02  0.31886039925E+02  0.00000000000E+00 0. -1.
         11    1    3    3    0    0  0.17432214200E+02  0.14340624922E+01  0.11909325603E+02  0.21160592235E+02  0.51100000000E-03 0. -1.
        -11    1    3    3    0    0  0.19061226684E+01 -0.10387306181E+01 -0.38053130052E+01  0.43809442194E+01  0.51100000000E-03 0.  1.
         12    1    3    3    0    0 -0.42633328331E+00  0.79990034277E+00 -0.33748253325E+02  0.33760423621E+02  0.00000000000E+00 0. -1.
</event>
<event>
 7    1  0.4237994E-013  0.5930195E+02  0.7816164E-02  0.1266605E+00
        -11   -1    0    0    0    0  0.00000000000E+00  0.00000000000E+00  0.45593999997E+02  0.45594000000E+02  0.51100000000E-03 0.  1.
         11   -1    0    0    0    0 -0.00000000000E+00 -0.00000000000E+00 -0.45593999997E+02  0.45594000000E+02  0.51100000000E-03 0. -1.
    9900012    2    1    2    0    0 -0.13864902066E+02  0.13581093468E+02  0.25298987265E+02  0.59301947160E+02  0.50000005713E+02 0.  0.
         12    1    1    2    0    0  0.13864902066E+02 -0.13581093468E+02 -0.25298987265E+02  0.31886052840E+02  0.00000000000E+00 0. -1.
         11    1    3    3    0    0 -0.99623686878E+01  0.12406244009E+02 -0.12408125530E+02  0.20177345210E+02  0.51100000000E-03 0. -1.
        -11    1    3    3    0    0 -0.30370178645E+00  0.50557245780E+01  0.20837124899E+02  0.21443842009E+02  0.51100000000E-03 0.  1.
         12    1    3    3    0    0 -0.35988315917E+01 -0.38808751190E+01  0.16869987896E+02  0.17680759942E+02  0.00000000000E+00 0. -1.
</event>
<event>
 7    1  0.4237994E-013  0.5930187E+02  0.7816164E-02  0.1266605E+00
        -11   -1    0    0    0    0  0.00000000000E+00  0.00000000000E+00  0.45593999997E+02  0.45594000000E+02  0.51100000000E-03 0.  1.
         11   -1    0    0    0    0 -0.00000000000E+00 -0.00000000000E+00 -0.45593999997E+02  0.45594000000E+02  0.51100000000E-03 0. -1.
    9900012    2    1    2    0    0 -0.14625065421E+02  0.28313976247E+02  0.10729376040E+01  0.59301874732E+02  0.49999873622E+02 0.  0.
         12    1    1    2    0    0  0.14625065421E+02 -0.28313976247E+02 -0.10729376040E+01  0.31886125268E+02  0.00000000000E+00 0. -1.
         11    1    3    3    0    0  0.84247059606E+01 -0.78594518805E+00  0.28242855156E+01  0.89202000704E+01  0.51100000000E-03 0. -1.
        -11    1    3    3    0    0 -0.15185367839E+02  0.34476706390E+02  0.59393324370E+01  0.38138095783E+02  0.51100000000E-03 0.  1.
        -12    1    3    3    0    0 -0.78644035427E+01 -0.53767849552E+01 -0.76906803485E+01  0.12243578879E+02  0.00000000000E+00 0.  1.
</event>
<event>
 7    1  0.4237994E-013  0.5930194E+02  0.7816164E-02  0.1266605E+00
        -11   -1    0    0    0    0  0.00000000000E+00  0.00000000000E+00  0.45593999997E+02  0.45594000000E+02  0.51100000000E-03 0.  1.
         11   -1    0    0    0    0 -0.00000000000E+00 -0.00000000000E+00 -0.45593999997E+02  0.45594000000E+02  0.51100000000E-03 0. -1.
    9900012    2    1    2    0    0 -0.31350869856E+02  0.24476632465E+01 -0.52775691267E+01  0.59301939849E+02  0.49999992378E+02 0.  0.
         12    1    1    2    0    0  0.31350869856E+02 -0.24476632465E+01  0.52775691267E+01  0.31886060151E+02  0.00000000000E+00 0. -1.
         11    1    3    3    0    0 -0.24140468163E+02 -0.12618486721E+02 -0.62523247812E+01  0.27947808066E+02  0.51100000000E-03 0. -1.
        -11    1    3    3    0    0  0.89832256566E+01  0.11277198387E+02  0.25763735828E+01  0.14646202503E+02  0.51100000000E-03 0.  1.
        -12    1    3    3    0    0 -0.16193627350E+02  0.37889515806E+01 -0.16016179283E+01  0.16707929279E+02  0.00000000000E+00 0.  1.
</event>
<event>
 7    1  0.4237994E-013  0.5930194E+02  0.7816164E-02  0.1266605E+00
        -11   -1    0    0    0    0  0.00000000000E+00  0.00000000000E+00  0.45593999997E+02  0.45594000000E+02  0.51100000000E-03 0.  1.
         11   -1    0    0    0    0 -0.00000000000E+00 -0.00000000000E+00 -0.45593999997E+02  0.45594000000E+02  0.51100000000E-03 0. -1.
    9900012    2    1    2    0    0 -0.28257813178E+02  0.97931996067E+01  0.11059374974E+02  0.59301944443E+02  0.50000000758E+02 0.  0.
         12    1    1    2    0    0  0.28257813178E+02 -0.97931996067E+01 -0.11059374974E+02  0.31886055557E+02  0.00000000000E+00 0. -1.
         11    1    3    3    0    0 -0.58373749394E+00  0.31301779367E+01 -0.17249819497E+02  0.17541238163E+02  0.51100000000E-03 0. -1.
        -11    1    3    3    0    0 -0.21474740578E+02  0.62288511364E+01  0.14588041421E+02  0.26697828041E+02  0.51100000000E-03 0.  1.
         12    1    3    3    0    0 -0.61993351058E+01  0.43417053360E+00  0.13721153050E+02  0.15062878239E+02  0.00000000000E+00 0. -1.
</event>
<event>
 7    1  0.4237994E-013  0.5930190E+02  0.7816164E-02  0.1266605E+00
        -11   -1    0    0    0    0  0.00000000000E+00  0.00000000000E+00  0.45593999997E+02  0.45594000000E+02  0.51100000000E-03 0. -1.
         11   -1    0    0    0    0 -0.00000000000E+00 -0.00000000000E+00 -0.45593999997E+02  0.45594000000E+02  0.51100000000E-03 0.  1.
    9900012    2    1    2    0    0 -0.40847984399E+01  0.29878577214E+02 -0.10358979726E+02  0.59301899336E+02  0.49999918493E+02 0.  0.
         12    1    1    2    0    0  0.40847984399E+01 -0.29878577214E+02  0.10358979726E+02  0.31886100664E+02  0.00000000000E+00 0. -1.
         11    1    3    3    0    0  0.15648822429E+01 -0.28808260258E+01  0.93695311166E+01  0.99265365879E+01  0.51100000000E-03 0. -1.
        -11    1    3    3    0    0  0.82370086770E+01  0.29531182405E+02 -0.16256193512E+02  0.34701626387E+02  0.51100000000E-03 0.  1.
         12    1    3    3    0    0 -0.13886689360E+02  0.32282208345E+01 -0.34723173307E+01  0.14673736360E+02  0.00000000000E+00 0. -1.
</event>
<event>
 7    1  0.4237994E-013  0.5930193E+02  0.7816164E-02  0.1266605E+00
        -11   -1    0    0    0    0  0.00000000000E+00  0.00000000000E+00  0.45593999997E+02  0.45594000000E+02  0.51100000000E-03 0.  1.
         11   -1    0    0    0    0 -0.00000000000E+00 -0.00000000000E+00 -0.45593999997E+02  0.45594000000E+02  0.51100000000E-03 0. -1.
    9900012    2    1    2    0    0  0.79998715892E+01 -0.22596206528E+02  0.21027000799E+02  0.59301933176E+02  0.49999980209E+02 0.  0.
         12    1    1    2    0    0 -0.79998715892E+01  0.22596206528E+02 -0.21027000799E+02  0.31886066824E+02  0.00000000000E+00 0. -1.
         11    1    3    3    0    0  0.86251138664E+01  0.26629896897E+01 -0.96433747499E+01  0.13209041605E+02  0.51100000000E-03 0. -1.
        -11    1    3    3    0    0 -0.60499544868E+01 -0.16424957236E+02  0.31132528330E+02  0.35715759687E+02  0.51100000000E-03 0.  1.
        -12    1    3    3    0    0  0.54247122095E+01 -0.88342389823E+01 -0.46215278172E+00  0.10377131884E+02  0.00000000000E+00 0.  1.
</event>
<event>
 7    1  0.4237994E-013  0.5930193E+02  0.7816164E-02  0.1266605E+00
        -11   -1    0    0    0    0  0.00000000000E+00  0.00000000000E+00  0.45593999997E+02  0.45594000000E+02  0.51100000000E-03 0.  1.
         11   -1    0    0    0    0 -0.00000000000E+00 -0.00000000000E+00 -0.45593999997E+02  0.45594000000E+02  0.51100000000E-03 0. -1.
    9900012    2    1    2    0    0  0.27449621851E+02 -0.17173147592E+01  0.16133515872E+02  0.59301933386E+02  0.49999980592E+02 0.  0.
         12    1    1    2    0    0 -0.27449621851E+02  0.17173147592E+01 -0.16133515872E+02  0.31886066614E+02  0.00000000000E+00 0. -1.
         11    1    3    3    0    0  0.36528143207E+02 -0.42330612340E-01  0.17513174616E+02  0.40509484364E+02  0.51100000000E-03 0. -1.
        -11    1    3    3    0    0 -0.30363474392E+01 -0.27891309670E+01  0.71659657311E+01  0.82673890947E+01  0.51100000000E-03 0.  1.
         12    1    3    3    0    0 -0.60421739176E+01  0.11141468201E+01 -0.85456244759E+01  0.10525059927E+02  0.00000000000E+00 0. -1.
</event>
<event>
 7    1  0.4237994E-013  0.5930192E+02  0.7816164E-02  0.1266605E+00
        -11   -1    0    0    0    0  0.00000000000E+00  0.00000000000E+00  0.45593999997E+02  0.45594000000E+02  0.51100000000E-03 0.  1.
         11   -1    0    0    0    0 -0.00000000000E+00 -0.00000000000E+00 -0.45593999997E+02  0.45594000000E+02  0.51100000000E-03 0. -1.
    9900012    2    1    2    0    0 -0.11984906046E+02  0.12335105460E+02  0.26850121336E+02  0.59301924428E+02  0.49999964254E+02 0.  0.
         12    1    1    2    0    0  0.11984906046E+02 -0.12335105460E+02 -0.26850121336E+02  0.31886075572E+02  0.00000000000E+00 0. -1.
         11    1    3    3    0    0  0.97835260140E+01  0.34616972758E+01 -0.71925234028E+01  0.12626682955E+02  0.51100000000E-03 0. -1.
        -11    1    3    3    0    0 -0.16270472288E+02  0.96932460514E+01  0.89010081571E+01  0.20926424300E+02  0.51100000000E-03 0.  1.
         12    1    3    3    0    0 -0.54979597718E+01 -0.81983786755E+00  0.25141636582E+02  0.25748817173E+02  0.00000000000E+00 0. -1.
</event>
<event>
 7    1  0.4237994E-013  0.5930191E+02  0.7816164E-02  0.1266605E+00
        -11   -1    0    0    0    0  0.00000000000E+00  0.00000000000E+00  0.45593999997E+02  0.45594000000E+02  0.51100000000E-03 0.  1.
         11   -1    0    0    0    0 -0.00000000000E+00 -0.00000000000E+00 -0.45593999997E+02  0.45594000000E+02  0.51100000000E-03 0. -1.
    9900012    2    1    2    0    0  0.60826823814E+01  0.15841329192E+02  0.26995849256E+02  0.59301911928E+02  0.49999941457E+02 0.  0.
         12    1    1    2    0    0 -0.60826823814E+01 -0.15841329192E+02 -0.26995849256E+02  0.31886088072E+02  0.00000000000E+00 0. -1.
         11    1    3    3    0    0 -0.30831956411E+01 -0.70859275622E+01 -0.70241070487E+01  0.10442918408E+02  0.51100000000E-03 0. -1.
        -11    1    3    3    0    0 -0.54530687296E+01  0.13509896811E+02  0.25789119968E+02  0.29619790334E+02  0.51100000000E-03 0.  1.
        -12    1    3    3    0    0  0.14618946752E+02  0.94173599433E+01  0.82308363362E+01  0.19239203186E+02  0.00000000000E+00 0.  1.
</event>
<event>
 7    1  0.4237994E-013  0.5930202E+02  0.7816164E-02  0.1266605E+00
        -11   -1    0    0    0    0  0.00000000000E+00  0.00000000000E+00  0.45593999997E+02  0.45594000000E+02  0.51100000000E-03 0. -1.
         11   -1    0    0    0    0 -0.00000000000E+00 -0.00000000000E+00 -0.45593999997E+02  0.45594000000E+02  0.51100000000E-03 0.  1.
    9900012    2    1    2    0    0 -0.66466620243E+01  0.31181256918E+02 -0.51673114546E+00  0.59302017027E+02  0.50000133133E+02 0.  0.
         12    1    1    2    0    0  0.66466620243E+01 -0.31181256918E+02  0.51673114546E+00  0.31885982973E+02  0.00000000000E+00 0. -1.
         11    1    3    3    0    0  0.33029567618E+01 -0.10600604609E+01  0.70577321485E+01  0.78641487074E+01  0.51100000000E-03 0. -1.
        -11    1    3    3    0    0 -0.42112845326E+00  0.34783143646E+02 -0.16165969388E+02  0.38358610475E+02  0.51100000000E-03 0.  1.
        -12    1    3    3    0    0 -0.95284903329E+01 -0.25418262670E+01  0.85915060939E+01  0.13079257844E+02  0.00000000000E+00 0.  1.
</event>
<event>
 7    1  0.4237994E-013  0.5930193E+02  0.7816164E-02  0.1266605E+00
        -11   -1    0    0    0    0  0.00000000000E+00  0.00000000000E+00  0.45593999997E+02  0.45594000000E+02  0.51100000000E-03 0. -1.
         11   -1    0    0    0    0 -0.00000000000E+00 -0.00000000000E+00 -0.45593999997E+02  0.45594000000E+02  0.51100000000E-03 0.  1.
    9900012    2    1    2    0    0 -0.24374095393E+01  0.98513754571E+01 -0.30227978510E+02  0.59301933318E+02  0.49999980469E+02 0.  0.
         12    1    1    2    0    0  0.24374095393E+01 -0.98513754571E+01  0.30227978510E+02  0.31886066682E+02  0.00000000000E+00 0. -1.
         11    1    3    3    0    0  0.22166998848E+01  0.50149490647E+00  0.63626258092E+01  0.67563498259E+01  0.51100000000E-03 0. -1.
        -11    1    3    3    0    0 -0.12501351389E+02 -0.10376159081E+02 -0.18798941381E+02  0.24846501989E+02  0.51100000000E-03 0.  1.
         12    1    3    3    0    0  0.78472419646E+01  0.19726039632E+02 -0.17791662938E+02  0.27699081503E+02  0.00000000000E+00 0. -1.
</event>
<event>
 7    1  0.4237994E-013  0.5930197E+02  0.7816164E-02  0.1266605E+00
        -11   -1    0    0    0    0  0.00000000000E+00  0.00000000000E+00  0.45593999997E+02  0.45594000000E+02  0.51100000000E-03 0. -1.
         11   -1    0    0    0    0 -0.00000000000E+00 -0.00000000000E+00 -0.45593999997E+02  0.45594000000E+02  0.51100000000E-03 0.  1.
    9900012    2    1    2    0    0  0.15476962559E+02 -0.21540933896E+02 -0.17696632959E+02  0.59301968243E+02  0.50000044163E+02 0.  0.
         12    1    1    2    0    0 -0.15476962559E+02  0.21540933896E+02  0.17696632959E+02  0.31886031757E+02  0.00000000000E+00 0. -1.
         11    1    3    3    0    0  0.15654297195E+02 -0.13396935484E+02  0.39838793868E+01  0.20985857054E+02  0.51100000000E-03 0. -1.
        -11    1    3    3    0    0  0.34187491795E+01 -0.12735833193E+02 -0.27236586615E+02  0.30260881411E+02  0.51100000000E-03 0.  1.
        -12    1    3    3    0    0 -0.35960838158E+01  0.45918347821E+01  0.55560742699E+01  0.80552297776E+01  0.00000000000E+00 0.  1.
</event>
<event>
 7    1  0.4237994E-013  0.5930195E+02  0.7816164E-02  0.1266605E+00
        -11   -1    0    0    0    0  0.00000000000E+00  0.00000000000E+00  0.45593999997E+02  0.45594000000E+02  0.51100000000E-03 0.  1.
         11   -1    0    0    0    0 -0.00000000000E+00 -0.00000000000E+00 -0.45593999997E+02  0.45594000000E+02  0.51100000000E-03 0. -1.
    9900012    2    1    2    0    0  0.68555790389E+01 -0.24763264975E+00  0.31139362821E+02  0.59301949715E+02  0.50000010372E+02 0.  0.
         12    1    1    2    0    0 -0.68555790389E+01  0.24763264975E+00 -0.31139362821E+02  0.31886050285E+02  0.00000000000E+00 0. -1.
         11    1    3    3    0    0  0.23665896229E+02 -0.11122701332E+02  0.27856519421E+02  0.38206999408E+02  0.51100000000E-03 0. -1.
        -11    1    3    3    0    0 -0.93049516637E+01  0.41359125754E+01 -0.79761716913E+00  0.10213916570E+02  0.51100000000E-03 0.  1.
         12    1    3    3    0    0 -0.75053655266E+01  0.67391561070E+01  0.40804605688E+01  0.10881033737E+02  0.00000000000E+00 0. -1.
</event>
<event>
 7    1  0.4237994E-013  0.5930194E+02  0.7816164E-02  0.1266605E+00
        -11   -1    0    0    0    0  0.00000000000E+00  0.00000000000E+00  0.45593999997E+02  0.45594000000E+02  0.51100000000E-03 0.  1.
         11   -1    0    0    0    0 -0.00000000000E+00 -0.00000000000E+00 -0.45593999997E+02  0.45594000000E+02  0.51100000000E-03 0. -1.
    9900012    2    1    2    0    0 -0.31275385029E+02 -0.48151555289E+01  0.39224315814E+01  0.59301938766E+02  0.49999990404E+02 0.  0.
         12    1    1    2    0    0  0.31275385029E+02  0.48151555289E+01 -0.39224315814E+01  0.31886061234E+02  0.00000000000E+00 0. -1.
         11    1    3    3    0    0 -0.28181772246E+02  0.44281436396E+01 -0.16590472293E+02  0.33000977473E+02  0.51100000000E-03 0. -1.
        -11    1    3    3    0    0  0.32011908489E+00 -0.92430490969E+01  0.20910161858E+02  0.22864192573E+02  0.51100000000E-03 0.  1.
        -12    1    3    3    0    0 -0.34137318685E+01 -0.25007155014E-03 -0.39725798342E+00  0.34367687205E+01  0.00000000000E+00 0.  1.
</event>
<event>
 7    1  0.4421758E-013  0.5930194E+02  0.7816164E-02  0.1266605E+00
        -11   -1    0    0    0    0  0.00000000000E+00  0.00000000000E+00  0.45593999997E+02  0.45594000000E+02  0.51100000000E-03 0. -1.
         11   -1    0    0    0    0 -0.00000000000E+00 -0.00000000000E+00 -0.45593999997E+02  0.45594000000E+02  0.51100000000E-03 0.  1.
    9900012    2    1    2    0    0  0.57242402634E+01 -0.25400146553E+02 -0.18406145583E+02  0.59301944008E+02  0.49999999964E+02 0.  0.
         12    1    1    2    0    0 -0.57242402634E+01  0.25400146553E+02  0.18406145583E+02  0.31886055992E+02  0.00000000000E+00 0. -1.
         11    1    3    3    0    0 -0.64536745650E+01  0.43259482124E+01  0.15239123364E+01  0.79174523932E+01  0.51100000000E-03 0. -1.
        -11    1    3    3    0    0 -0.12009326395E+01 -0.20562777245E+02 -0.26776492260E+02  0.33782400525E+02  0.51100000000E-03 0.  1.
        -12    1    3    3    0    0  0.13378847468E+02 -0.91633175205E+01  0.68464343407E+01  0.17602091090E+02  0.00000000000E+00 0.  1.
</event>
<event>
 7    1  0.4237994E-013  0.5930184E+02  0.7816164E-02  0.1266605E+00
        -11   -1    0    0    0    0  0.00000000000E+00  0.00000000000E+00  0.45593999997E+02  0.45594000000E+02  0.51100000000E-03 0.  1.
         11   -1    0    0    0    0 -0.00000000000E+00 -0.00000000000E+00 -0.45593999997E+02  0.45594000000E+02  0.51100000000E-03 0. -1.
    9900012    2    1    2    0    0  0.48213273977E+01  0.17147989229E+02  0.26446713273E+02  0.59301837242E+02  0.49999805248E+02 0.  0.
         12    1    1    2    0    0 -0.48213273977E+01 -0.17147989229E+02 -0.26446713273E+02  0.31886162758E+02  0.00000000000E+00 0. -1.
         11    1    3    3    0    0 -0.18264766987E+02 -0.15629770235E+01 -0.98104299251E+00  0.18357751928E+02  0.51100000000E-03 0. -1.
        -11    1    3    3    0    0  0.79643077158E+01  0.29623430513E+01  0.89506961535E+01  0.12341824648E+02  0.51100000000E-03 0.  1.
         12    1    3    3    0    0  0.15121786669E+02  0.15748623201E+02  0.18477060112E+02  0.28602260666E+02  0.00000000000E+00 0. -1.
</event>
<event>
 7    1  0.4237994E-013  0.5930204E+02  0.7816164E-02  0.1266604E+00
        -11   -1    0    0    0    0  0.00000000000E+00  0.00000000000E+00  0.45593999997E+02  0.45594000000E+02  0.51100000000E-03 0.  1.
         11   -1    0    0    0    0 -0.00000000000E+00 -0.00000000000E+00 -0.45593999997E+02  0.45594000000E+02  0.51100000000E-03 0. -1.
    9900012    2    1    2    0    0  0.21024770379E+02  0.18055694540E+02 -0.15769125233E+02  0.59302040936E+02  0.50000176737E+02 0.  0.
         12    1    1    2    0    0 -0.21024770379E+02 -0.18055694540E+02  0.15769125233E+02  0.31885959064E+02  0.00000000000E+00 0. -1.
         11    1    3    3    0    0  0.76613764924E+01  0.11774828604E+01 -0.26394580551E+02  0.27509217335E+02  0.51100000000E-03 0. -1.
        -11    1    3    3    0    0  0.86728657314E+00  0.17090302729E+02  0.37122864178E+01  0.17510331352E+02  0.51100000000E-03 0.  1.
         12    1    3    3    0    0  0.12496107314E+02 -0.21209104892E+00  0.69131689000E+01  0.14282492249E+02  0.00000000000E+00 0. -1.
</event>
<event>
 7    1  0.4237994E-013  0.5930194E+02  0.7816164E-02  0.1266605E+00
        -11   -1    0    0    0    0  0.00000000000E+00  0.00000000000E+00  0.45593999997E+02  0.45594000000E+02  0.51100000000E-03 0.  1.
         11   -1    0    0    0    0 -0.00000000000E+00 -0.00000000000E+00 -0.45593999997E+02  0.45594000000E+02  0.51100000000E-03 0. -1.
    9900012    2    1    2    0    0 -0.29902632380E+02  0.57419090816E+01  0.94648652548E+01  0.59301943213E+02  0.49999998513E+02 0.  0.
         12    1    1    2    0    0  0.29902632380E+02 -0.57419090816E+01 -0.94648652548E+01  0.31886056787E+02  0.00000000000E+00 0. -1.
         11    1    3    3    0    0 -0.34244044274E+02  0.15057051675E+02 -0.81656124822E+01  0.38288987984E+02  0.51100000000E-03 0. -1.
        -11    1    3    3    0    0 -0.90990684015E+00 -0.34149544167E+01  0.54963750681E+01  0.65345224214E+01  0.51100000000E-03 0.  1.
         12    1    3    3    0    0  0.52513187340E+01 -0.59001881768E+01  0.12134102669E+02  0.14478432807E+02  0.00000000000E+00 0. -1.
</event>
<event>
 7    1  0.4237994E-013  0.5930194E+02  0.7816164E-02  0.1266605E+00
        -11   -1    0    0    0    0  0.00000000000E+00  0.00000000000E+00  0.45593999997E+02  0.45594000000E+02  0.51100000000E-03 0. -1.
         11   -1    0    0    0    0 -0.00000000000E+00 -0.00000000000E+00 -0.45593999997E+02  0.45594000000E+02  0.51100000000E-03 0.  1.
    9900012    2    1    2    0    0  0.30071710380E+02  0.80940589132E+01 -0.68483163042E+01  0.59301937354E+02  0.49999987829E+02 0.  0.
         12    1    1    2    0    0 -0.30071710380E+02 -0.80940589132E+01  0.68483163042E+01  0.31886062646E+02  0.00000000000E+00 0. -1.
         11    1    3    3    0    0  0.10080956739E+02  0.13488640588E+02 -0.60456278901E+00  0.16850359347E+02  0.51100000000E-03 0. -1.
        -11    1    3    3    0    0  0.23879169014E+02 -0.12060526442E+01 -0.17633233262E+02  0.29708587838E+02  0.51100000000E-03 0.  1.
         12    1    3    3    0    0 -0.38884153736E+01 -0.41885290308E+01  0.11389479746E+02  0.12742990169E+02  0.00000000000E+00 0. -1.
</event>
<event>
 7    1  0.4237994E-013  0.5930199E+02  0.7816164E-02  0.1266605E+00
        -11   -1    0    0    0    0  0.00000000000E+00  0.00000000000E+00  0.45593999997E+02  0.45594000000E+02  0.51100000000E-03 0. -1.
         11   -1    0    0    0    0 -0.00000000000E+00 -0.00000000000E+00 -0.45593999997E+02  0.45594000000E+02  0.51100000000E-03 0.  1.
    9900012    2    1    2    0    0 -0.25566309016E+02  0.65785039571E+01 -0.17883084375E+02  0.59301990877E+02  0.50000085442E+02 0.  0.
         12    1    1    2    0    0  0.25566309016E+02 -0.65785039571E+01  0.17883084375E+02  0.31886009123E+02  0.00000000000E+00 0. -1.
         11    1    3    3    0    0 -0.17239881983E+02 -0.71187798884E+01 -0.39150919423E+01  0.19058292239E+02  0.51100000000E-03 0. -1.
        -11    1    3    3    0    0  0.10341774931E+02 -0.46032921943E+01 -0.65103358962E+01  0.13058601820E+02  0.51100000000E-03 0.  1.
        -12    1    3    3    0    0 -0.18668201965E+02  0.18300576040E+02 -0.74576565361E+01  0.27185096818E+02  0.00000000000E+00 0.  1.
</event>
<event>
 7    1  0.4237994E-013  0.5930194E+02  0.7816164E-02  0.1266605E+00
        -11   -1    0    0    0    0  0.00000000000E+00  0.00000000000E+00  0.45593999997E+02  0.45594000000E+02  0.51100000000E-03 0. -1.
         11   -1    0    0    0    0 -0.00000000000E+00 -0.00000000000E+00 -0.45593999997E+02  0.45594000000E+02  0.51100000000E-03 0.  1.
    9900012    2    1    2    0    0  0.22622511750E+02  0.16655129206E+02 -0.15084753019E+02  0.59301935012E+02  0.49999983558E+02 0.  0.
         12    1    1    2    0    0 -0.22622511750E+02 -0.16655129206E+02  0.15084753019E+02  0.31886064988E+02  0.00000000000E+00 0. -1.
         11    1    3    3    0    0  0.19250670362E+02  0.17984550808E+02  0.97263811831E+01  0.28082643542E+02  0.51100000000E-03 0. -1.
        -11    1    3    3    0    0  0.17124700717E+01 -0.99226740956E+01 -0.15064232591E+02  0.18119688705E+02  0.51100000000E-03 0.  1.
         12    1    3    3    0    0  0.16593713168E+01  0.85932524941E+01 -0.97469016107E+01  0.13099602765E+02  0.00000000000E+00 0. -1.
</event>
<event>
 7    1  0.4237994E-013  0.5930197E+02  0.7816164E-02  0.1266605E+00
        -11   -1    0    0    0    0  0.00000000000E+00  0.00000000000E+00  0.45593999997E+02  0.45594000000E+02  0.51100000000E-03 0. -1.
         11   -1    0    0    0    0 -0.00000000000E+00 -0.00000000000E+00 -0.45593999997E+02  0.45594000000E+02  0.51100000000E-03 0.  1.
    9900012    2    1    2    0    0  0.14470206587E+02 -0.28086632371E+02 -0.42980635258E+01  0.59301966276E+02  0.50000040575E+02 0.  0.
         12    1    1    2    0    0 -0.14470206587E+02  0.28086632371E+02  0.42980635258E+01  0.31886033724E+02  0.00000000000E+00 0. -1.
         11    1    3    3    0    0 -0.96673171882E+01 -0.33487030109E+01  0.64806517838E+01  0.12110725877E+02  0.51100000000E-03 0. -1.
        -11    1    3    3    0    0  0.23236412397E+02 -0.14307401852E+02 -0.19521225406E+02  0.33551614722E+02  0.51100000000E-03 0.  1.
         12    1    3    3    0    0  0.90111137841E+00 -0.10430527508E+02  0.87425100963E+01  0.13639625676E+02  0.00000000000E+00 0. -1.
</event>
<event>
 7    1  0.4237994E-013  0.5930195E+02  0.7816164E-02  0.1266605E+00
        -11   -1    0    0    0    0  0.00000000000E+00  0.00000000000E+00  0.45593999997E+02  0.45594000000E+02  0.51100000000E-03 0.  1.
         11   -1    0    0    0    0 -0.00000000000E+00 -0.00000000000E+00 -0.45593999997E+02  0.45594000000E+02  0.51100000000E-03 0. -1.
    9900012    2    1    2    0    0 -0.22297128329E+02  0.79858392475E+01  0.21349108834E+02  0.59301952766E+02  0.50000015936E+02 0.  0.
         12    1    1    2    0    0  0.22297128329E+02 -0.79858392475E+01 -0.21349108834E+02  0.31886047234E+02  0.00000000000E+00 0. -1.
         11    1    3    3    0    0 -0.97476399837E+01  0.37404841592E+01 -0.94436331100E+01  0.14077993947E+02  0.51100000000E-03 0. -1.
        -11    1    3    3    0    0 -0.78460528737E+01 -0.12942161093E+02  0.16415086130E+02  0.22327452438E+02  0.51100000000E-03 0.  1.
        -12    1    3    3    0    0 -0.47034354717E+01  0.17187516181E+02  0.14377655814E+02  0.22896506380E+02  0.00000000000E+00 0.  1.
</event>
<event>
 7    1  0.4237994E-013  0.5930195E+02  0.7816164E-02  0.1266605E+00
        -11   -1    0    0    0    0  0.00000000000E+00  0.00000000000E+00  0.45593999997E+02  0.45594000000E+02  0.51100000000E-03 0. -1.
         11   -1    0    0    0    0 -0.00000000000E+00 -0.00000000000E+00 -0.45593999997E+02  0.45594000000E+02  0.51100000000E-03 0.  1.
    9900012    2    1    2    0    0 -0.17708958382E+01  0.30239665263E+01 -0.31692893533E+02  0.59301953740E+02  0.50000017712E+02 0.  0.
         12    1    1    2    0    0  0.17708958382E+01 -0.30239665263E+01  0.31692893533E+02  0.31886046260E+02  0.00000000000E+00 0. -1.
         11    1    3    3    0    0  0.49538050905E+01 -0.93526064049E+01 -0.16295980881E+02  0.19431171467E+02  0.51100000000E-03 0. -1.
        -11    1    3    3    0    0 -0.17223812397E+01  0.19293802088E+02  0.29890079491E+01  0.19599784818E+02  0.51100000000E-03 0.  1.
        -12    1    3    3    0    0 -0.50023196889E+01 -0.69172291563E+01 -0.18385920601E+02  0.20270997455E+02  0.00000000000E+00 0.  1.
</event>
<event>
 7    1  0.4237994E-013  0.5930193E+02  0.7816164E-02  0.1266605E+00
        -11   -1    0    0    0    0  0.00000000000E+00  0.00000000000E+00  0.45593999997E+02  0.45594000000E+02  0.51100000000E-03 0.  1.
         11   -1    0    0    0    0 -0.00000000000E+00 -0.00000000000E+00 -0.45593999997E+02  0.45594000000E+02  0.51100000000E-03 0. -1.
    9900012    2    1    2    0    0  0.10395821127E+02 -0.15167998057E+02  0.26049568019E+02  0.59301933201E+02  0.49999980254E+02 0.  0.
         12    1    1    2    0    0 -0.10395821127E+02  0.15167998057E+02 -0.26049568019E+02  0.31886066799E+02  0.00000000000E+00 0. -1.
         11    1    3    3    0    0  0.60724950132E+01 -0.69504997664E+01 -0.14322667427E+02  0.17038880397E+02  0.51100000000E-03 0. -1.
        -11    1    3    3    0    0 -0.24321191639E+01 -0.33169936809E+01  0.11762191223E+02  0.12460609669E+02  0.51100000000E-03 0.  1.
         12    1    3    3    0    0  0.67554452774E+01 -0.49005046093E+01  0.28610044224E+02  0.29802443135E+02  0.00000000000E+00 0. -1.
</event>
<event>
 7    1  0.4237994E-013  0.5930194E+02  0.7816164E-02  0.1266605E+00
        -11   -1    0    0    0    0  0.00000000000E+00  0.00000000000E+00  0.45593999997E+02  0.45594000000E+02  0.51100000000E-03 0.  1.
         11   -1    0    0    0    0 -0.00000000000E+00 -0.00000000000E+00 -0.45593999997E+02  0.45594000000E+02  0.51100000000E-03 0. -1.
    9900012    2    1    2    0    0  0.23896326192E+02  0.19911752695E+02  0.70148741862E+01  0.59301940966E+02  0.49999994416E+02 0.  0.
         12    1    1    2    0    0 -0.23896326192E+02 -0.19911752695E+02 -0.70148741862E+01  0.31886059034E+02  0.00000000000E+00 0. -1.
         11    1    3    3    0    0  0.75607966114E+01  0.25104789779E+02 -0.29248575624E+01  0.26381260533E+02  0.51100000000E-03 0. -1.
        -11    1    3    3    0    0  0.10759055205E+02 -0.11266534601E+02 -0.45672240903E+01  0.16234272604E+02  0.51100000000E-03 0.  1.
        -12    1    3    3    0    0  0.55764743762E+01  0.60734975167E+01  0.14506955839E+02  0.16686407830E+02  0.00000000000E+00 0.  1.
</event>
<event>
 7    1  0.4237994E-013  0.5930195E+02  0.7816164E-02  0.1266605E+00
        -11   -1    0    0    0    0  0.00000000000E+00  0.00000000000E+00  0.45593999997E+02  0.45594000000E+02  0.51100000000E-03 0.  1.
         11   -1    0    0    0    0 -0.00000000000E+00 -0.00000000000E+00 -0.45593999997E+02  0.45594000000E+02  0.51100000000E-03 0. -1.
    9900012    2    1    2    0    0  0.64623285099E+01  0.30997431096E+02  0.37573826014E+01  0.59301947433E+02  0.50000006210E+02 0.  0.
         12    1    1    2    0    0 -0.64623285099E+01 -0.30997431096E+02 -0.37573826014E+01  0.31886052567E+02  0.00000000000E+00 0. -1.
         11    1    3    3    0    0 -0.38345769531E+01  0.24935195914E+02 -0.14195840750E+02  0.28948054694E+02  0.51100000000E-03 0. -1.
        -11    1    3    3    0    0  0.12111817472E+02 -0.46079148044E+01  0.61648922771E+01  0.14350431993E+02  0.51100000000E-03 0.  1.
        -12    1    3    3    0    0 -0.18149120095E+01  0.10670149986E+02  0.11788331074E+02  0.16003460746E+02  0.00000000000E+00 0.  1.
</event>
<event>
 7    1  0.4237994E-013  0.5930191E+02  0.7816164E-02  0.1266605E+00
        -11   -1    0    0    0    0  0.00000000000E+00  0.00000000000E+00  0.45593999997E+02  0.45594000000E+02  0.51100000000E-03 0.  1.
         11   -1    0    0    0    0 -0.00000000000E+00 -0.00000000000E+00 -0.45593999997E+02  0.45594000000E+02  0.51100000000E-03 0. -1.
    9900012    2    1    2    0    0  0.19819895267E+02 -0.22480679614E+02 -0.10886401697E+02  0.59301906696E+02  0.49999931916E+02 0.  0.
         12    1    1    2    0    0 -0.19819895267E+02  0.22480679614E+02  0.10886401697E+02  0.31886093304E+02  0.00000000000E+00 0. -1.
         11    1    3    3    0    0  0.89314142059E+01  0.22397842292E+01 -0.21525061031E+02  0.23411856948E+02  0.51100000000E-03 0. -1.
        -11    1    3    3    0    0 -0.52140181945E+01 -0.75213272933E+01 -0.16778654471E+01  0.93043851331E+01  0.51100000000E-03 0.  1.
         12    1    3    3    0    0  0.16102499255E+02 -0.17199136550E+02  0.12316524781E+02  0.26585664615E+02  0.00000000000E+00 0. -1.
</event>
<event>
 7    1  0.4237994E-013  0.5930209E+02  0.7816164E-02  0.1266604E+00
        -11   -1    0    0    0    0  0.00000000000E+00  0.00000000000E+00  0.45593999997E+02  0.45594000000E+02  0.51100000000E-03 0. -1.
         11   -1    0    0    0    0 -0.00000000000E+00 -0.00000000000E+00 -0.45593999997E+02  0.45594000000E+02  0.51100000000E-03 0.  1.
    9900012    2    1    2    0    0 -0.14008113779E+02  0.24891312723E+02 -0.14174145431E+02  0.59302092464E+02  0.50000270711E+02 0.  0.
         12    1    1    2    0    0  0.14008113779E+02 -0.24891312723E+02  0.14174145431E+02  0.31885907536E+02  0.00000000000E+00 0. -1.
         11    1    3    3    0    0  0.78412274632E+01  0.15240963623E+02 -0.35480248040E+01  0.17503151161E+02  0.51100000000E-03 0. -1.
        -11    1    3    3    0    0 -0.48490051251E+01 -0.73958856758E+01 -0.14920306143E+02  0.17344379819E+02  0.51100000000E-03 0.  1.
        -12    1    3    3    0    0 -0.17000336117E+02  0.17046234776E+02  0.42941855163E+01  0.24454561484E+02  0.00000000000E+00 0.  1.
</event>
<event>
 7    1  0.4237994E-013  0.5930190E+02  0.7816164E-02  0.1266605E+00
        -11   -1    0    0    0    0  0.00000000000E+00  0.00000000000E+00  0.45593999997E+02  0.45594000000E+02  0.51100000000E-03 0. -1.
         11   -1    0    0    0    0 -0.00000000000E+00 -0.00000000000E+00 -0.45593999997E+02  0.45594000000E+02  0.51100000000E-03 0.  1.
    9900012    2    1    2    0    0 -0.25319394743E+01 -0.18413625193E+02 -0.25908518481E+02  0.59301895815E+02  0.49999912071E+02 0.  0.
         12    1    1    2    0    0  0.25319394743E+01  0.18413625193E+02  0.25908518481E+02  0.31886104185E+02  0.00000000000E+00 0. -1.
         11    1    3    3    0    0 -0.11987066898E+02 -0.47775889464E+01 -0.28634615213E+02  0.31407902152E+02  0.51100000000E-03 0. -1.
        -11    1    3    3    0    0  0.15692657235E+02 -0.13054441441E+02 -0.12886846487E+01  0.20453328356E+02  0.51100000000E-03 0.  1.
         12    1    3    3    0    0 -0.62375298117E+01 -0.58159480500E+00  0.40147813813E+01  0.74406653069E+01  0.00000000000E+00 0. -1.
</event>
<event>
 7    1  0.4237994E-013  0.5930193E+02  0.7816164E-02  0.1266605E+00
        -11   -1    0    0    0    0  0.00000000000E+00  0.00000000000E+00  0.45593999997E+02  0.45594000000E+02  0.51100000000E-03 0.  1.
         11   -1    0    0    0    0 -0.00000000000E+00 -0.00000000000E+00 -0.45593999997E+02  0.45594000000E+02  0.51100000000E-03 0. -1.
    9900012    2    1    2    0    0 -0.51484002632E+01 -0.28388199251E+02  0.13576656228E+02  0.59301929744E+02  0.49999973951E+02 0.  0.
         12    1    1    2    0    0  0.51484002632E+01  0.28388199251E+02 -0.13576656228E+02  0.31886070256E+02  0.00000000000E+00 0. -1.
         11    1    3    3    0    0  0.13371140687E+02 -0.39524259737E+01  0.11968018900E+02  0.18375052408E+02  0.51100000000E-03 0. -1.
        -11    1    3    3    0    0 -0.12173284196E+02 -0.27603235303E+02  0.81801987515E+01  0.31257688641E+02  0.51100000000E-03 0.  1.
         12    1    3    3    0    0 -0.63462567546E+01  0.31674620256E+01 -0.65715614234E+01  0.96691886950E+01  0.00000000000E+00 0. -1.
</event>
<event>
 7    1  0.4237994E-013  0.5930191E+02  0.7816164E-02  0.1266605E+00
        -11   -1    0    0    0    0  0.00000000000E+00  0.00000000000E+00  0.45593999997E+02  0.45594000000E+02  0.51100000000E-03 0. -1.
         11   -1    0    0    0    0 -0.00000000000E+00 -0.00000000000E+00 -0.45593999997E+02  0.45594000000E+02  0.51100000000E-03 0.  1.
    9900012    2    1    2    0    0  0.14127514007E+02 -0.27533913346E+02 -0.76824369952E+01  0.59301907823E+02  0.49999933972E+02 0.  0.
         12    1    1    2    0    0 -0.14127514007E+02  0.27533913346E+02  0.76824369952E+01  0.31886092177E+02  0.00000000000E+00 0. -1.
         11    1    3    3    0    0 -0.10684157163E+02 -0.83030363347E+01 -0.11537384628E+02  0.17782094111E+02  0.51100000000E-03 0. -1.
        -11    1    3    3    0    0  0.18706934718E+02 -0.14441329989E+02  0.14962080195E+02  0.27970793025E+02  0.51100000000E-03 0.  1.
        -12    1    3    3    0    0  0.61047364515E+01 -0.47895470217E+01 -0.11107132562E+02  0.13549020687E+02  0.00000000000E+00 0.  1.
</event>
<event>
 7    1  0.4237994E-013  0.5930195E+02  0.7816164E-02  0.1266605E+00
        -11   -1    0    0    0    0  0.00000000000E+00  0.00000000000E+00  0.45593999997E+02  0.45594000000E+02  0.51100000000E-03 0.  1.
         11   -1    0    0    0    0 -0.00000000000E+00 -0.00000000000E+00 -0.45593999997E+02  0.45594000000E+02  0.51100000000E-03 0. -1.
    9900012    2    1    2    0    0 -0.16114545707E+01 -0.31835427060E+02  0.79318375978E+00  0.59301947525E+02  0.50000006379E+02 0.  0.
         12    1    1    2    0    0  0.16114545707E+01  0.31835427060E+02 -0.79318375978E+00  0.31886052475E+02  0.00000000000E+00 0. -1.
         11    1    3    3    0    0  0.21920877799E+01 -0.32394886457E+02  0.10427054996E+02  0.34102161127E+02  0.51100000000E-03 0. -1.
        -11    1    3    3    0    0 -0.82966413590E+01  0.60448582909E+01  0.30151936469E+01  0.10698876697E+02  0.51100000000E-03 0.  1.
         12    1    3    3    0    0  0.44930990083E+01 -0.54853988941E+01 -0.12649064883E+02  0.14500909701E+02  0.00000000000E+00 0. -1.
</event>
<event>
 7    1  0.4237994E-013  0.5930179E+02  0.7816164E-02  0.1266605E+00
        -11   -1    0    0    0    0  0.00000000000E+00  0.00000000000E+00  0.45593999997E+02  0.45594000000E+02  0.51100000000E-03 0. -1.
         11   -1    0    0    0    0 -0.00000000000E+00 -0.00000000000E+00 -0.45593999997E+02  0.45594000000E+02  0.51100000000E-03 0.  1.
    9900012    2    1    2    0    0  0.14623612872E+02 -0.84901364548E+01 -0.27033272040E+02  0.59301791889E+02  0.49999722536E+02 0.  0.
         12    1    1    2    0    0 -0.14623612872E+02  0.84901364548E+01  0.27033272040E+02  0.31886208111E+02  0.00000000000E+00 0. -1.
         11    1    3    3    0    0 -0.20020731980E+01 -0.18219865234E+02 -0.28988191979E+02  0.34297041574E+02  0.51100000000E-03 0. -1.
        -11    1    3    3    0    0  0.96505088855E+01 -0.32064843528E+01  0.16673450589E+01  0.10305042623E+02  0.51100000000E-03 0.  1.
         12    1    3    3    0    0  0.69751771847E+01  0.12936213132E+02  0.28757487977E+00  0.14699707693E+02  0.00000000000E+00 0. -1.
</event>
<event>
 7    1  0.4237994E-013  0.5930195E+02  0.7816164E-02  0.1266605E+00
        -11   -1    0    0    0    0  0.00000000000E+00  0.00000000000E+00  0.45593999997E+02  0.45594000000E+02  0.51100000000E-03 0.  1.
         11   -1    0    0    0    0 -0.00000000000E+00 -0.00000000000E+00 -0.45593999997E+02  0.45594000000E+02  0.51100000000E-03 0. -1.
    9900012    2    1    2    0    0  0.13107184112E+01  0.18926103730E+02  0.25628207389E+02  0.59301946636E+02  0.50000004757E+02 0.  0.
         12    1    1    2    0    0 -0.13107184112E+01 -0.18926103730E+02 -0.25628207389E+02  0.31886053364E+02  0.00000000000E+00 0. -1.
         11    1    3    3    0    0  0.18851658270E+02  0.18667299831E+01 -0.11118642856E+01  0.18976457593E+02  0.51100000000E-03 0. -1.
        -11    1    3    3    0    0 -0.50986827800E+01 -0.27536425680E+01  0.99996064366E+01  0.11557302567E+02  0.51100000000E-03 0.  1.
         12    1    3    3    0    0 -0.12442257078E+02  0.19813016315E+02  0.16740465238E+02  0.28768186475E+02  0.00000000000E+00 0. -1.
</event>
<event>
 7    1  0.4237994E-013  0.5930194E+02  0.7816164E-02  0.1266605E+00
        -11   -1    0    0    0    0  0.00000000000E+00  0.00000000000E+00  0.45593999997E+02  0.45594000000E+02  0.51100000000E-03 0.  1.
         11   -1    0    0    0    0 -0.00000000000E+00 -0.00000000000E+00 -0.45593999997E+02  0.45594000000E+02  0.51100000000E-03 0. -1.
    9900012    2    1    2    0    0  0.12245787619E+02 -0.10510268943E+02  0.27500827011E+02  0.59301944208E+02  0.50000000329E+02 0.  0.
         12    1    1    2    0    0 -0.12245787619E+02  0.10510268943E+02 -0.27500827011E+02  0.31886055792E+02  0.00000000000E+00 0. -1.
         11    1    3    3    0    0  0.10041330606E+02 -0.17249395199E+02 -0.15998660517E+01  0.20023224684E+02  0.51100000000E-03 0. -1.
        -11    1    3    3    0    0 -0.59178409107E+01  0.10018128253E+02  0.33934698327E+01  0.12120205134E+02  0.51100000000E-03 0.  1.
        -12    1    3    3    0    0  0.81222979239E+01 -0.32790019968E+01  0.25707223230E+02  0.27158514390E+02  0.00000000000E+00 0.  1.
</event>
<event>
 7    1  0.4237994E-013  0.5930196E+02  0.7816164E-02  0.1266605E+00
        -11   -1    0    0    0    0  0.00000000000E+00  0.00000000000E+00  0.45593999997E+02  0.45594000000E+02  0.51100000000E-03 0.  1.
         11   -1    0    0    0    0 -0.00000000000E+00 -0.00000000000E+00 -0.45593999997E+02  0.45594000000E+02  0.51100000000E-03 0. -1.
    9900012    2    1    2    0    0  0.55887406400E+01  0.12968118636E+02  0.28588692541E+02  0.59301961298E+02  0.50000031496E+02 0.  0.
         12    1    1    2    0    0 -0.55887406400E+01 -0.12968118636E+02 -0.28588692541E+02  0.31886038702E+02  0.00000000000E+00 0. -1.
         11    1    3    3    0    0 -0.50287684255E+01  0.85503688385E+01  0.32193862270E+02  0.33687417344E+02  0.51100000000E-03 0.  1.
        -11    1    3    3    0    0  0.52390511060E+01  0.11877191800E+02 -0.81795526216E+01  0.15343416272E+02  0.51100000000E-03 0. -1.
         12    1    3    3    0    0  0.53784579595E+01 -0.74594420024E+01  0.45743828922E+01  0.10271127682E+02  0.00000000000E+00 0. -1.
</event>
<event>
 7    1  0.4237994E-013  0.5930193E+02  0.7816164E-02  0.1266605E+00
        -11   -1    0    0    0    0  0.00000000000E+00  0.00000000000E+00  0.45593999997E+02  0.45594000000E+02  0.51100000000E-03 0.  1.
         11   -1    0    0    0    0 -0.00000000000E+00 -0.00000000000E+00 -0.45593999997E+02  0.45594000000E+02  0.51100000000E-03 0. -1.
    9900012    2    1    2    0    0 -0.11878122068E+02  0.84401994124E+01  0.28361849570E+02  0.59301933120E+02  0.49999980108E+02 0.  0.
         12    1    1    2    0    0  0.11878122068E+02 -0.84401994124E+01 -0.28361849570E+02  0.31886066880E+02  0.00000000000E+00 0. -1.
         11    1    3    3    0    0 -0.15774994471E+02  0.23942999523E+01  0.21219016761E+02  0.26548630763E+02  0.51100000000E-03 0.  1.
        -11    1    3    3    0    0  0.13208079483E+02  0.90307869821E+01  0.13630341613E+02  0.21018912672E+02  0.51100000000E-03 0. -1.
        -12    1    3    3    0    0 -0.93112070807E+01 -0.29848875220E+01 -0.64875088035E+01  0.11734389686E+02  0.00000000000E+00 0.  1.
</event>
<event>
 7    1  0.4237994E-013  0.5930203E+02  0.7816164E-02  0.1266604E+00
        -11   -1    0    0    0    0  0.00000000000E+00  0.00000000000E+00  0.45593999997E+02  0.45594000000E+02  0.51100000000E-03 0. -1.
         11   -1    0    0    0    0 -0.00000000000E+00 -0.00000000000E+00 -0.45593999997E+02  0.45594000000E+02  0.51100000000E-03 0.  1.
    9900012    2    1    2    0    0  0.43767295015E+01 -0.13470839393E+02 -0.28567385812E+02  0.59302034322E+02  0.50000164675E+02 0.  0.
         12    1    1    2    0    0 -0.43767295015E+01  0.13470839393E+02  0.28567385812E+02  0.31885965678E+02  0.00000000000E+00 0. -1.
         11    1    3    3    0    0 -0.27911033652E+01 -0.81332209150E+00  0.82225445400E+00  0.30212337658E+01  0.51100000000E-03 0. -1.
        -11    1    3    3    0    0  0.35949349683E+01  0.11555378165E+02 -0.29413471831E+02  0.31805701492E+02  0.51100000000E-03 0.  1.
        -12    1    3    3    0    0  0.35728978984E+01 -0.24212895467E+02  0.23831564659E-01  0.24475099064E+02  0.00000000000E+00 0.  1.
</event>
<event>
 7    1  0.4237994E-013  0.5930197E+02  0.7816164E-02  0.1266605E+00
        -11   -1    0    0    0    0  0.00000000000E+00  0.00000000000E+00  0.45593999997E+02  0.45594000000E+02  0.51100000000E-03 0. -1.
         11   -1    0    0    0    0 -0.00000000000E+00 -0.00000000000E+00 -0.45593999997E+02  0.45594000000E+02  0.51100000000E-03 0.  1.
    9900012    2    1    2    0    0 -0.92452351356E+01 -0.20835502594E+01 -0.30445084698E+02  0.59301972705E+02  0.50000052301E+02 0.  0.
         12    1    1    2    0    0  0.92452351356E+01  0.20835502594E+01  0.30445084698E+02  0.31886027295E+02  0.00000000000E+00 0. -1.
         11    1    3    3    0    0 -0.18950529023E+02  0.11205880510E+02 -0.11843125319E+02  0.24999078500E+02  0.51100000000E-03 0. -1.
        -11    1    3    3    0    0  0.13738246077E+02 -0.17933017796E+02 -0.15641517402E+02  0.27477074069E+02  0.51100000000E-03 0.  1.
        -12    1    3    3    0    0 -0.40329521892E+01  0.46435870267E+01 -0.29604419767E+01  0.68258201362E+01  0.00000000000E+00 0.  1.
</event>
<event>
 7    1  0.4237994E-013  0.5930194E+02  0.7816164E-02  0.1266605E+00
        -11   -1    0    0    0    0  0.00000000000E+00  0.00000000000E+00  0.45593999997E+02  0.45594000000E+02  0.51100000000E-03 0.  1.
         11   -1    0    0    0    0 -0.00000000000E+00 -0.00000000000E+00 -0.45593999997E+02  0.45594000000E+02  0.51100000000E-03 0. -1.
    9900012    2    1    2    0    0  0.10909853855E+02 -0.14597306531E+02  0.26165138885E+02  0.59301940946E+02  0.49999994380E+02 0.  0.
         12    1    1    2    0    0 -0.10909853855E+02  0.14597306531E+02 -0.26165138885E+02  0.31886059054E+02  0.00000000000E+00 0. -1.
         11    1    3    3    0    0 -0.96970738555E+01 -0.16715622049E+02  0.24977698895E+02  0.31580543127E+02  0.51100000000E-03 0. -1.
        -11    1    3    3    0    0  0.49042107858E+01  0.65255956684E+01 -0.57633333364E+01  0.99925318947E+01  0.51100000000E-03 0.  1.
         12    1    3    3    0    0  0.15702716924E+02 -0.44072801503E+01  0.69507733268E+01  0.17728865925E+02  0.00000000000E+00 0. -1.
</event>
<event>
 7    1  0.4237994E-013  0.5930194E+02  0.7816164E-02  0.1266605E+00
        -11   -1    0    0    0    0  0.00000000000E+00  0.00000000000E+00  0.45593999997E+02  0.45594000000E+02  0.51100000000E-03 0.  1.
         11   -1    0    0    0    0 -0.00000000000E+00 -0.00000000000E+00 -0.45593999997E+02  0.45594000000E+02  0.51100000000E-03 0. -1.
    9900012    2    1    2    0    0 -0.18987978291E+01 -0.10779956391E+02  0.29948421581E+02  0.59301939594E+02  0.49999991914E+02 0.  0.
         12    1    1    2    0    0  0.18987978291E+01  0.10779956391E+02 -0.29948421581E+02  0.31886060406E+02  0.00000000000E+00 0. -1.
         11    1    3    3    0    0 -0.46755140197E+01 -0.17953048032E+02  0.24767282704E+02  0.30944961752E+02  0.51100000000E-03 0. -1.
        -11    1    3    3    0    0  0.13269470499E+02  0.89077855732E+01  0.72047320244E+01  0.17530991271E+02  0.51100000000E-03 0.  1.
         12    1    3    3    0    0 -0.10492754309E+02 -0.17346939316E+01 -0.20235931473E+01  0.10825986571E+02  0.00000000000E+00 0. -1.
</event>
<event>
 7    1  0.4237994E-013  0.5930194E+02  0.7816164E-02  0.1266605E+00
        -11   -1    0    0    0    0  0.00000000000E+00  0.00000000000E+00  0.45593999997E+02  0.45594000000E+02  0.51100000000E-03 0.  1.
         11   -1    0    0    0    0 -0.00000000000E+00 -0.00000000000E+00 -0.45593999997E+02  0.45594000000E+02  0.51100000000E-03 0. -1.
    9900012    2    1    2    0    0  0.22294773900E+02  0.15846980472E+02  0.16387095091E+02  0.59301943191E+02  0.49999998474E+02 0.  0.
         12    1    1    2    0    0 -0.22294773900E+02 -0.15846980472E+02 -0.16387095091E+02  0.31886056809E+02  0.00000000000E+00 0. -1.
         11    1    3    3    0    0 -0.69491184484E+01 -0.12294490208E+02  0.98571932265E+01  0.17222340005E+02  0.51100000000E-03 0. -1.
        -11    1    3    3    0    0  0.22386662170E+02  0.20897981500E+02  0.92648462198E+00  0.30638972696E+02  0.51100000000E-03 0.  1.
         12    1    3    3    0    0  0.68572301784E+01  0.72434891789E+01  0.56034172428E+01  0.11440630490E+02  0.00000000000E+00 0. -1.
</event>
<event>
 7    1  0.4237994E-013  0.5930195E+02  0.7816164E-02  0.1266605E+00
        -11   -1    0    0    0    0  0.00000000000E+00  0.00000000000E+00  0.45593999997E+02  0.45594000000E+02  0.51100000000E-03 0.  1.
         11   -1    0    0    0    0 -0.00000000000E+00 -0.00000000000E+00 -0.45593999997E+02  0.45594000000E+02  0.51100000000E-03 0. -1.
    9900012    2    1    2    0    0  0.11902501666E+02  0.27673957381E+02  0.10450020934E+02  0.59301946614E+02  0.50000004717E+02 0.  0.
         12    1    1    2    0    0 -0.11902501666E+02 -0.27673957381E+02 -0.10450020934E+02  0.31886053386E+02  0.00000000000E+00 0. -1.
         11    1    3    3    0    0 -0.81223513138E+01  0.12812382414E+02  0.12898352745E+02  0.19912238392E+02  0.51100000000E-03 0. -1.
        -11    1    3    3    0    0  0.89825576518E+01 -0.53747377396E+01 -0.10638669256E+02  0.14924993519E+02  0.51100000000E-03 0.  1.
        -12    1    3    3    0    0  0.11042295328E+02  0.20236312706E+02  0.81903374449E+01  0.24464714703E+02  0.00000000000E+00 0.  1.
</event>
<event>
 7    1  0.4237994E-013  0.5930198E+02  0.7816164E-02  0.1266605E+00
        -11   -1    0    0    0    0  0.00000000000E+00  0.00000000000E+00  0.45593999997E+02  0.45594000000E+02  0.51100000000E-03 0.  1.
         11   -1    0    0    0    0 -0.00000000000E+00 -0.00000000000E+00 -0.45593999997E+02  0.45594000000E+02  0.51100000000E-03 0. -1.
    9900012    2    1    2    0    0  0.10786152427E+02 -0.53580335965E+01  0.29524033069E+02  0.59301982110E+02  0.50000069453E+02 0.  0.
         12    1    1    2    0    0 -0.10786152427E+02  0.53580335965E+01 -0.29524033069E+02  0.31886017890E+02  0.00000000000E+00 0. -1.
         11    1    3    3    0    0 -0.97145233497E+01 -0.69121083421E+01  0.26645454859E+02  0.29191256748E+02  0.51100000000E-03 0. -1.
        -11    1    3    3    0    0  0.61162267107E+01 -0.97942997678E+01 -0.10327099757E+00  0.11547605911E+02  0.51100000000E-03 0.  1.
         12    1    3    3    0    0  0.14384449066E+02  0.11348374513E+02  0.29818492077E+01  0.18563119451E+02  0.00000000000E+00 0. -1.
</event>
<event>
 7    1  0.4237994E-013  0.5930192E+02  0.7816164E-02  0.1266605E+00
        -11   -1    0    0    0    0  0.00000000000E+00  0.00000000000E+00  0.45593999997E+02  0.45594000000E+02  0.51100000000E-03 0. -1.
         11   -1    0    0    0    0 -0.00000000000E+00 -0.00000000000E+00 -0.45593999997E+02  0.45594000000E+02  0.51100000000E-03 0.  1.
    9900012    2    1    2    0    0 -0.16976298536E+01  0.19274123733E+01 -0.31782470275E+02  0.59301917105E+02  0.49999950900E+02 0.  0.
         12    1    1    2    0    0  0.16976298536E+01 -0.19274123733E+01  0.31782470275E+02  0.31886082895E+02  0.00000000000E+00 0. -1.
         11    1    3    3    0    0  0.24714544429E+01  0.16433825701E+01  0.39488036637E+01  0.49398222611E+01  0.51100000000E-03 0. -1.
        -11    1    3    3    0    0 -0.62970668012E+01 -0.17905549141E+02 -0.29381173565E+02  0.34978780720E+02  0.51100000000E-03 0.  1.
        -12    1    3    3    0    0  0.21279825046E+01  0.18189578944E+02 -0.63501003741E+01  0.19383314125E+02  0.00000000000E+00 0.  1.
</event>
<event>
 7    1  0.4237994E-013  0.5930193E+02  0.7816164E-02  0.1266605E+00
        -11   -1    0    0    0    0  0.00000000000E+00  0.00000000000E+00  0.45593999997E+02  0.45594000000E+02  0.51100000000E-03 0. -1.
         11   -1    0    0    0    0 -0.00000000000E+00 -0.00000000000E+00 -0.45593999997E+02  0.45594000000E+02  0.51100000000E-03 0.  1.
    9900012    2    1    2    0    0 -0.11848371411E+02 -0.29125770578E+02 -0.52940754053E+01  0.59301927001E+02  0.49999968948E+02 0.  0.
         12    1    1    2    0    0  0.11848371411E+02  0.29125770578E+02  0.52940754053E+01  0.31886072999E+02  0.00000000000E+00 0. -1.
         11    1    3    3    0    0  0.14351364056E+01 -0.80974252824E+01  0.94616347289E+01  0.12535966046E+02  0.51100000000E-03 0. -1.
        -11    1    3    3    0    0 -0.20950882168E+02 -0.16550760009E+01 -0.15181940271E+02  0.25926242513E+02  0.51100000000E-03 0.  1.
        -12    1    3    3    0    0  0.76673743511E+01 -0.19373269295E+02  0.42623013706E+00  0.20839718442E+02  0.00000000000E+00 0.  1.
</event>
<event>
 7    1  0.4237994E-013  0.5930204E+02  0.7816164E-02  0.1266604E+00
        -11   -1    0    0    0    0  0.00000000000E+00  0.00000000000E+00  0.45593999997E+02  0.45594000000E+02  0.51100000000E-03 0.  1.
         11   -1    0    0    0    0 -0.00000000000E+00 -0.00000000000E+00 -0.45593999997E+02  0.45594000000E+02  0.51100000000E-03 0. -1.
    9900012    2    1    2    0    0  0.25714685079E+02  0.17979007836E+02  0.56767052072E+01  0.59302035478E+02  0.50000166784E+02 0.  0.
         12    1    1    2    0    0 -0.25714685079E+02 -0.17979007836E+02 -0.56767052072E+01  0.31885964522E+02  0.00000000000E+00 0. -1.
         11    1    3    3    0    0  0.15534533747E+02  0.32672486363E+02  0.95998145891E+01  0.37429527706E+02  0.51100000000E-03 0. -1.
        -11    1    3    3    0    0  0.12560355361E+02 -0.10634508131E+02 -0.46718305301E+01  0.17107930639E+02  0.51100000000E-03 0.  1.
        -12    1    3    3    0    0 -0.23802040300E+01 -0.40589703964E+01  0.74872114826E+00  0.47645771335E+01  0.00000000000E+00 0.  1.
</event>
<event>
 7    1  0.4237994E-013  0.5930216E+02  0.7816164E-02  0.1266604E+00
        -11   -1    0    0    0    0  0.00000000000E+00  0.00000000000E+00  0.45593999997E+02  0.45594000000E+02  0.51100000000E-03 0. -1.
         11   -1    0    0    0    0 -0.00000000000E+00 -0.00000000000E+00 -0.45593999997E+02  0.45594000000E+02  0.51100000000E-03 0.  1.
    9900012    2    1    2    0    0 -0.18389180749E+02  0.15230107030E+02 -0.21132637850E+02  0.59302164410E+02  0.50000401922E+02 0.  0.
         12    1    1    2    0    0  0.18389180749E+02 -0.15230107030E+02  0.21132637850E+02  0.31885835590E+02  0.00000000000E+00 0. -1.
         11    1    3    3    0    0  0.20482277661E+01  0.26853962399E+02 -0.35847452037E+01  0.27169485309E+02  0.51100000000E-03 0. -1.
        -11    1    3    3    0    0 -0.99593171598E+01  0.11535924947E+01 -0.92532576842E+01  0.13643370257E+02  0.51100000000E-03 0.  1.
         12    1    3    3    0    0 -0.10478091356E+02 -0.12777447864E+02 -0.82946349622E+01  0.18489308844E+02  0.00000000000E+00 0. -1.
</event>
<event>
 7    1  0.4237994E-013  0.5930196E+02  0.7816164E-02  0.1266605E+00
        -11   -1    0    0    0    0  0.00000000000E+00  0.00000000000E+00  0.45593999997E+02  0.45594000000E+02  0.51100000000E-03 0. -1.
         11   -1    0    0    0    0 -0.00000000000E+00 -0.00000000000E+00 -0.45593999997E+02  0.45594000000E+02  0.51100000000E-03 0.  1.
    9900012    2    1    2    0    0  0.30422031800E+02  0.51995096125E+01 -0.80115383830E+01  0.59301958127E+02  0.50000025714E+02 0.  0.
         12    1    1    2    0    0 -0.30422031800E+02 -0.51995096125E+01  0.80115383830E+01  0.31886041873E+02  0.00000000000E+00 0. -1.
         11    1    3    3    0    0 -0.37345675726E+01  0.45919771139E+01  0.61664755530E+01  0.85474364447E+01  0.51100000000E-03 0.  1.
        -11    1    3    3    0    0  0.33856721546E+02 -0.58219695462E+01  0.89443111462E+00  0.34365286708E+02  0.51100000000E-03 0. -1.
        -12    1    3    3    0    0  0.29987782714E+00  0.64295020447E+01 -0.15072445051E+02  0.16389234975E+02  0.00000000000E+00 0.  1.
</event>
<event>
 7    1  0.4237994E-013  0.5930193E+02  0.7816164E-02  0.1266605E+00
        -11   -1    0    0    0    0  0.00000000000E+00  0.00000000000E+00  0.45593999997E+02  0.45594000000E+02  0.51100000000E-03 0. -1.
         11   -1    0    0    0    0 -0.00000000000E+00 -0.00000000000E+00 -0.45593999997E+02  0.45594000000E+02  0.51100000000E-03 0.  1.
    9900012    2    1    2    0    0 -0.73059338614E+01  0.63459623088E+00 -0.31031303577E+02  0.59301934334E+02  0.49999982321E+02 0.  0.
         12    1    1    2    0    0  0.73059338614E+01 -0.63459623088E+00  0.31031303577E+02  0.31886065666E+02  0.00000000000E+00 0. -1.
         11    1    3    3    0    0 -0.22382739223E+02  0.14413860100E+02 -0.13873531205E+02  0.30020347207E+02  0.51100000000E-03 0. -1.
        -11    1    3    3    0    0  0.97899193189E+01 -0.15355439199E+02 -0.13089234053E+02  0.22426771538E+02  0.51100000000E-03 0.  1.
         12    1    3    3    0    0  0.52868860424E+01  0.15761753300E+01 -0.40685383193E+01  0.68548155885E+01  0.00000000000E+00 0. -1.
</event>
<event>
 7    1  0.4237994E-013  0.5930194E+02  0.7816164E-02  0.1266605E+00
        -11   -1    0    0    0    0  0.00000000000E+00  0.00000000000E+00  0.45593999997E+02  0.45594000000E+02  0.51100000000E-03 0. -1.
         11   -1    0    0    0    0 -0.00000000000E+00 -0.00000000000E+00 -0.45593999997E+02  0.45594000000E+02  0.51100000000E-03 0.  1.
    9900012    2    1    2    0    0 -0.28576597372E+02 -0.13983918167E+02 -0.21328150417E+01  0.59301940590E+02  0.49999993731E+02 0.  0.
         12    1    1    2    0    0  0.28576597372E+02  0.13983918167E+02  0.21328150417E+01  0.31886059410E+02  0.00000000000E+00 0. -1.
         11    1    3    3    0    0 -0.14657834716E+02 -0.31056664566E+02 -0.72925322471E+01  0.35107685189E+02  0.51100000000E-03 0. -1.
        -11    1    3    3    0    0 -0.76944407402E+01  0.38211083513E+01  0.40891396479E+01  0.95145336543E+01  0.51100000000E-03 0.  1.
         12    1    3    3    0    0 -0.62243219163E+01  0.13251638047E+02  0.10705775575E+01  0.14679721747E+02  0.00000000000E+00 0. -1.
</event>
<event>
 7    1  0.4237994E-013  0.5930195E+02  0.7816164E-02  0.1266605E+00
        -11   -1    0    0    0    0  0.00000000000E+00  0.00000000000E+00  0.45593999997E+02  0.45594000000E+02  0.51100000000E-03 0.  1.
         11   -1    0    0    0    0 -0.00000000000E+00 -0.00000000000E+00 -0.45593999997E+02  0.45594000000E+02  0.51100000000E-03 0. -1.
    9900012    2    1    2    0    0 -0.59462261630E+01 -0.39670801217E+01  0.31074499877E+02  0.59301954888E+02  0.50000019806E+02 0.  0.
         12    1    1    2    0    0  0.59462261630E+01  0.39670801217E+01 -0.31074499877E+02  0.31886045112E+02  0.00000000000E+00 0. -1.
         11    1    3    3    0    0  0.59955464883E+01  0.90344717021E+01  0.34580213001E+02  0.36240300607E+02  0.51100000000E-03 0. -1.
        -11    1    3    3    0    0 -0.26592999126E+01 -0.71662033136E+01 -0.81327672470E+01  0.11161014708E+02  0.51100000000E-03 0.  1.
         12    1    3    3    0    0 -0.92824727386E+01 -0.58353485103E+01  0.46270541234E+01  0.11900639573E+02  0.00000000000E+00 0. -1.
</event>
<event>
 7    1  0.4237994E-013  0.5930196E+02  0.7816164E-02  0.1266605E+00
        -11   -1    0    0    0    0  0.00000000000E+00  0.00000000000E+00  0.45593999997E+02  0.45594000000E+02  0.51100000000E-03 0. -1.
         11   -1    0    0    0    0 -0.00000000000E+00 -0.00000000000E+00 -0.45593999997E+02  0.45594000000E+02  0.51100000000E-03 0.  1.
    9900012    2    1    2    0    0 -0.19699328131E+02 -0.19852555740E+02 -0.15314431891E+02  0.59301963521E+02  0.50000035551E+02 0.  0.
         12    1    1    2    0    0  0.19699328131E+02  0.19852555740E+02  0.15314431891E+02  0.31886036479E+02  0.00000000000E+00 0. -1.
         11    1    3    3    0    0 -0.20041945950E+02 -0.27652356506E+02  0.55012825688E+01  0.34591856382E+02  0.51100000000E-03 0. -1.
        -11    1    3    3    0    0  0.53443518408E+01  0.26006419027E+01 -0.75416549796E+01  0.96021869904E+01  0.51100000000E-03 0.  1.
         12    1    3    3    0    0 -0.50017340220E+01  0.51991588639E+01 -0.13274059480E+02  0.15107920148E+02  0.00000000000E+00 0. -1.
</event>
<event>
 7    1  0.4237994E-013  0.5930193E+02  0.7816164E-02  0.1266605E+00
        -11   -1    0    0    0    0  0.00000000000E+00  0.00000000000E+00  0.45593999997E+02  0.45594000000E+02  0.51100000000E-03 0.  1.
         11   -1    0    0    0    0 -0.00000000000E+00 -0.00000000000E+00 -0.45593999997E+02  0.45594000000E+02  0.51100000000E-03 0. -1.
    9900012    2    1    2    0    0  0.21673434747E+01 -0.16470856685E-01  0.31812316709E+02  0.59301934965E+02  0.49999983472E+02 0.  0.
         12    1    1    2    0    0 -0.21673434747E+01  0.16470856685E-01 -0.31812316709E+02  0.31886065035E+02  0.00000000000E+00 0. -1.
         11    1    3    3    0    0 -0.98501839047E+01 -0.56314300004E+01 -0.41899670349E+01  0.12095244967E+02  0.51100000000E-03 0. -1.
        -11    1    3    3    0    0  0.17607406676E+02  0.32107497661E+01  0.36942309285E+02  0.41049529833E+02  0.51100000000E-03 0.  1.
        -12    1    3    3    0    0 -0.55898792967E+01  0.24042093776E+01 -0.94002554108E+00  0.61571601652E+01  0.00000000000E+00 0.  1.
</event>
<event>
 7    1  0.4237994E-013  0.5930194E+02  0.7816164E-02  0.1266605E+00
        -11   -1    0    0    0    0  0.00000000000E+00  0.00000000000E+00  0.45593999997E+02  0.45594000000E+02  0.51100000000E-03 0.  1.
         11   -1    0    0    0    0 -0.00000000000E+00 -0.00000000000E+00 -0.45593999997E+02  0.45594000000E+02  0.51100000000E-03 0. -1.
    9900012    2    1    2    0    0  0.12571196332E+02 -0.73641308671E+01  0.28362917875E+02  0.59301944881E+02  0.50000001556E+02 0.  0.
         12    1    1    2    0    0 -0.12571196332E+02  0.73641308671E+01 -0.28362917875E+02  0.31886055119E+02  0.00000000000E+00 0. -1.
         11    1    3    3    0    0 -0.10591667174E+01 -0.52509179586E+01 -0.63629287852E+01  0.83175018203E+01  0.51100000000E-03 0. -1.
        -11    1    3    3    0    0 -0.47005705559E+01 -0.75937842728E+01  0.29966021144E+02  0.31268568029E+02  0.51100000000E-03 0.  1.
        -12    1    3    3    0    0  0.18330933605E+02  0.54805713643E+01  0.47598255169E+01  0.19715875032E+02  0.00000000000E+00 0.  1.
</event>
<event>
 7    1  0.4237994E-013  0.5930196E+02  0.7816164E-02  0.1266605E+00
        -11   -1    0    0    0    0  0.00000000000E+00  0.00000000000E+00  0.45593999997E+02  0.45594000000E+02  0.51100000000E-03 0.  1.
         11   -1    0    0    0    0 -0.00000000000E+00 -0.00000000000E+00 -0.45593999997E+02  0.45594000000E+02  0.51100000000E-03 0. -1.
    9900012    2    1    2    0    0  0.23499347521E+02 -0.17959020622E+02  0.11915270547E+02  0.59301961867E+02  0.50000032534E+02 0.  0.
         12    1    1    2    0    0 -0.23499347521E+02  0.17959020622E+02 -0.11915270547E+02  0.31886038133E+02  0.00000000000E+00 0. -1.
         11    1    3    3    0    0  0.89230551157E+00 -0.58201857730E+01 -0.20569756277E+01  0.62371404147E+01  0.51100000000E-03 0. -1.
        -11    1    3    3    0    0  0.17892117002E+02  0.67458479538E+01  0.24386696615E+02  0.30989438321E+02  0.51100000000E-03 0.  1.
        -12    1    3    3    0    0  0.47149250075E+01 -0.18884682803E+02 -0.10414450440E+02  0.22075383131E+02  0.00000000000E+00 0.  1.
</event>
<event>
 7    1  0.4237994E-013  0.5930195E+02  0.7816164E-02  0.1266605E+00
        -11   -1    0    0    0    0  0.00000000000E+00  0.00000000000E+00  0.45593999997E+02  0.45594000000E+02  0.51100000000E-03 0.  1.
         11   -1    0    0    0    0 -0.00000000000E+00 -0.00000000000E+00 -0.45593999997E+02  0.45594000000E+02  0.51100000000E-03 0. -1.
    9900012    2    1    2    0    0 -0.13739334203E+02 -0.20266576436E+02  0.20425886287E+02  0.59301948890E+02  0.50000008867E+02 0.  0.
         12    1    1    2    0    0  0.13739334203E+02  0.20266576436E+02 -0.20425886287E+02  0.31886051110E+02  0.00000000000E+00 0. -1.
         11    1    3    3    0    0 -0.27272863103E+02  0.40094343724E+01  0.99226103614E+01  0.29297488331E+02  0.51100000000E-03 0. -1.
        -11    1    3    3    0    0  0.17688496823E+01 -0.56233345941E+01  0.94907469831E+00  0.59708847083E+01  0.51100000000E-03 0.  1.
         12    1    3    3    0    0  0.11764679219E+02 -0.18652676215E+02  0.95542012273E+01  0.24033575851E+02  0.00000000000E+00 0. -1.
</event>
<event>
 7    1  0.4237994E-013  0.5930192E+02  0.7816164E-02  0.1266605E+00
        -11   -1    0    0    0    0  0.00000000000E+00  0.00000000000E+00  0.45593999997E+02  0.45594000000E+02  0.51100000000E-03 0.  1.
         11   -1    0    0    0    0 -0.00000000000E+00 -0.00000000000E+00 -0.45593999997E+02  0.45594000000E+02  0.51100000000E-03 0. -1.
    9900012    2    1    2    0    0 -0.29586325150E+02 -0.92564862335E+01 -0.74625144222E+01  0.59301916911E+02  0.49999950545E+02 0.  0.
         12    1    1    2    0    0  0.29586325150E+02  0.92564862335E+01  0.74625144222E+01  0.31886083089E+02  0.00000000000E+00 0. -1.
         11    1    3    3    0    0 -0.10917704015E+01  0.17556031268E+02 -0.51962434741E+01  0.18341405153E+02  0.51100000000E-03 0. -1.
        -11    1    3    3    0    0 -0.17071177348E+02 -0.23257806945E+02 -0.27921423087E+01  0.28985284868E+02  0.51100000000E-03 0.  1.
         12    1    3    3    0    0 -0.11423377401E+02 -0.35547105567E+01  0.52587136055E+00  0.11975226890E+02  0.00000000000E+00 0. -1.
</event>
<event>
 7    1  0.4237994E-013  0.5930189E+02  0.7816164E-02  0.1266605E+00
        -11   -1    0    0    0    0  0.00000000000E+00  0.00000000000E+00  0.45593999997E+02  0.45594000000E+02  0.51100000000E-03 0.  1.
         11   -1    0    0    0    0 -0.00000000000E+00 -0.00000000000E+00 -0.45593999997E+02  0.45594000000E+02  0.51100000000E-03 0. -1.
    9900012    2    1    2    0    0  0.11720047498E+02  0.17277267551E+02  0.24101048953E+02  0.59301889418E+02  0.49999900406E+02 0.  0.
         12    1    1    2    0    0 -0.11720047498E+02 -0.17277267551E+02 -0.24101048953E+02  0.31886110582E+02  0.00000000000E+00 0. -1.
         11    1    3    3    0    0 -0.46082254219E+01  0.89344670815E+01 -0.53019923043E+01  0.11365366964E+02  0.51100000000E-03 0. -1.
        -11    1    3    3    0    0  0.20778197438E+02  0.10997291394E+02  0.33778917220E+02  0.41154454870E+02  0.51100000000E-03 0.  1.
        -12    1    3    3    0    0 -0.44499245179E+01 -0.26544909241E+01 -0.43758759633E+01  0.67820675850E+01  0.00000000000E+00 0.  1.
</event>
<event>
 7    1  0.4237994E-013  0.5930191E+02  0.7816164E-02  0.1266605E+00
        -11   -1    0    0    0    0  0.00000000000E+00  0.00000000000E+00  0.45593999997E+02  0.45594000000E+02  0.51100000000E-03 0.  1.
         11   -1    0    0    0    0 -0.00000000000E+00 -0.00000000000E+00 -0.45593999997E+02  0.45594000000E+02  0.51100000000E-03 0. -1.
    9900012    2    1    2    0    0  0.30888779106E+02  0.28689643671E+01  0.73739619576E+01  0.59301906697E+02  0.49999931917E+02 0.  0.
         12    1    1    2    0    0 -0.30888779106E+02 -0.28689643671E+01 -0.73739619576E+01  0.31886093303E+02  0.00000000000E+00 0. -1.
         11    1    3    3    0    0  0.24029623082E+02 -0.10879076123E+02 -0.16638401149E+01  0.26430010347E+02  0.51100000000E-03 0. -1.
        -11    1    3    3    0    0 -0.59452790566E+01  0.15185380822E+00  0.12531834694E+02  0.13871419672E+02  0.51100000000E-03 0.  1.
        -12    1    3    3    0    0  0.12804435080E+02  0.13596186682E+02 -0.34940326219E+01  0.19000476678E+02  0.00000000000E+00 0.  1.
</event>
<event>
 7    1  0.4237994E-013  0.5930191E+02  0.7816164E-02  0.1266605E+00
        -11   -1    0    0    0    0  0.00000000000E+00  0.00000000000E+00  0.45593999997E+02  0.45594000000E+02  0.51100000000E-03 0. -1.
         11   -1    0    0    0    0 -0.00000000000E+00 -0.00000000000E+00 -0.45593999997E+02  0.45594000000E+02  0.51100000000E-03 0.  1.
    9900012    2    1    2    0    0 -0.17234378663E+02 -0.80077835302E+01 -0.25604181013E+02  0.59301913844E+02  0.49999944952E+02 0.  0.
         12    1    1    2    0    0  0.17234378663E+02  0.80077835302E+01  0.25604181013E+02  0.31886086156E+02  0.00000000000E+00 0. -1.
         11    1    3    3    0    0 -0.24485751961E+02 -0.10328945364E+00 -0.14341499196E+01  0.24527933139E+02  0.51100000000E-03 0. -1.
        -11    1    3    3    0    0  0.39548440147E+01 -0.15882617779E+02 -0.15958779977E+02  0.22860030562E+02  0.51100000000E-03 0.  1.
         12    1    3    3    0    0  0.32965292827E+01  0.79781237020E+01 -0.82112511168E+01  0.11913950143E+02  0.00000000000E+00 0. -1.
</event>
<event>
 7    1  0.4237994E-013  0.5930184E+02  0.7816164E-02  0.1266605E+00
        -11   -1    0    0    0    0  0.00000000000E+00  0.00000000000E+00  0.45593999997E+02  0.45594000000E+02  0.51100000000E-03 0.  1.
         11   -1    0    0    0    0 -0.00000000000E+00 -0.00000000000E+00 -0.45593999997E+02  0.45594000000E+02  0.51100000000E-03 0. -1.
    9900012    2    1    2    0    0  0.30790564559E+01  0.16417328969E+02  0.27160958553E+02  0.59301843935E+02  0.49999817454E+02 0.  0.
         12    1    1    2    0    0 -0.30790564559E+01 -0.16417328969E+02 -0.27160958553E+02  0.31886156065E+02  0.00000000000E+00 0. -1.
         11    1    3    3    0    0 -0.77682018461E+01  0.56638158743E+01  0.33035746018E+02  0.34406166387E+02  0.51100000000E-03 0.  1.
        -11    1    3    3    0    0  0.12457266615E+02  0.10637921560E+02  0.23187555640E+01  0.16544651530E+02  0.51100000000E-03 0. -1.
         12    1    3    3    0    0 -0.16100083126E+01  0.11559153405E+00 -0.81935430297E+01  0.83510260178E+01  0.00000000000E+00 0. -1.
</event>
<event>
 7    1  0.4237994E-013  0.5930193E+02  0.7816164E-02  0.1266605E+00
        -11   -1    0    0    0    0  0.00000000000E+00  0.00000000000E+00  0.45593999997E+02  0.45594000000E+02  0.51100000000E-03 0. -1.
         11   -1    0    0    0    0 -0.00000000000E+00 -0.00000000000E+00 -0.45593999997E+02  0.45594000000E+02  0.51100000000E-03 0.  1.
    9900012    2    1    2    0    0  0.21376094961E+02 -0.69266936322E+01 -0.22623102865E+02  0.59301932452E+02  0.49999978889E+02 0.  0.
         12    1    1    2    0    0 -0.21376094961E+02  0.69266936322E+01  0.22623102865E+02  0.31886067548E+02  0.00000000000E+00 0. -1.
         11    1    3    3    0    0  0.19514400855E+02 -0.94431404615E+01 -0.28751260124E+02  0.36008605936E+02  0.51100000000E-03 0.  1.
        -11    1    3    3    0    0 -0.82069937821E+01  0.75969594139E+01  0.34236365089E+01  0.11695718297E+02  0.51100000000E-03 0. -1.
         12    1    3    3    0    0  0.10068687888E+02 -0.50805125846E+01  0.27045207503E+01  0.11597608219E+02  0.00000000000E+00 0. -1.
</event>
<event>
 7    1  0.4237994E-013  0.5930199E+02  0.7816164E-02  0.1266605E+00
        -11   -1    0    0    0    0  0.00000000000E+00  0.00000000000E+00  0.45593999997E+02  0.45594000000E+02  0.51100000000E-03 0. -1.
         11   -1    0    0    0    0 -0.00000000000E+00 -0.00000000000E+00 -0.45593999997E+02  0.45594000000E+02  0.51100000000E-03 0.  1.
    9900012    2    1    2    0    0  0.90858705549E+01  0.30368794312E+02 -0.34497363676E+01  0.59301993779E+02  0.50000090735E+02 0.  0.
         12    1    1    2    0    0 -0.90858705549E+01 -0.30368794312E+02  0.34497363676E+01  0.31886006221E+02  0.00000000000E+00 0. -1.
         11    1    3    3    0    0  0.10798388734E+01 -0.21838609090E+01  0.16991322754E+02  0.17165091018E+02  0.51100000000E-03 0. -1.
        -11    1    3    3    0    0  0.24492038915E+01  0.22130997035E+02 -0.52176407577E+01  0.22869267693E+02  0.51100000000E-03 0.  1.
        -12    1    3    3    0    0  0.55568277900E+01  0.10421658186E+02 -0.15223418364E+02  0.19267635068E+02  0.00000000000E+00 0.  1.
</event>
<event>
 7    1  0.4237994E-013  0.5930195E+02  0.7816164E-02  0.1266605E+00
        -11   -1    0    0    0    0  0.00000000000E+00  0.00000000000E+00  0.45593999997E+02  0.45594000000E+02  0.51100000000E-03 0. -1.
         11   -1    0    0    0    0 -0.00000000000E+00 -0.00000000000E+00 -0.45593999997E+02  0.45594000000E+02  0.51100000000E-03 0.  1.
    9900012    2    1    2    0    0  0.13260654692E+01 -0.17069497495E+02 -0.26899700402E+02  0.59301951702E+02  0.50000013997E+02 0.  0.
         12    1    1    2    0    0 -0.13260654692E+01  0.17069497495E+02  0.26899700402E+02  0.31886048298E+02  0.00000000000E+00 0. -1.
         11    1    3    3    0    0  0.32786306689E+01  0.68950791340E+01 -0.22525019436E+02  0.23783776743E+02  0.51100000000E-03 0. -1.
        -11    1    3    3    0    0  0.33292229772E+01 -0.28175063541E+02 -0.23580588110E+01  0.28468901854E+02  0.51100000000E-03 0.  1.
        -12    1    3    3    0    0 -0.52817881769E+01  0.42104869125E+01 -0.20166221546E+01  0.70492731044E+01  0.00000000000E+00 0.  1.
</event>
<event>
 7    1  0.4237994E-013  0.5930197E+02  0.7816164E-02  0.1266605E+00
        -11   -1    0    0    0    0  0.00000000000E+00  0.00000000000E+00  0.45593999997E+02  0.45594000000E+02  0.51100000000E-03 0. -1.
         11   -1    0    0    0    0 -0.00000000000E+00 -0.00000000000E+00 -0.45593999997E+02  0.45594000000E+02  0.51100000000E-03 0.  1.
    9900012    2    1    2    0    0  0.62205245664E+01 -0.30748805528E+02 -0.57039262376E+01  0.59301972624E+02  0.50000052153E+02 0.  0.
         12    1    1    2    0    0 -0.62205245664E+01  0.30748805528E+02  0.57039262376E+01  0.31886027376E+02  0.00000000000E+00 0. -1.
         11    1    3    3    0    0 -0.10545308102E+01 -0.11382107157E+02  0.36683366404E+01  0.12005044462E+02  0.51100000000E-03 0. -1.
        -11    1    3    3    0    0  0.16311933690E+02 -0.78291123178E+01 -0.21623783802E+02  0.28195074154E+02  0.51100000000E-03 0.  1.
        -12    1    3    3    0    0 -0.90368783131E+01 -0.11537586053E+02  0.12251520924E+02  0.19101854008E+02  0.00000000000E+00 0.  1.
</event>
<event>
 7    1  0.4237994E-013  0.5930195E+02  0.7816164E-02  0.1266605E+00
        -11   -1    0    0    0    0  0.00000000000E+00  0.00000000000E+00  0.45593999997E+02  0.45594000000E+02  0.51100000000E-03 0.  1.
         11   -1    0    0    0    0 -0.00000000000E+00 -0.00000000000E+00 -0.45593999997E+02  0.45594000000E+02  0.51100000000E-03 0. -1.
    9900012    2    1    2    0    0 -0.12634426964E+02  0.58280353629E+01  0.28690158911E+02  0.59301953534E+02  0.50000017337E+02 0.  0.
         12    1    1    2    0    0  0.12634426964E+02 -0.58280353629E+01 -0.28690158911E+02  0.31886046466E+02  0.00000000000E+00 0. -1.
         11    1    3    3    0    0  0.78079458690E+01 -0.87826715888E+01 -0.52200125828E+01  0.12858766292E+02  0.51100000000E-03 0. -1.
        -11    1    3    3    0    0 -0.19452156036E+02  0.46288153249E+01  0.29128148749E+02  0.35330742358E+02  0.51100000000E-03 0.  1.
        -12    1    3    3    0    0 -0.99021679692E+00  0.99818916268E+01  0.47820227450E+01  0.11112444884E+02  0.00000000000E+00 0.  1.
</event>
<event>
 7    1  0.4237994E-013  0.5930199E+02  0.7816164E-02  0.1266605E+00
        -11   -1    0    0    0    0  0.00000000000E+00  0.00000000000E+00  0.45593999997E+02  0.45594000000E+02  0.51100000000E-03 0.  1.
         11   -1    0    0    0    0 -0.00000000000E+00 -0.00000000000E+00 -0.45593999997E+02  0.45594000000E+02  0.51100000000E-03 0. -1.
    9900012    2    1    2    0    0 -0.23096998308E+02  0.20395120466E+02  0.82027575977E+01  0.59301992068E+02  0.50000087614E+02 0.  0.
         12    1    1    2    0    0  0.23096998308E+02 -0.20395120466E+02 -0.82027575977E+01  0.31886007932E+02  0.00000000000E+00 0. -1.
         11    1    3    3    0    0 -0.10032389344E+01 -0.12068781247E+02  0.10758421938E+02  0.16198938608E+02  0.51100000000E-03 0. -1.
        -11    1    3    3    0    0 -0.85585449739E+01  0.26986681003E+02 -0.19468439819E+00  0.28311968245E+02  0.51100000000E-03 0.  1.
         12    1    3    3    0    0 -0.13535214400E+02  0.54772207096E+01 -0.23609799420E+01  0.14791085215E+02  0.00000000000E+00 0. -1.
</event>
<event>
 7    1  0.4237994E-013  0.5930195E+02  0.7816164E-02  0.1266605E+00
        -11   -1    0    0    0    0  0.00000000000E+00  0.00000000000E+00  0.45593999997E+02  0.45594000000E+02  0.51100000000E-03 0.  1.
         11   -1    0    0    0    0 -0.00000000000E+00 -0.00000000000E+00 -0.45593999997E+02  0.45594000000E+02  0.51100000000E-03 0. -1.
    9900012    2    1    2    0    0  0.99883779769E+01  0.20205039819E+02 -0.22554580149E+02  0.59301946396E+02  0.50000004320E+02 0.  0.
         12    1    1    2    0    0 -0.99883779769E+01 -0.20205039819E+02  0.22554580149E+02  0.31886053604E+02  0.00000000000E+00 0. -1.
         11    1    3    3    0    0 -0.10769900828E+02  0.11817397791E+02 -0.29692903512E+01  0.16262175127E+02  0.51100000000E-03 0. -1.
        -11    1    3    3    0    0  0.18646637567E+02 -0.42387866766E+00  0.28276132677E+01  0.18864574280E+02  0.51100000000E-03 0.  1.
        -12    1    3    3    0    0  0.21116412376E+01  0.88115206957E+01 -0.22412903066E+02  0.24175196990E+02  0.00000000000E+00 0.  1.
</event>
<event>
 7    1  0.4237994E-013  0.5930198E+02  0.7816164E-02  0.1266605E+00
        -11   -1    0    0    0    0  0.00000000000E+00  0.00000000000E+00  0.45593999997E+02  0.45594000000E+02  0.51100000000E-03 0.  1.
         11   -1    0    0    0    0 -0.00000000000E+00 -0.00000000000E+00 -0.45593999997E+02  0.45594000000E+02  0.51100000000E-03 0. -1.
    9900012    2    1    2    0    0  0.29432157917E+02 -0.11809781734E+02 -0.33158986766E+01  0.59301983499E+02  0.50000071986E+02 0.  0.
         12    1    1    2    0    0 -0.29432157917E+02  0.11809781734E+02  0.33158986766E+01  0.31886016501E+02  0.00000000000E+00 0. -1.
         11    1    3    3    0    0 -0.61025147530E+01  0.83839512700E+00 -0.36664402572E+01  0.71684291948E+01  0.51100000000E-03 0. -1.
        -11    1    3    3    0    0  0.29833074725E+02 -0.13502021895E+02 -0.14790883685E+02  0.35931701647E+02  0.51100000000E-03 0.  1.
        -12    1    3    3    0    0  0.57015979456E+01  0.85384503394E+00  0.15141425265E+02  0.16201852658E+02  0.00000000000E+00 0.  1.
</event>
<event>
 7    1  0.4237994E-013  0.5930193E+02  0.7816164E-02  0.1266605E+00
        -11   -1    0    0    0    0  0.00000000000E+00  0.00000000000E+00  0.45593999997E+02  0.45594000000E+02  0.51100000000E-03 0. -1.
         11   -1    0    0    0    0 -0.00000000000E+00 -0.00000000000E+00 -0.45593999997E+02  0.45594000000E+02  0.51100000000E-03 0.  1.
    9900012    2    1    2    0    0 -0.82274414271E+01  0.29521901781E+02 -0.88027229426E+01  0.59301930810E+02  0.49999975894E+02 0.  0.
         12    1    1    2    0    0  0.82274414271E+01 -0.29521901781E+02  0.88027229426E+01  0.31886069190E+02  0.00000000000E+00 0. -1.
         11    1    3    3    0    0  0.11245351307E+02 -0.74402610949E+01 -0.34589342534E+01  0.13920475481E+02  0.51100000000E-03 0. -1.
        -11    1    3    3    0    0 -0.12340798267E+02  0.18178572345E+02  0.53601333698E+01  0.22616074469E+02  0.51100000000E-03 0.  1.
         12    1    3    3    0    0 -0.71319944673E+01  0.18783590530E+02 -0.10703922059E+02  0.22765380861E+02  0.00000000000E+00 0. -1.
</event>
<event>
 7    1  0.4237994E-013  0.5930195E+02  0.7816164E-02  0.1266605E+00
        -11   -1    0    0    0    0  0.00000000000E+00  0.00000000000E+00  0.45593999997E+02  0.45594000000E+02  0.51100000000E-03 0.  1.
         11   -1    0    0    0    0 -0.00000000000E+00 -0.00000000000E+00 -0.45593999997E+02  0.45594000000E+02  0.51100000000E-03 0. -1.
    9900012    2    1    2    0    0  0.79220509444E+01 -0.19004192980E+02  0.24347524899E+02  0.59301949591E+02  0.50000010146E+02 0.  0.
         12    1    1    2    0    0 -0.79220509444E+01  0.19004192980E+02 -0.24347524899E+02  0.31886050409E+02  0.00000000000E+00 0. -1.
         11    1    3    3    0    0  0.12804009915E+01 -0.14800394391E+02 -0.13519016107E+02  0.20086186735E+02  0.51100000000E-03 0. -1.
        -11    1    3    3    0    0  0.74380171194E+01 -0.18749417068E+01  0.26625304625E+02  0.27708236171E+02  0.51100000000E-03 0.  1.
         12    1    3    3    0    0 -0.79636716647E+00 -0.23288568824E+01  0.11241236381E+02  0.11507526685E+02  0.00000000000E+00 0. -1.
</event>
<event>
 7    1  0.4237994E-013  0.5930195E+02  0.7816164E-02  0.1266605E+00
        -11   -1    0    0    0    0  0.00000000000E+00  0.00000000000E+00  0.45593999997E+02  0.45594000000E+02  0.51100000000E-03 0.  1.
         11   -1    0    0    0    0 -0.00000000000E+00 -0.00000000000E+00 -0.45593999997E+02  0.45594000000E+02  0.51100000000E-03 0. -1.
    9900012    2    1    2    0    0 -0.16826826050E+02  0.98401141024E+00  0.27066771891E+02  0.59301945149E+02  0.50000002045E+02 0.  0.
         12    1    1    2    0    0  0.16826826050E+02 -0.98401141024E+00 -0.27066771891E+02  0.31886054851E+02  0.00000000000E+00 0. -1.
         11    1    3    3    0    0  0.30316662961E+01 -0.57333255755E+00 -0.52743788094E+01  0.61105468527E+01  0.51100000000E-03 0. -1.
        -11    1    3    3    0    0 -0.42858898021E+01 -0.37685167819E+01  0.35901724605E+02  0.36352501977E+02  0.51100000000E-03 0.  1.
        -12    1    3    3    0    0 -0.15572602544E+02  0.53258607497E+01 -0.35605739048E+01  0.16838896319E+02  0.00000000000E+00 0.  1.
</event>
<event>
 7    1  0.4237994E-013  0.5930195E+02  0.7816164E-02  0.1266605E+00
        -11   -1    0    0    0    0  0.00000000000E+00  0.00000000000E+00  0.45593999997E+02  0.45594000000E+02  0.51100000000E-03 0. -1.
         11   -1    0    0    0    0 -0.00000000000E+00 -0.00000000000E+00 -0.45593999997E+02  0.45594000000E+02  0.51100000000E-03 0.  1.
    9900012    2    1    2    0    0 -0.29738461339E+02  0.11484138437E+02 -0.67742547172E+00  0.59301946250E+02  0.50000004053E+02 0.  0.
         12    1    1    2    0    0  0.29738461339E+02 -0.11484138437E+02  0.67742547172E+00  0.31886053750E+02  0.00000000000E+00 0. -1.
         11    1    3    3    0    0 -0.27709441930E+02  0.17094573697E+01 -0.82433013680E+01  0.28960100730E+02  0.51100000000E-03 0. -1.
        -11    1    3    3    0    0  0.42748661714E+01 -0.20945671694E+01 -0.82881587705E+01  0.95579950030E+01  0.51100000000E-03 0.  1.
         12    1    3    3    0    0 -0.63038855803E+01  0.11869248237E+02  0.15854034667E+02  0.20783850517E+02  0.00000000000E+00 0. -1.
</event>
<event>
 7    1  0.4237994E-013  0.5930192E+02  0.7816164E-02  0.1266605E+00
        -11   -1    0    0    0    0  0.00000000000E+00  0.00000000000E+00  0.45593999997E+02  0.45594000000E+02  0.51100000000E-03 0.  1.
         11   -1    0    0    0    0 -0.00000000000E+00 -0.00000000000E+00 -0.45593999997E+02  0.45594000000E+02  0.51100000000E-03 0. -1.
    9900012    2    1    2    0    0  0.25431468366E+02  0.11866143873E+02  0.15137938011E+02  0.59301919638E+02  0.49999955518E+02 0.  0.
         12    1    1    2    0    0 -0.25431468366E+02 -0.11866143873E+02 -0.15137938011E+02  0.31886080362E+02  0.00000000000E+00 0. -1.
         11    1    3    3    0    0 -0.15506563843E+01  0.26180830538E+02  0.88253124949E+01  0.27671764739E+02  0.51100000000E-03 0. -1.
        -11    1    3    3    0    0  0.25726195722E+01 -0.13957805414E+01 -0.94390040271E+00  0.30753086048E+01  0.51100000000E-03 0.  1.
         12    1    3    3    0    0  0.24409505178E+02 -0.12918906124E+02  0.72565259183E+01  0.28554846294E+02  0.00000000000E+00 0. -1.
</event>
<event>
 7    1  0.4237994E-013  0.5930193E+02  0.7816164E-02  0.1266605E+00
        -11   -1    0    0    0    0  0.00000000000E+00  0.00000000000E+00  0.45593999997E+02  0.45594000000E+02  0.51100000000E-03 0.  1.
         11   -1    0    0    0    0 -0.00000000000E+00 -0.00000000000E+00 -0.45593999997E+02  0.45594000000E+02  0.51100000000E-03 0. -1.
    9900012    2    1    2    0    0  0.16873107887E+02  0.59844274061E+01  0.26385727782E+02  0.59301925112E+02  0.49999965503E+02 0.  0.
         12    1    1    2    0    0 -0.16873107887E+02 -0.59844274061E+01 -0.26385727782E+02  0.31886074888E+02  0.00000000000E+00 0. -1.
         11    1    3    3    0    0 -0.12166491321E+02 -0.75982012788E+01  0.94203073934E+01  0.17160954676E+02  0.51100000000E-03 0. -1.
        -11    1    3    3    0    0  0.26352831770E+02  0.17655730908E+02  0.18863152556E+02  0.36905488762E+02  0.51100000000E-03 0.  1.
        -12    1    3    3    0    0  0.26867674382E+01 -0.40731022229E+01 -0.18977321671E+01  0.52354816744E+01  0.00000000000E+00 0.  1.
</event>
<event>
 7    1  0.4237994E-013  0.5930196E+02  0.7816164E-02  0.1266605E+00
        -11   -1    0    0    0    0  0.00000000000E+00  0.00000000000E+00  0.45593999997E+02  0.45594000000E+02  0.51100000000E-03 0.  1.
         11   -1    0    0    0    0 -0.00000000000E+00 -0.00000000000E+00 -0.45593999997E+02  0.45594000000E+02  0.51100000000E-03 0. -1.
    9900012    2    1    2    0    0 -0.26864337766E+02  0.55427324313E+01  0.16257454599E+02  0.59301962986E+02  0.50000034575E+02 0.  0.
         12    1    1    2    0    0  0.26864337766E+02 -0.55427324313E+01 -0.16257454599E+02  0.31886037014E+02  0.00000000000E+00 0. -1.
         11    1    3    3    0    0  0.70736398791E+00 -0.12431849048E+02 -0.46934010231E+01  0.13307112684E+02  0.51100000000E-03 0. -1.
        -11    1    3    3    0    0 -0.27715575844E+02  0.22785771354E+02  0.16710502172E+02  0.39580113740E+02  0.51100000000E-03 0.  1.
        -12    1    3    3    0    0  0.14387409058E+00 -0.48111898754E+01  0.42403534509E+01  0.64147365620E+01  0.00000000000E+00 0.  1.
</event>
<event>
 7    1  0.4237994E-013  0.5930193E+02  0.7816164E-02  0.1266605E+00
        -11   -1    0    0    0    0  0.00000000000E+00  0.00000000000E+00  0.45593999997E+02  0.45594000000E+02  0.51100000000E-03 0. -1.
         11   -1    0    0    0    0 -0.00000000000E+00 -0.00000000000E+00 -0.45593999997E+02  0.45594000000E+02  0.51100000000E-03 0.  1.
    9900012    2    1    2    0    0  0.29450922267E+02  0.86391340240E+01  0.86446492608E+01  0.59301930629E+02  0.49999975565E+02 0.  0.
         12    1    1    2    0    0 -0.29450922267E+02 -0.86391340240E+01 -0.86446492608E+01  0.31886069371E+02  0.00000000000E+00 0. -1.
         11    1    3    3    0    0  0.15430334204E+02 -0.17180511495E+02  0.12665680205E+02  0.26337893693E+02  0.51100000000E-03 0. -1.
        -11    1    3    3    0    0  0.10385288392E+02  0.25461854893E+02  0.44644587446E-01  0.27498404735E+02  0.51100000000E-03 0.  1.
         12    1    3    3    0    0  0.36352996710E+01  0.35779062628E+00 -0.40656755314E+01  0.54656322010E+01  0.00000000000E+00 0. -1.
</event>
<event>
 7    1  0.4237994E-013  0.5930191E+02  0.7816164E-02  0.1266605E+00
        -11   -1    0    0    0    0  0.00000000000E+00  0.00000000000E+00  0.45593999997E+02  0.45594000000E+02  0.51100000000E-03 0.  1.
         11   -1    0    0    0    0 -0.00000000000E+00 -0.00000000000E+00 -0.45593999997E+02  0.45594000000E+02  0.51100000000E-03 0. -1.
    9900012    2    1    2    0    0 -0.52880194899E+01 -0.85744689354E+01 -0.30252897234E+02  0.59301914341E+02  0.49999945858E+02 0.  0.
         12    1    1    2    0    0  0.52880194899E+01  0.85744689354E+01  0.30252897234E+02  0.31886085659E+02  0.00000000000E+00 0. -1.
         11    1    3    3    0    0 -0.72650463935E+01 -0.10195541921E+02  0.66668943603E+01  0.14183703848E+02  0.51100000000E-03 0. -1.
        -11    1    3    3    0    0  0.76006999437E+01 -0.95350376289E+01 -0.25167698411E+02  0.27966062036E+02  0.51100000000E-03 0.  1.
         12    1    3    3    0    0 -0.56236730401E+01  0.11156110615E+02 -0.11752093183E+02  0.17152148457E+02  0.00000000000E+00 0. -1.
</event>
<event>
 7    1  0.4237994E-013  0.5930204E+02  0.7816164E-02  0.1266604E+00
        -11   -1    0    0    0    0  0.00000000000E+00  0.00000000000E+00  0.45593999997E+02  0.45594000000E+02  0.51100000000E-03 0. -1.
         11   -1    0    0    0    0 -0.00000000000E+00 -0.00000000000E+00 -0.45593999997E+02  0.45594000000E+02  0.51100000000E-03 0.  1.
    9900012    2    1    2    0    0 -0.68771466293E+01 -0.27712017502E+02  0.14193783881E+02  0.59302038188E+02  0.50000171726E+02 0.  0.
         12    1    1    2    0    0  0.68771466293E+01  0.27712017502E+02 -0.14193783881E+02  0.31885961812E+02  0.00000000000E+00 0. -1.
         11    1    3    3    0    0  0.78284207148E+01  0.10670965613E+02  0.58414372572E+01  0.14466377138E+02  0.51100000000E-03 0. -1.
        -11    1    3    3    0    0 -0.53533390620E+01 -0.16711941652E+02  0.11562838878E+02  0.21015386651E+02  0.51100000000E-03 0.  1.
         12    1    3    3    0    0 -0.93522282821E+01 -0.21671041463E+02 -0.32104922541E+01  0.23820274399E+02  0.00000000000E+00 0. -1.
</event>
<event>
 7    1  0.4237994E-013  0.5930207E+02  0.7816164E-02  0.1266604E+00
        -11   -1    0    0    0    0  0.00000000000E+00  0.00000000000E+00  0.45593999997E+02  0.45594000000E+02  0.51100000000E-03 0. -1.
         11   -1    0    0    0    0 -0.00000000000E+00 -0.00000000000E+00 -0.45593999997E+02  0.45594000000E+02  0.51100000000E-03 0.  1.
    9900012    2    1    2    0    0 -0.11656972780E+02  0.25005386422E+02 -0.15986177602E+02  0.59302074597E+02  0.50000238126E+02 0.  0.
         12    1    1    2    0    0  0.11656972780E+02 -0.25005386422E+02  0.15986177602E+02  0.31885925403E+02  0.00000000000E+00 0. -1.
         11    1    3    3    0    0  0.97321611275E+01  0.69677242650E+01  0.17451636919E+01  0.12095856242E+02  0.51100000000E-03 0. -1.
        -11    1    3    3    0    0 -0.27522863580E+02  0.53786200352E+01 -0.17657082036E+02  0.33139253453E+02  0.51100000000E-03 0.  1.
        -12    1    3    3    0    0  0.61337296730E+01  0.12659042121E+02 -0.74259258746E-01  0.14066964903E+02  0.00000000000E+00 0.  1.
</event>
<event>
 7    1  0.4237994E-013  0.5930195E+02  0.7816164E-02  0.1266605E+00
        -11   -1    0    0    0    0  0.00000000000E+00  0.00000000000E+00  0.45593999997E+02  0.45594000000E+02  0.51100000000E-03 0.  1.
         11   -1    0    0    0    0 -0.00000000000E+00 -0.00000000000E+00 -0.45593999997E+02  0.45594000000E+02  0.51100000000E-03 0. -1.
    9900012    2    1    2    0    0  0.25487371783E+02 -0.19156859590E+02 -0.35857133127E+00  0.59301953472E+02  0.50000017224E+02 0.  0.
         12    1    1    2    0    0 -0.25487371783E+02  0.19156859590E+02  0.35857133127E+00  0.31886046528E+02  0.00000000000E+00 0. -1.
         11    1    3    3    0    0  0.16315611152E+02  0.12350149500E+02  0.51829448932E+00  0.20469342671E+02  0.51100000000E-03 0. -1.
        -11    1    3    3    0    0  0.66876831535E+01 -0.22331954720E+02  0.91252957889E+01  0.25034223197E+02  0.51100000000E-03 0.  1.
         12    1    3    3    0    0  0.24840774781E+01 -0.91750543713E+01 -0.10002161609E+02  0.13798387605E+02  0.00000000000E+00 0. -1.
</event>
<event>
 7    1  0.4237994E-013  0.5930193E+02  0.7816164E-02  0.1266605E+00
        -11   -1    0    0    0    0  0.00000000000E+00  0.00000000000E+00  0.45593999997E+02  0.45594000000E+02  0.51100000000E-03 0.  1.
         11   -1    0    0    0    0 -0.00000000000E+00 -0.00000000000E+00 -0.45593999997E+02  0.45594000000E+02  0.51100000000E-03 0. -1.
    9900012    2    1    2    0    0 -0.23332953273E+02 -0.46876483076E+01  0.21220766835E+02  0.59301926235E+02  0.49999967550E+02 0.  0.
         12    1    1    2    0    0  0.23332953273E+02  0.46876483076E+01 -0.21220766835E+02  0.31886073765E+02  0.00000000000E+00 0. -1.
         11    1    3    3    0    0  0.87511986507E+01 -0.81848054280E+01  0.63012581299E+01  0.13538108140E+02  0.51100000000E-03 0. -1.
        -11    1    3    3    0    0 -0.19509076358E+02  0.13873915818E+02  0.16952498899E+02  0.29333885178E+02  0.51100000000E-03 0.  1.
         12    1    3    3    0    0 -0.12575075566E+02 -0.10376758697E+02 -0.20329901938E+01  0.16429932917E+02  0.00000000000E+00 0. -1.
</event>
<event>
 7    1  0.4237994E-013  0.5930196E+02  0.7816164E-02  0.1266605E+00
        -11   -1    0    0    0    0  0.00000000000E+00  0.00000000000E+00  0.45593999997E+02  0.45594000000E+02  0.51100000000E-03 0.  1.
         11   -1    0    0    0    0 -0.00000000000E+00 -0.00000000000E+00 -0.45593999997E+02  0.45594000000E+02  0.51100000000E-03 0. -1.
    9900012    2    1    2    0    0  0.24956372349E+02 -0.18831455876E+02  0.62670243915E+01  0.59301955311E+02  0.50000020577E+02 0.  0.
         12    1    1    2    0    0 -0.24956372349E+02  0.18831455876E+02 -0.62670243915E+01  0.31886044689E+02  0.00000000000E+00 0. -1.
         11    1    3    3    0    0 -0.10427433553E+02 -0.16433505162E+02 -0.54692726059E+01  0.20216438992E+02  0.51100000000E-03 0. -1.
        -11    1    3    3    0    0  0.11415867020E+02  0.46031603027E+01  0.41215523732E+01  0.12980689458E+02  0.51100000000E-03 0.  1.
         12    1    3    3    0    0  0.23967938882E+02 -0.70011110158E+01  0.76147446242E+01  0.26104826860E+02  0.00000000000E+00 0. -1.
</event>
<event>
 7    1  0.4237994E-013  0.5930194E+02  0.7816164E-02  0.1266605E+00
        -11   -1    0    0    0    0  0.00000000000E+00  0.00000000000E+00  0.45593999997E+02  0.45594000000E+02  0.51100000000E-03 0.  1.
         11   -1    0    0    0    0 -0.00000000000E+00 -0.00000000000E+00 -0.45593999997E+02  0.45594000000E+02  0.51100000000E-03 0. -1.
    9900012    2    1    2    0    0 -0.88635570528E+01 -0.30371908240E+02  0.39629713352E+01  0.59301943556E+02  0.49999999139E+02 0.  0.
         12    1    1    2    0    0  0.88635570528E+01  0.30371908240E+02 -0.39629713352E+01  0.31886056444E+02  0.00000000000E+00 0. -1.
         11    1    3    3    0    0 -0.50617999607E+01  0.30518809607E+01  0.24594322164E+01  0.64019218465E+01  0.51100000000E-03 0. -1.
        -11    1    3    3    0    0 -0.40236072786E+01 -0.35971465927E+02  0.14987260093E+02  0.39175933196E+02  0.51100000000E-03 0.  1.
        -12    1    3    3    0    0  0.22185018649E+00  0.25476767261E+01 -0.13483720974E+02  0.13724088513E+02  0.00000000000E+00 0.  1.
</event>
<event>
 7    1  0.4237994E-013  0.5930196E+02  0.7816164E-02  0.1266605E+00
        -11   -1    0    0    0    0  0.00000000000E+00  0.00000000000E+00  0.45593999997E+02  0.45594000000E+02  0.51100000000E-03 0. -1.
         11   -1    0    0    0    0 -0.00000000000E+00 -0.00000000000E+00 -0.45593999997E+02  0.45594000000E+02  0.51100000000E-03 0.  1.
    9900012    2    1    2    0    0  0.96171995111E+01  0.24755774709E+02 -0.17645980653E+02  0.59301960091E+02  0.50000029295E+02 0.  0.
         12    1    1    2    0    0 -0.96171995111E+01 -0.24755774709E+02  0.17645980653E+02  0.31886039909E+02  0.00000000000E+00 0. -1.
         11    1    3    3    0    0  0.18674758895E+02  0.55973642237E+01 -0.22280007093E+02  0.29605334357E+02  0.51100000000E-03 0. -1.
        -11    1    3    3    0    0 -0.73646684239E+01  0.13002065043E+01 -0.53236582593E+01  0.91798810161E+01  0.51100000000E-03 0.  1.
         12    1    3    3    0    0 -0.16928909601E+01  0.17858203981E+02  0.99576846996E+01  0.20516744718E+02  0.00000000000E+00 0. -1.
</event>
<event>
 7    1  0.4237994E-013  0.5930193E+02  0.7816164E-02  0.1266605E+00
        -11   -1    0    0    0    0  0.00000000000E+00  0.00000000000E+00  0.45593999997E+02  0.45594000000E+02  0.51100000000E-03 0. -1.
         11   -1    0    0    0    0 -0.00000000000E+00 -0.00000000000E+00 -0.45593999997E+02  0.45594000000E+02  0.51100000000E-03 0.  1.
    9900012    2    1    2    0    0 -0.77237686473E+00 -0.26158327571E+01 -0.31769200694E+02  0.59301933140E+02  0.49999980143E+02 0.  0.
         12    1    1    2    0    0  0.77237686473E+00  0.26158327571E+01  0.31769200694E+02  0.31886066860E+02  0.00000000000E+00 0. -1.
         11    1    3    3    0    0 -0.49690596071E+01 -0.17961282539E+02 -0.27733889727E+02  0.33413588006E+02  0.51100000000E-03 0. -1.
        -11    1    3    3    0    0 -0.23309783507E+00  0.15522459555E+02 -0.99927967192E+01  0.18462314908E+02  0.51100000000E-03 0.  1.
         12    1    3    3    0    0  0.44297805774E+01 -0.17700977369E+00  0.59574857518E+01  0.74260302253E+01  0.00000000000E+00 0. -1.
</event>
<event>
 7    1  0.4237994E-013  0.5930193E+02  0.7816164E-02  0.1266605E+00
        -11   -1    0    0    0    0  0.00000000000E+00  0.00000000000E+00  0.45593999997E+02  0.45594000000E+02  0.51100000000E-03 0.  1.
         11   -1    0    0    0    0 -0.00000000000E+00 -0.00000000000E+00 -0.45593999997E+02  0.45594000000E+02  0.51100000000E-03 0. -1.
    9900012    2    1    2    0    0 -0.11224690371E+02  0.88860843426E+01  0.28491494190E+02  0.59301930784E+02  0.49999975847E+02 0.  0.
         12    1    1    2    0    0  0.11224690371E+02 -0.88860843426E+01 -0.28491494190E+02  0.31886069216E+02  0.00000000000E+00 0. -1.
         11    1    3    3    0    0  0.71359792994E+01  0.14000675388E+02  0.32932980811E+02  0.36490030656E+02  0.51100000000E-03 0. -1.
        -11    1    3    3    0    0 -0.67587456054E+01 -0.47907910228E+01  0.32380964315E+01  0.88948068862E+01  0.51100000000E-03 0.  1.
         12    1    3    3    0    0 -0.11601924065E+02 -0.32380002282E+00 -0.76795830524E+01  0.13917093242E+02  0.00000000000E+00 0. -1.
</event>
<event>
 7    1  0.4237994E-013  0.5930186E+02  0.7816164E-02  0.1266605E+00
        -11   -1    0    0    0    0  0.00000000000E+00  0.00000000000E+00  0.45593999997E+02  0.45594000000E+02  0.51100000000E-03 0. -1.
         11   -1    0    0    0    0 -0.00000000000E+00 -0.00000000000E+00 -0.45593999997E+02  0.45594000000E+02  0.51100000000E-03 0.  1.
    9900012    2    1    2    0    0 -0.11733532406E+02  0.29534593838E+02  0.25995715971E+01  0.59301862128E+02  0.49999850635E+02 0.  0.
         12    1    1    2    0    0  0.11733532406E+02 -0.29534593838E+02 -0.25995715971E+01  0.31886137872E+02  0.00000000000E+00 0. -1.
         11    1    3    3    0    0 -0.64431096154E+01  0.25282405802E+02  0.20468949316E+02  0.33161598137E+02  0.51100000000E-03 0. -1.
        -11    1    3    3    0    0 -0.81856040468E+01 -0.44807877638E+01 -0.12100585022E+02  0.15280894304E+02  0.51100000000E-03 0.  1.
        -12    1    3    3    0    0  0.28951812567E+01  0.87329757994E+01 -0.57687926963E+01  0.10859369687E+02  0.00000000000E+00 0.  1.
</event>
<event>
 7    1  0.4237994E-013  0.5930194E+02  0.7816164E-02  0.1266605E+00
        -11   -1    0    0    0    0  0.00000000000E+00  0.00000000000E+00  0.45593999997E+02  0.45594000000E+02  0.51100000000E-03 0.  1.
         11   -1    0    0    0    0 -0.00000000000E+00 -0.00000000000E+00 -0.45593999997E+02  0.45594000000E+02  0.51100000000E-03 0. -1.
    9900012    2    1    2    0    0 -0.68313052479E+01  0.14975716441E+02  0.27309004540E+02  0.59301944376E+02  0.50000000635E+02 0.  0.
         12    1    1    2    0    0  0.68313052479E+01 -0.14975716441E+02 -0.27309004540E+02  0.31886055624E+02  0.00000000000E+00 0. -1.
         11    1    3    3    0    0  0.19081801921E+02  0.57002984503E+01 -0.26908728235E-02  0.19915033881E+02  0.51100000000E-03 0. -1.
        -11    1    3    3    0    0 -0.17311440806E+02  0.26939656406E+01  0.17737187873E+02  0.24930929938E+02  0.51100000000E-03 0.  1.
         12    1    3    3    0    0 -0.86016663624E+01  0.65814523499E+01  0.95745075397E+01  0.14455980557E+02  0.00000000000E+00 0. -1.
</event>
<event>
 7    1  0.4237994E-013  0.5930198E+02  0.7816164E-02  0.1266605E+00
        -11   -1    0    0    0    0  0.00000000000E+00  0.00000000000E+00  0.45593999997E+02  0.45594000000E+02  0.51100000000E-03 0.  1.
         11   -1    0    0    0    0 -0.00000000000E+00 -0.00000000000E+00 -0.45593999997E+02  0.45594000000E+02  0.51100000000E-03 0. -1.
    9900012    2    1    2    0    0  0.13908958495E+02 -0.23079456593E+02  0.17046936988E+02  0.59301976358E+02  0.50000058962E+02 0.  0.
         12    1    1    2    0    0 -0.13908958495E+02  0.23079456593E+02 -0.17046936988E+02  0.31886023642E+02  0.00000000000E+00 0. -1.
         11    1    3    3    0    0  0.73866881086E+01 -0.67684308483E+01 -0.34677285551E+01  0.10601884689E+02  0.51100000000E-03 0. -1.
        -11    1    3    3    0    0 -0.66315301958E+01 -0.99239058302E+01  0.29302471650E+02  0.31640100264E+02  0.51100000000E-03 0.  1.
        -12    1    3    3    0    0  0.13153800582E+02 -0.63871199148E+01 -0.87878061068E+01  0.17059991405E+02  0.00000000000E+00 0.  1.
</event>
<event>
 7    1  0.4237994E-013  0.5930191E+02  0.7816164E-02  0.1266605E+00
        -11   -1    0    0    0    0  0.00000000000E+00  0.00000000000E+00  0.45593999997E+02  0.45594000000E+02  0.51100000000E-03 0.  1.
         11   -1    0    0    0    0 -0.00000000000E+00 -0.00000000000E+00 -0.45593999997E+02  0.45594000000E+02  0.51100000000E-03 0. -1.
    9900012    2    1    2    0    0 -0.20893090102E+02 -0.14629685682E+00  0.24086929182E+02  0.59301909394E+02  0.49999936835E+02 0.  0.
         12    1    1    2    0    0  0.20893090102E+02  0.14629685682E+00 -0.24086929182E+02  0.31886090606E+02  0.00000000000E+00 0. -1.
         11    1    3    3    0    0 -0.25568182299E+02 -0.22846160173E+00 -0.33847233794E+01  0.25792256462E+02  0.51100000000E-03 0. -1.
        -11    1    3    3    0    0  0.25914792801E+00  0.89357903427E+01  0.16270840947E+02  0.18564907004E+02  0.51100000000E-03 0.  1.
         12    1    3    3    0    0  0.44159442694E+01 -0.88536255978E+01  0.11200811614E+02  0.14944745927E+02  0.00000000000E+00 0. -1.
</event>
<event>
 7    1  0.4237994E-013  0.5930195E+02  0.7816164E-02  0.1266605E+00
        -11   -1    0    0    0    0  0.00000000000E+00  0.00000000000E+00  0.45593999997E+02  0.45594000000E+02  0.51100000000E-03 0.  1.
         11   -1    0    0    0    0 -0.00000000000E+00 -0.00000000000E+00 -0.45593999997E+02  0.45594000000E+02  0.51100000000E-03 0. -1.
    9900012    2    1    2    0    0 -0.13178886573E+02 -0.28114107950E+02  0.72549350616E+01  0.59301949761E+02  0.50000010456E+02 0.  0.
         12    1    1    2    0    0  0.13178886573E+02  0.28114107950E+02 -0.72549350616E+01  0.31886050239E+02  0.00000000000E+00 0. -1.
         11    1    3    3    0    0  0.92282493653E+01  0.98021036543E+01 -0.29341929328E+01  0.13778654173E+02  0.51100000000E-03 0. -1.
        -11    1    3    3    0    0 -0.14336384129E+02 -0.24064944182E+02  0.38096864348E+01  0.28269544732E+02  0.51100000000E-03 0.  1.
         12    1    3    3    0    0 -0.80707518091E+01 -0.13851267422E+02  0.63794415597E+01  0.17253750855E+02  0.00000000000E+00 0. -1.
</event>
<event>
 7    1  0.4237994E-013  0.5930201E+02  0.7816164E-02  0.1266605E+00
        -11   -1    0    0    0    0  0.00000000000E+00  0.00000000000E+00  0.45593999997E+02  0.45594000000E+02  0.51100000000E-03 0.  1.
         11   -1    0    0    0    0 -0.00000000000E+00 -0.00000000000E+00 -0.45593999997E+02  0.45594000000E+02  0.51100000000E-03 0. -1.
    9900012    2    1    2    0    0  0.16110543474E+02 -0.12378486763E+02  0.24575186203E+02  0.59302010561E+02  0.50000121341E+02 0.  0.
         12    1    1    2    0    0 -0.16110543474E+02  0.12378486763E+02 -0.24575186203E+02  0.31885989439E+02  0.00000000000E+00 0. -1.
         11    1    3    3    0    0  0.22401360647E+02  0.83864868538E+01  0.22721814811E+02  0.32991438118E+02  0.51100000000E-03 0. -1.
        -11    1    3    3    0    0 -0.82354044284E+01 -0.59737682098E+01 -0.30261011900E+01  0.10614380877E+02  0.51100000000E-03 0.  1.
         12    1    3    3    0    0  0.19445872561E+01 -0.14791205407E+02  0.48794725825E+01  0.15696191566E+02  0.00000000000E+00 0. -1.
</event>
<event>
 7    1  0.4237994E-013  0.5930193E+02  0.7816164E-02  0.1266605E+00
        -11   -1    0    0    0    0  0.00000000000E+00  0.00000000000E+00  0.45593999997E+02  0.45594000000E+02  0.51100000000E-03 0.  1.
         11   -1    0    0    0    0 -0.00000000000E+00 -0.00000000000E+00 -0.45593999997E+02  0.45594000000E+02  0.51100000000E-03 0. -1.
    9900012    2    1    2    0    0 -0.92429817511E+01  0.27057973155E+02  0.14112216866E+02  0.59301932702E+02  0.49999979344E+02 0.  0.
         12    1    1    2    0    0  0.92429817511E+01 -0.27057973155E+02 -0.14112216866E+02  0.31886067298E+02  0.00000000000E+00 0. -1.
         11    1    3    3    0    0  0.97002104499E+01 -0.41318588574E+01  0.15618099131E+02  0.18843867998E+02  0.51100000000E-03 0. -1.
        -11    1    3    3    0    0 -0.19362349348E+01  0.17715083923E+02  0.35689584680E+01  0.18174450993E+02  0.51100000000E-03 0.  1.
         12    1    3    3    0    0 -0.17006957266E+02  0.13474748089E+02 -0.50748407331E+01  0.22283613710E+02  0.00000000000E+00 0. -1.
</event>
<event>
 7    1  0.4237994E-013  0.5930195E+02  0.7816164E-02  0.1266605E+00
        -11   -1    0    0    0    0  0.00000000000E+00  0.00000000000E+00  0.45593999997E+02  0.45594000000E+02  0.51100000000E-03 0.  1.
         11   -1    0    0    0    0 -0.00000000000E+00 -0.00000000000E+00 -0.45593999997E+02  0.45594000000E+02  0.51100000000E-03 0. -1.
    9900012    2    1    2    0    0  0.25080147114E+02 -0.13086865503E+01  0.19646724198E+02  0.59301949579E+02  0.50000010124E+02 0.  0.
         12    1    1    2    0    0 -0.25080147114E+02  0.13086865503E+01 -0.19646724198E+02  0.31886050421E+02  0.00000000000E+00 0. -1.
         11    1    3    3    0    0 -0.74133089533E+01  0.42113765235E+01 -0.37128467567E+01  0.92993587499E+01  0.51100000000E-03 0. -1.
        -11    1    3    3    0    0  0.76617351967E+01 -0.14313440388E+02  0.15662042139E+02  0.22558287307E+02  0.51100000000E-03 0.  1.
        -12    1    3    3    0    0  0.24831720870E+02  0.87933773146E+01  0.76975288156E+01  0.27444303523E+02  0.00000000000E+00 0.  1.
</event>
<event>
 7    1  0.4237994E-013  0.5930194E+02  0.7816164E-02  0.1266605E+00
        -11   -1    0    0    0    0  0.00000000000E+00  0.00000000000E+00  0.45593999997E+02  0.45594000000E+02  0.51100000000E-03 0. -1.
         11   -1    0    0    0    0 -0.00000000000E+00 -0.00000000000E+00 -0.45593999997E+02  0.45594000000E+02  0.51100000000E-03 0.  1.
    9900012    2    1    2    0    0  0.10543828475E+02  0.21480561112E+02 -0.21074481304E+02  0.59301943693E+02  0.49999999390E+02 0.  0.
         12    1    1    2    0    0 -0.10543828475E+02 -0.21480561112E+02  0.21074481304E+02  0.31886056307E+02  0.00000000000E+00 0. -1.
         11    1    3    3    0    0 -0.11986273129E+02  0.81284255165E+01  0.96274296032E+01  0.17390498725E+02  0.51100000000E-03 0. -1.
        -11    1    3    3    0    0  0.13932186064E+02  0.61259216685E+01 -0.25116728334E+02  0.29368056920E+02  0.51100000000E-03 0.  1.
         12    1    3    3    0    0  0.85979155391E+01  0.72262139269E+01 -0.55851825732E+01  0.12543388048E+02  0.00000000000E+00 0. -1.
</event>
<event>
 7    1  0.4237994E-013  0.5930193E+02  0.7816164E-02  0.1266605E+00
        -11   -1    0    0    0    0  0.00000000000E+00  0.00000000000E+00  0.45593999997E+02  0.45594000000E+02  0.51100000000E-03 0.  1.
         11   -1    0    0    0    0 -0.00000000000E+00 -0.00000000000E+00 -0.45593999997E+02  0.45594000000E+02  0.51100000000E-03 0. -1.
    9900012    2    1    2    0    0 -0.13001820148E+02  0.28198808177E+02  0.72457989349E+01  0.59301926050E+02  0.49999967213E+02 0.  0.
         12    1    1    2    0    0  0.13001820148E+02 -0.28198808177E+02 -0.72457989349E+01  0.31886073950E+02  0.00000000000E+00 0. -1.
         11    1    3    3    0    0 -0.10714577704E+02 -0.29424036952E+01  0.14122025888E+02  0.17969182795E+02  0.51100000000E-03 0. -1.
        -11    1    3    3    0    0  0.74657947041E+01  0.28777873176E+02 -0.10936513605E+01  0.29750632744E+02  0.51100000000E-03 0.  1.
        -12    1    3    3    0    0 -0.97530371480E+01  0.23633386955E+01 -0.57825755927E+01  0.11582110511E+02  0.00000000000E+00 0.  1.
</event>
<event>
 7    1  0.4237994E-013  0.5930196E+02  0.7816164E-02  0.1266605E+00
        -11   -1    0    0    0    0  0.00000000000E+00  0.00000000000E+00  0.45593999997E+02  0.45594000000E+02  0.51100000000E-03 0.  1.
         11   -1    0    0    0    0 -0.00000000000E+00 -0.00000000000E+00 -0.45593999997E+02  0.45594000000E+02  0.51100000000E-03 0. -1.
    9900012    2    1    2    0    0 -0.13447308946E+02  0.16425742150E+02  0.23792534183E+02  0.59301955938E+02  0.50000021722E+02 0.  0.
         12    1    1    2    0    0  0.13447308946E+02 -0.16425742150E+02 -0.23792534183E+02  0.31886044062E+02  0.00000000000E+00 0. -1.
         11    1    3    3    0    0 -0.12054067337E+02  0.51305793904E+01 -0.21447852002E+01  0.13274919512E+02  0.51100000000E-03 0. -1.
        -11    1    3    3    0    0  0.17025087795E+02  0.85811682099E+01  0.10048270192E+02  0.21551282941E+02  0.51100000000E-03 0.  1.
        -12    1    3    3    0    0 -0.18418329404E+02  0.27139945492E+01  0.15889049191E+02  0.24475753485E+02  0.00000000000E+00 0.  1.
</event>
<event>
 7    1  0.4237994E-013  0.5930194E+02  0.7816164E-02  0.1266605E+00
        -11   -1    0    0    0    0  0.00000000000E+00  0.00000000000E+00  0.45593999997E+02  0.45594000000E+02  0.51100000000E-03 0. -1.
         11   -1    0    0    0    0 -0.00000000000E+00 -0.00000000000E+00 -0.45593999997E+02  0.45594000000E+02  0.51100000000E-03 0.  1.
    9900012    2    1    2    0    0 -0.31013915320E+02  0.73246892726E+01  0.10984811248E+01  0.59301942276E+02  0.49999996805E+02 0.  0.
         12    1    1    2    0    0  0.31013915320E+02 -0.73246892726E+01 -0.10984811248E+01  0.31886057724E+02  0.00000000000E+00 0. -1.
         11    1    3    3    0    0 -0.17947283171E+02  0.51668471030E+01 -0.82848241041E+01  0.20431338500E+02  0.51100000000E-03 0. -1.
        -11    1    3    3    0    0  0.12233772719E+02  0.14157229533E+00  0.16975010752E+01  0.12351791280E+02  0.51100000000E-03 0.  1.
         12    1    3    3    0    0 -0.25300404868E+02  0.20162698744E+01  0.76858041538E+01  0.26518812496E+02  0.00000000000E+00 0. -1.
</event>
<event>
 7    1  0.4237994E-013  0.5930196E+02  0.7816164E-02  0.1266605E+00
        -11   -1    0    0    0    0  0.00000000000E+00  0.00000000000E+00  0.45593999997E+02  0.45594000000E+02  0.51100000000E-03 0. -1.
         11   -1    0    0    0    0 -0.00000000000E+00 -0.00000000000E+00 -0.45593999997E+02  0.45594000000E+02  0.51100000000E-03 0.  1.
    9900012    2    1    2    0    0  0.85011948257E+01 -0.80381275478E+01 -0.29662054620E+02  0.59301963993E+02  0.50000036412E+02 0.  0.
         12    1    1    2    0    0 -0.85011948257E+01  0.80381275478E+01  0.29662054620E+02  0.31886036007E+02  0.00000000000E+00 0. -1.
         11    1    3    3    0    0  0.27209300076E+01 -0.57430374348E+01  0.10052726391E+02  0.11892991518E+02  0.51100000000E-03 0. -1.
        -11    1    3    3    0    0  0.12374687453E+02  0.66168806952E+01 -0.16341897344E+02  0.21540046628E+02  0.51100000000E-03 0.  1.
        -12    1    3    3    0    0 -0.65944226347E+01 -0.89119708082E+01 -0.23372883668E+02  0.25868925848E+02  0.00000000000E+00 0.  1.
</event>
<event>
 7    1  0.4237994E-013  0.5930194E+02  0.7816164E-02  0.1266605E+00
        -11   -1    0    0    0    0  0.00000000000E+00  0.00000000000E+00  0.45593999997E+02  0.45594000000E+02  0.51100000000E-03 0.  1.
         11   -1    0    0    0    0 -0.00000000000E+00 -0.00000000000E+00 -0.45593999997E+02  0.45594000000E+02  0.51100000000E-03 0. -1.
    9900012    2    1    2    0    0 -0.23511673593E+02 -0.60312883334E+01  0.20677178488E+02  0.59301938086E+02  0.49999989165E+02 0.  0.
         12    1    1    2    0    0  0.23511673593E+02  0.60312883334E+01 -0.20677178488E+02  0.31886061914E+02  0.00000000000E+00 0. -1.
         11    1    3    3    0    0 -0.30352170754E+02 -0.77565462825E+01  0.25259697113E+01  0.31429266663E+02  0.51100000000E-03 0. -1.
        -11    1    3    3    0    0 -0.48281667292E+01  0.49464292799E+01  0.12987210853E+02  0.14712103948E+02  0.51100000000E-03 0.  1.
         12    1    3    3    0    0  0.11668663890E+02 -0.32211713307E+01  0.51639979240E+01  0.13160567475E+02  0.00000000000E+00 0. -1.
</event>
<event>
 7    1  0.4237994E-013  0.5930194E+02  0.7816164E-02  0.1266605E+00
        -11   -1    0    0    0    0  0.00000000000E+00  0.00000000000E+00  0.45593999997E+02  0.45594000000E+02  0.51100000000E-03 0.  1.
         11   -1    0    0    0    0 -0.00000000000E+00 -0.00000000000E+00 -0.45593999997E+02  0.45594000000E+02  0.51100000000E-03 0. -1.
    9900012    2    1    2    0    0 -0.10034820517E+02 -0.27397774028E+02  0.12860224764E+02  0.59301936814E+02  0.49999986844E+02 0.  0.
         12    1    1    2    0    0  0.10034820517E+02  0.27397774028E+02 -0.12860224764E+02  0.31886063186E+02  0.00000000000E+00 0. -1.
         11    1    3    3    0    0 -0.87386241969E+01  0.76785944660E+01 -0.95354528362E+01  0.15041583257E+02  0.51100000000E-03 0. -1.
        -11    1    3    3    0    0 -0.78583350067E+01 -0.20141457636E+02  0.15213018274E+02  0.26436105425E+02  0.51100000000E-03 0.  1.
         12    1    3    3    0    0  0.65621386864E+01 -0.14934910858E+02  0.71826593264E+01  0.17824248132E+02  0.00000000000E+00 0. -1.
</event>
<event>
 7    1  0.4237994E-013  0.5930194E+02  0.7816164E-02  0.1266605E+00
        -11   -1    0    0    0    0  0.00000000000E+00  0.00000000000E+00  0.45593999997E+02  0.45594000000E+02  0.51100000000E-03 0.  1.
         11   -1    0    0    0    0 -0.00000000000E+00 -0.00000000000E+00 -0.45593999997E+02  0.45594000000E+02  0.51100000000E-03 0. -1.
    9900012    2    1    2    0    0  0.12080347585E+02  0.12687625809E+02  0.26642258228E+02  0.59301943958E+02  0.49999999873E+02 0.  0.
         12    1    1    2    0    0 -0.12080347585E+02 -0.12687625809E+02 -0.26642258228E+02  0.31886056042E+02  0.00000000000E+00 0. -1.
         11    1    3    3    0    0 -0.45854179120E+01  0.48185174384E+01 -0.12768567727E+02  0.14397238964E+02  0.51100000000E-03 0. -1.
        -11    1    3    3    0    0  0.15637942527E+02  0.39133020776E+01  0.36456954726E+02  0.39861870600E+02  0.51100000000E-03 0.  1.
         12    1    3    3    0    0  0.10278229704E+01  0.39558062925E+01  0.29538712290E+01  0.50428343935E+01  0.00000000000E+00 0. -1.
</event>
<event>
 7    1  0.4237994E-013  0.5930194E+02  0.7816164E-02  0.1266605E+00
        -11   -1    0    0    0    0  0.00000000000E+00  0.00000000000E+00  0.45593999997E+02  0.45594000000E+02  0.51100000000E-03 0.  1.
         11   -1    0    0    0    0 -0.00000000000E+00 -0.00000000000E+00 -0.45593999997E+02  0.45594000000E+02  0.51100000000E-03 0. -1.
    9900012    2    1    2    0    0 -0.14006213816E+02  0.27719957672E+02  0.72215563464E+01  0.59301937922E+02  0.49999988865E+02 0.  0.
         12    1    1    2    0    0  0.14006213816E+02 -0.27719957672E+02 -0.72215563464E+01  0.31886062078E+02  0.00000000000E+00 0. -1.
         11    1    3    3    0    0 -0.10608935552E+02  0.24229548251E+02  0.78938954662E+01  0.27603153948E+02  0.51100000000E-03 0. -1.
        -11    1    3    3    0    0 -0.69844795063E+01 -0.91581954651E+01  0.96161763455E+01  0.15004210940E+02  0.51100000000E-03 0.  1.
         12    1    3    3    0    0  0.35872012426E+01  0.12648604886E+02 -0.10288515465E+02  0.16694573034E+02  0.00000000000E+00 0. -1.
</event>
<event>
 7    1  0.4237994E-013  0.5930195E+02  0.7816164E-02  0.1266605E+00
        -11   -1    0    0    0    0  0.00000000000E+00  0.00000000000E+00  0.45593999997E+02  0.45594000000E+02  0.51100000000E-03 0.  1.
         11   -1    0    0    0    0 -0.00000000000E+00 -0.00000000000E+00 -0.45593999997E+02  0.45594000000E+02  0.51100000000E-03 0. -1.
    9900012    2    1    2    0    0 -0.18255872097E+01  0.88467802459E+01  0.30579764103E+02  0.59301948786E+02  0.50000008679E+02 0.  0.
         12    1    1    2    0    0  0.18255872097E+01 -0.88467802459E+01 -0.30579764103E+02  0.31886051214E+02  0.00000000000E+00 0. -1.
         11    1    3    3    0    0  0.18640332035E+02  0.36574198116E+01  0.26831331275E+02  0.32874899791E+02  0.51100000000E-03 0. -1.
        -11    1    3    3    0    0 -0.15231699920E+02  0.53754940996E+01 -0.43995865343E+01  0.16740877552E+02  0.51100000000E-03 0.  1.
         12    1    3    3    0    0 -0.52342193248E+01 -0.18613366540E+00  0.81480193632E+01  0.96861714430E+01  0.00000000000E+00 0. -1.
</event>
<event>
 7    1  0.4237994E-013  0.5930193E+02  0.7816164E-02  0.1266605E+00
        -11   -1    0    0    0    0  0.00000000000E+00  0.00000000000E+00  0.45593999997E+02  0.45594000000E+02  0.51100000000E-03 0.  1.
         11   -1    0    0    0    0 -0.00000000000E+00 -0.00000000000E+00 -0.45593999997E+02  0.45594000000E+02  0.51100000000E-03 0. -1.
    9900012    2    1    2    0    0  0.81931067286E+00 -0.96836076062E+01  0.30369030345E+02  0.59301928897E+02  0.49999972406E+02 0.  0.
         12    1    1    2    0    0 -0.81931067286E+00  0.96836076062E+01 -0.30369030345E+02  0.31886071103E+02  0.00000000000E+00 0. -1.
         11    1    3    3    0    0 -0.91744676961E+01  0.45072325152E+00  0.22351238123E+02  0.24165095796E+02  0.51100000000E-03 0. -1.
        -11    1    3    3    0    0  0.15351061011E+02 -0.70507085868E+01 -0.74627446412E+01  0.18467813178E+02  0.51100000000E-03 0.  1.
        -12    1    3    3    0    0 -0.53572826417E+01 -0.30836222710E+01  0.15480536864E+02  0.16669019923E+02  0.00000000000E+00 0.  1.
</event>
<event>
 7    1  0.4237994E-013  0.5930192E+02  0.7816164E-02  0.1266605E+00
        -11   -1    0    0    0    0  0.00000000000E+00  0.00000000000E+00  0.45593999997E+02  0.45594000000E+02  0.51100000000E-03 0.  1.
         11   -1    0    0    0    0 -0.00000000000E+00 -0.00000000000E+00 -0.45593999997E+02  0.45594000000E+02  0.51100000000E-03 0. -1.
    9900012    2    1    2    0    0  0.21428801602E+02  0.14389165916E+02  0.18721125067E+02  0.59301919061E+02  0.49999954468E+02 0.  0.
         12    1    1    2    0    0 -0.21428801602E+02 -0.14389165916E+02 -0.18721125067E+02  0.31886080939E+02  0.00000000000E+00 0. -1.
         11    1    3    3    0    0  0.62313349328E+01 -0.25046274625E+01 -0.71462605470E+01  0.98067188110E+01  0.51100000000E-03 0. -1.
        -11    1    3    3    0    0 -0.74381037866E+01  0.14419248639E+02  0.20422334959E+02  0.26082789051E+02  0.51100000000E-03 0.  1.
        -12    1    3    3    0    0  0.22635570456E+02  0.24745447391E+01  0.54450506549E+01  0.23412411199E+02  0.00000000000E+00 0.  1.
</event>
<event>
 7    1  0.4237994E-013  0.5930202E+02  0.7816164E-02  0.1266604E+00
        -11   -1    0    0    0    0  0.00000000000E+00  0.00000000000E+00  0.45593999997E+02  0.45594000000E+02  0.51100000000E-03 0. -1.
         11   -1    0    0    0    0 -0.00000000000E+00 -0.00000000000E+00 -0.45593999997E+02  0.45594000000E+02  0.51100000000E-03 0.  1.
    9900012    2    1    2    0    0 -0.18119777149E+01 -0.27376394978E+02 -0.16247007631E+02  0.59302023111E+02  0.50000144228E+02 0.  0.
         12    1    1    2    0    0  0.18119777149E+01  0.27376394978E+02  0.16247007631E+02  0.31885976889E+02  0.00000000000E+00 0. -1.
         11    1    3    3    0    0 -0.16301197896E+02 -0.13411959233E+02  0.34751635785E+01  0.21393608052E+02  0.51100000000E-03 0. -1.
        -11    1    3    3    0    0  0.64476661664E+01 -0.20411939377E+02 -0.95932986187E+01  0.23457430524E+02  0.51100000000E-03 0.  1.
         12    1    3    3    0    0  0.80415540152E+01  0.64475036325E+01 -0.10128872591E+02  0.14450984535E+02  0.00000000000E+00 0. -1.
</event>
<event>
 7    1  0.4237994E-013  0.5930195E+02  0.7816164E-02  0.1266605E+00
        -11   -1    0    0    0    0  0.00000000000E+00  0.00000000000E+00  0.45593999997E+02  0.45594000000E+02  0.51100000000E-03 0.  1.
         11   -1    0    0    0    0 -0.00000000000E+00 -0.00000000000E+00 -0.45593999997E+02  0.45594000000E+02  0.51100000000E-03 0. -1.
    9900012    2    1    2    0    0  0.91024321087E+01  0.38250231194E+01  0.30318891079E+02  0.59301949313E+02  0.50000009639E+02 0.  0.
         12    1    1    2    0    0 -0.91024321087E+01 -0.38250231194E+01 -0.30318891079E+02  0.31886050687E+02  0.00000000000E+00 0. -1.
         11    1    3    3    0    0  0.14121179185E+02 -0.12138895380E+02  0.68985623775E+01  0.19858263916E+02  0.51100000000E-03 0. -1.
        -11    1    3    3    0    0 -0.72365474042E+01 -0.26894330983E+01  0.18468640108E+02  0.20017275949E+02  0.51100000000E-03 0.  1.
         12    1    3    3    0    0  0.22178003275E+01  0.18653351597E+02  0.49516885932E+01  0.19426409448E+02  0.00000000000E+00 0. -1.
</event>
<event>
 7    1  0.4237994E-013  0.5930192E+02  0.7816164E-02  0.1266605E+00
        -11   -1    0    0    0    0  0.00000000000E+00  0.00000000000E+00  0.45593999997E+02  0.45594000000E+02  0.51100000000E-03 0.  1.
         11   -1    0    0    0    0 -0.00000000000E+00 -0.00000000000E+00 -0.45593999997E+02  0.45594000000E+02  0.51100000000E-03 0. -1.
    9900012    2    1    2    0    0  0.27326661864E+02  0.95841712738E+01  0.13346143961E+02  0.59301916103E+02  0.49999949073E+02 0.  0.
         12    1    1    2    0    0 -0.27326661864E+02 -0.95841712738E+01 -0.13346143961E+02  0.31886083897E+02  0.00000000000E+00 0. -1.
         11    1    3    3    0    0  0.78294994917E+00 -0.19418800133E+01 -0.11889756279E+02  0.12072705300E+02  0.51100000000E-03 0. -1.
        -11    1    3    3    0    0  0.30226063129E+02  0.14581737769E+02  0.16797772997E+02  0.37528750932E+02  0.51100000000E-03 0.  1.
         12    1    3    3    0    0 -0.36823512141E+01 -0.30556864815E+01  0.84381272434E+01  0.97004598712E+01  0.00000000000E+00 0. -1.
</event>
<event>
 7    1  0.4237994E-013  0.5930196E+02  0.7816164E-02  0.1266605E+00
        -11   -1    0    0    0    0  0.00000000000E+00  0.00000000000E+00  0.45593999997E+02  0.45594000000E+02  0.51100000000E-03 0.  1.
         11   -1    0    0    0    0 -0.00000000000E+00 -0.00000000000E+00 -0.45593999997E+02  0.45594000000E+02  0.51100000000E-03 0. -1.
    9900012    2    1    2    0    0 -0.11909302852E+02  0.23779498124E+02 -0.17590437780E+02  0.59301960316E+02  0.50000029706E+02 0.  0.
         12    1    1    2    0    0  0.11909302852E+02 -0.23779498124E+02  0.17590437780E+02  0.31886039684E+02  0.00000000000E+00 0. -1.
         11    1    3    3    0    0 -0.24859531509E+02  0.10655297866E+02 -0.12905938759E+02  0.29968232096E+02  0.51100000000E-03 0. -1.
        -11    1    3    3    0    0  0.14690254162E+02  0.13626923773E+01  0.31620962587E+01  0.15088384635E+02  0.51100000000E-03 0.  1.
        -12    1    3    3    0    0 -0.17400255048E+01  0.11761507880E+02 -0.78465952800E+01  0.14245343585E+02  0.00000000000E+00 0.  1.
</event>
<event>
 7    1  0.4237994E-013  0.5930201E+02  0.7816164E-02  0.1266605E+00
        -11   -1    0    0    0    0  0.00000000000E+00  0.00000000000E+00  0.45593999997E+02  0.45594000000E+02  0.51100000000E-03 0. -1.
         11   -1    0    0    0    0 -0.00000000000E+00 -0.00000000000E+00 -0.45593999997E+02  0.45594000000E+02  0.51100000000E-03 0.  1.
    9900012    2    1    2    0    0  0.61499548254E+01 -0.11804705216E+02 -0.28974877095E+02  0.59302007586E+02  0.50000115915E+02 0.  0.
         12    1    1    2    0    0 -0.61499548254E+01  0.11804705216E+02  0.28974877095E+02  0.31885992414E+02  0.00000000000E+00 0. -1.
         11    1    3    3    0    0  0.15110753642E+02 -0.22676444930E+02 -0.13603414243E+02  0.30456672662E+02  0.51100000000E-03 0. -1.
        -11    1    3    3    0    0 -0.19099401163E+01  0.14282280539E+02 -0.15293659941E+02  0.21012554421E+02  0.51100000000E-03 0.  1.
         12    1    3    3    0    0 -0.70508587003E+01 -0.34105408241E+01 -0.77802911137E-01  0.78327805036E+01  0.00000000000E+00 0. -1.
</event>
<event>
 7    1  0.4237994E-013  0.5930194E+02  0.7816164E-02  0.1266605E+00
        -11   -1    0    0    0    0  0.00000000000E+00  0.00000000000E+00  0.45593999997E+02  0.45594000000E+02  0.51100000000E-03 0.  1.
         11   -1    0    0    0    0 -0.00000000000E+00 -0.00000000000E+00 -0.45593999997E+02  0.45594000000E+02  0.51100000000E-03 0. -1.
    9900012    2    1    2    0    0  0.24651022512E+02 -0.49141908893E+01  0.19618834385E+02  0.59301939634E+02  0.49999991987E+02 0.  0.
         12    1    1    2    0    0 -0.24651022512E+02  0.49141908893E+01 -0.19618834385E+02  0.31886060366E+02  0.00000000000E+00 0. -1.
         11    1    3    3    0    0  0.15941349688E+02  0.14205103544E+02 -0.77938149669E+01  0.22730049463E+02  0.51100000000E-03 0. -1.
        -11    1    3    3    0    0  0.10657970665E+02 -0.15997305511E+02  0.17489137250E+02  0.25987998082E+02  0.51100000000E-03 0.  1.
         12    1    3    3    0    0 -0.19482978405E+01 -0.31219889224E+01  0.99235121020E+01  0.10583892089E+02  0.00000000000E+00 0. -1.
</event>
<event>
 7    1  0.4237994E-013  0.5930194E+02  0.7816164E-02  0.1266605E+00
        -11   -1    0    0    0    0  0.00000000000E+00  0.00000000000E+00  0.45593999997E+02  0.45594000000E+02  0.51100000000E-03 0.  1.
         11   -1    0    0    0    0 -0.00000000000E+00 -0.00000000000E+00 -0.45593999997E+02  0.45594000000E+02  0.51100000000E-03 0. -1.
    9900012    2    1    2    0    0  0.18854335309E+02 -0.25472164525E+02  0.35219185364E+01  0.59301936654E+02  0.49999986552E+02 0.  0.
         12    1    1    2    0    0 -0.18854335309E+02  0.25472164525E+02 -0.35219185364E+01  0.31886063346E+02  0.00000000000E+00 0. -1.
         11    1    3    3    0    0  0.29126709857E+02 -0.15562427293E+02 -0.38792173361E+01  0.33250604472E+02  0.51100000000E-03 0. -1.
        -11    1    3    3    0    0 -0.77004034469E+01 -0.15984962727E+02  0.26926289975E+01  0.17946183377E+02  0.51100000000E-03 0.  1.
         12    1    3    3    0    0 -0.25719711012E+01  0.60752254949E+01  0.47085068750E+01  0.81051488050E+01  0.00000000000E+00 0. -1.
</event>
<event>
 7    1  0.4237994E-013  0.5930189E+02  0.7816164E-02  0.1266605E+00
        -11   -1    0    0    0    0  0.00000000000E+00  0.00000000000E+00  0.45593999997E+02  0.45594000000E+02  0.51100000000E-03 0.  1.
         11   -1    0    0    0    0 -0.00000000000E+00 -0.00000000000E+00 -0.45593999997E+02  0.45594000000E+02  0.51100000000E-03 0. -1.
    9900012    2    1    2    0    0 -0.74685960991E+01  0.19250134236E+02  0.24297660546E+02  0.59301891680E+02  0.49999904530E+02 0.  0.
         12    1    1    2    0    0  0.74685960991E+01 -0.19250134236E+02 -0.24297660546E+02  0.31886108320E+02  0.00000000000E+00 0. -1.
         11    1    3    3    0    0 -0.12100488094E+02 -0.32188813410E+01  0.16564139084E+02  0.20764241211E+02  0.51100000000E-03 0. -1.
        -11    1    3    3    0    0  0.10259201047E+02  0.27122642524E+02  0.10336617574E+02  0.30785298549E+02  0.51100000000E-03 0.  1.
        -12    1    3    3    0    0 -0.56273090525E+01 -0.46536269461E+01 -0.26030961125E+01  0.77523519204E+01  0.00000000000E+00 0.  1.
</event>
<event>
 7    1  0.4237994E-013  0.5930199E+02  0.7816164E-02  0.1266605E+00
        -11   -1    0    0    0    0  0.00000000000E+00  0.00000000000E+00  0.45593999997E+02  0.45594000000E+02  0.51100000000E-03 0. -1.
         11   -1    0    0    0    0 -0.00000000000E+00 -0.00000000000E+00 -0.45593999997E+02  0.45594000000E+02  0.51100000000E-03 0.  1.
    9900012    2    1    2    0    0 -0.27403638092E+02  0.73270969960E-01 -0.16301932734E+02  0.59301988017E+02  0.50000080225E+02 0.  0.
         12    1    1    2    0    0  0.27403638092E+02 -0.73270969960E-01  0.16301932734E+02  0.31886011983E+02  0.00000000000E+00 0. -1.
         11    1    3    3    0    0 -0.68480384649E+01 -0.29917568069E+01  0.10835264686E+02  0.13162416218E+02  0.51100000000E-03 0. -1.
        -11    1    3    3    0    0 -0.95832084146E+01  0.11817818726E+01 -0.32412458619E+02  0.33820141424E+02  0.51100000000E-03 0.  1.
        -12    1    3    3    0    0 -0.10972391213E+02  0.18832459042E+01  0.52752611990E+01  0.12319430376E+02  0.00000000000E+00 0.  1.
</event>
<event>
 7    1  0.4237994E-013  0.5930195E+02  0.7816164E-02  0.1266605E+00
        -11   -1    0    0    0    0  0.00000000000E+00  0.00000000000E+00  0.45593999997E+02  0.45594000000E+02  0.51100000000E-03 0. -1.
         11   -1    0    0    0    0 -0.00000000000E+00 -0.00000000000E+00 -0.45593999997E+02  0.45594000000E+02  0.51100000000E-03 0.  1.
    9900012    2    1    2    0    0  0.41889670046E+01  0.76804680510E+01 -0.30662404409E+02  0.59301951668E+02  0.50000013935E+02 0.  0.
         12    1    1    2    0    0 -0.41889670046E+01 -0.76804680510E+01  0.30662404409E+02  0.31886048332E+02  0.00000000000E+00 0. -1.
         11    1    3    3    0    0  0.74769166559E+01  0.23415513762E+02 -0.24005826035E+02  0.34357972165E+02  0.51100000000E-03 0.  1.
        -11    1    3    3    0    0 -0.10044959488E+02 -0.85612917787E+01 -0.27112213812E+00  0.13201152810E+02  0.51100000000E-03 0. -1.
         12    1    3    3    0    0  0.67570098362E+01 -0.71737539324E+01 -0.63854562361E+01  0.11742826693E+02  0.00000000000E+00 0. -1.
</event>
<event>
 7    1  0.4237994E-013  0.5930190E+02  0.7816164E-02  0.1266605E+00
        -11   -1    0    0    0    0  0.00000000000E+00  0.00000000000E+00  0.45593999997E+02  0.45594000000E+02  0.51100000000E-03 0. -1.
         11   -1    0    0    0    0 -0.00000000000E+00 -0.00000000000E+00 -0.45593999997E+02  0.45594000000E+02  0.51100000000E-03 0.  1.
    9900012    2    1    2    0    0 -0.19038026250E+02  0.25024527272E+02  0.52962025022E+01  0.59301903193E+02  0.49999925526E+02 0.  0.
         12    1    1    2    0    0  0.19038026250E+02 -0.25024527272E+02 -0.52962025022E+01  0.31886096807E+02  0.00000000000E+00 0. -1.
         11    1    3    3    0    0  0.31529289952E+01 -0.10737097158E+02  0.97825083057E+01  0.14863501796E+02  0.51100000000E-03 0. -1.
        -11    1    3    3    0    0 -0.20650323670E+02  0.35744709683E+02 -0.17740644095E+01  0.41319092957E+02  0.51100000000E-03 0.  1.
        -12    1    3    3    0    0 -0.15406315752E+01  0.16914746368E-01 -0.27122413940E+01  0.31193084391E+01  0.00000000000E+00 0.  1.
</event>
<event>
 7    1  0.4237994E-013  0.5930195E+02  0.7816164E-02  0.1266605E+00
        -11   -1    0    0    0    0  0.00000000000E+00  0.00000000000E+00  0.45593999997E+02  0.45594000000E+02  0.51100000000E-03 0. -1.
         11   -1    0    0    0    0 -0.00000000000E+00 -0.00000000000E+00 -0.45593999997E+02  0.45594000000E+02  0.51100000000E-03 0.  1.
    9900012    2    1    2    0    0 -0.23226678102E+02  0.19194624996E+02 -0.10431093850E+02  0.59301954098E+02  0.50000018365E+02 0.  0.
         12    1    1    2    0    0  0.23226678102E+02 -0.19194624996E+02  0.10431093850E+02  0.31886045902E+02  0.00000000000E+00 0. -1.
         11    1    3    3    0    0 -0.22745749423E+02  0.26892500884E+02  0.95621680151E+01  0.36496722839E+02  0.51100000000E-03 0. -1.
        -11    1    3    3    0    0  0.35826276631E+01 -0.36662650450E+01 -0.77777798183E+01  0.93150727059E+01  0.51100000000E-03 0.  1.
         12    1    3    3    0    0 -0.40635563419E+01 -0.40316108431E+01 -0.12215482047E+02  0.13490158552E+02  0.00000000000E+00 0. -1.
</event>
<event>
 7    1  0.4237994E-013  0.5930194E+02  0.7816164E-02  0.1266605E+00
        -11   -1    0    0    0    0  0.00000000000E+00  0.00000000000E+00  0.45593999997E+02  0.45594000000E+02  0.51100000000E-03 0. -1.
         11   -1    0    0    0    0 -0.00000000000E+00 -0.00000000000E+00 -0.45593999997E+02  0.45594000000E+02  0.51100000000E-03 0.  1.
    9900012    2    1    2    0    0  0.12565987877E+02  0.26046665590E+02 -0.13430861295E+02  0.59301939177E+02  0.49999991154E+02 0.  0.
         12    1    1    2    0    0 -0.12565987877E+02 -0.26046665590E+02  0.13430861295E+02  0.31886060823E+02  0.00000000000E+00 0. -1.
         11    1    3    3    0    0 -0.11580037950E+02  0.33548753693E+01 -0.10088811599E+02  0.15720578469E+02  0.51100000000E-03 0. -1.
        -11    1    3    3    0    0  0.20458025612E+02  0.24703655109E+02 -0.11768481773E+02  0.34165751143E+02  0.51100000000E-03 0.  1.
        -12    1    3    3    0    0  0.36880002150E+01 -0.20118648882E+01  0.84264320775E+01  0.94156095645E+01  0.00000000000E+00 0.  1.
</event>
<event>
 7    1  0.4237994E-013  0.5930194E+02  0.7816164E-02  0.1266605E+00
        -11   -1    0    0    0    0  0.00000000000E+00  0.00000000000E+00  0.45593999997E+02  0.45594000000E+02  0.51100000000E-03 0.  1.
         11   -1    0    0    0    0 -0.00000000000E+00 -0.00000000000E+00 -0.45593999997E+02  0.45594000000E+02  0.51100000000E-03 0. -1.
    9900012    2    1    2    0    0 -0.72668231324E+01  0.13073369328E+02  0.28160279826E+02  0.59301936212E+02  0.49999985745E+02 0.  0.
         12    1    1    2    0    0  0.72668231324E+01 -0.13073369328E+02 -0.28160279826E+02  0.31886063788E+02  0.00000000000E+00 0. -1.
         11    1    3    3    0    0 -0.20629496946E+02  0.20414909018E+01  0.26775671392E+01  0.20902468643E+02  0.51100000000E-03 0. -1.
        -11    1    3    3    0    0  0.14968864447E+02  0.16639106256E+00  0.61895790309E+01  0.16198934461E+02  0.51100000000E-03 0.  1.
        -12    1    3    3    0    0 -0.16061906338E+01  0.10865487364E+02  0.19293133656E+02  0.22200533108E+02  0.00000000000E+00 0.  1.
</event>
<event>
 7    1  0.4237994E-013  0.5930195E+02  0.7816164E-02  0.1266605E+00
        -11   -1    0    0    0    0  0.00000000000E+00  0.00000000000E+00  0.45593999997E+02  0.45594000000E+02  0.51100000000E-03 0. -1.
         11   -1    0    0    0    0 -0.00000000000E+00 -0.00000000000E+00 -0.45593999997E+02  0.45594000000E+02  0.51100000000E-03 0.  1.
    9900012    2    1    2    0    0 -0.84121136781E+01 -0.83418342597E+01 -0.29603554156E+02  0.59301948597E+02  0.50000008334E+02 0.  0.
         12    1    1    2    0    0  0.84121136781E+01  0.83418342597E+01  0.29603554156E+02  0.31886051403E+02  0.00000000000E+00 0. -1.
         11    1    3    3    0    0 -0.20649489477E+02 -0.13079659333E+02 -0.10896204296E+02  0.26762028553E+02  0.51100000000E-03 0. -1.
        -11    1    3    3    0    0  0.99981766258E+01  0.11211364759E+02 -0.28822287045E+01  0.15295930118E+02  0.51100000000E-03 0.  1.
        -12    1    3    3    0    0  0.22391991733E+01 -0.64735396857E+01 -0.15825121156E+02  0.17243989927E+02  0.00000000000E+00 0.  1.
</event>
<event>
 7    1  0.4237994E-013  0.5930212E+02  0.7816164E-02  0.1266604E+00
        -11   -1    0    0    0    0  0.00000000000E+00  0.00000000000E+00  0.45593999997E+02  0.45594000000E+02  0.51100000000E-03 0.  1.
         11   -1    0    0    0    0 -0.00000000000E+00 -0.00000000000E+00 -0.45593999997E+02  0.45594000000E+02  0.51100000000E-03 0. -1.
    9900012    2    1    2    0    0  0.13306471635E+02 -0.28908348230E+02  0.19885303296E+01  0.59302124795E+02  0.50000329674E+02 0.  0.
         12    1    1    2    0    0 -0.13306471635E+02  0.28908348230E+02 -0.19885303296E+01  0.31885875205E+02  0.00000000000E+00 0. -1.
         11    1    3    3    0    0  0.20515843993E+02 -0.10525883073E+02  0.28345765568E+01  0.23232066066E+02  0.51100000000E-03 0.  1.
        -11    1    3    3    0    0 -0.16633722331E+02 -0.93589905713E+01 -0.85546501174E+01  0.20915388162E+02  0.51100000000E-03 0. -1.
         12    1    3    3    0    0  0.94243499732E+01 -0.90234745857E+01  0.77086038903E+01  0.15154670566E+02  0.00000000000E+00 0. -1.
</event>
<event>
 7    1  0.4237994E-013  0.5930194E+02  0.7816164E-02  0.1266605E+00
        -11   -1    0    0    0    0  0.00000000000E+00  0.00000000000E+00  0.45593999997E+02  0.45594000000E+02  0.51100000000E-03 0. -1.
         11   -1    0    0    0    0 -0.00000000000E+00 -0.00000000000E+00 -0.45593999997E+02  0.45594000000E+02  0.51100000000E-03 0.  1.
    9900012    2    1    2    0    0 -0.21196805636E+02  0.11507229402E+02 -0.20856656227E+02  0.59301937109E+02  0.49999987383E+02 0.  0.
         12    1    1    2    0    0  0.21196805636E+02 -0.11507229402E+02  0.20856656227E+02  0.31886062891E+02  0.00000000000E+00 0. -1.
         11    1    3    3    0    0 -0.73168717879E+01 -0.13012514854E+02 -0.11321559560E+02  0.18736057929E+02  0.51100000000E-03 0. -1.
        -11    1    3    3    0    0  0.37509895540E+00  0.24402475308E+02 -0.21202447492E+01  0.24497284307E+02  0.51100000000E-03 0.  1.
         12    1    3    3    0    0 -0.14255032803E+02  0.11726894841E+00 -0.74148519180E+01  0.16068594873E+02  0.00000000000E+00 0. -1.
</event>
<event>
 7    1  0.4237994E-013  0.5930196E+02  0.7816164E-02  0.1266605E+00
        -11   -1    0    0    0    0  0.00000000000E+00  0.00000000000E+00  0.45593999997E+02  0.45594000000E+02  0.51100000000E-03 0. -1.
         11   -1    0    0    0    0 -0.00000000000E+00 -0.00000000000E+00 -0.45593999997E+02  0.45594000000E+02  0.51100000000E-03 0.  1.
    9900012    2    1    2    0    0 -0.26552276787E+02 -0.62889555472E+01 -0.16496829570E+02  0.59301956810E+02  0.50000023311E+02 0.  0.
         12    1    1    2    0    0  0.26552276787E+02  0.62889555472E+01  0.16496829570E+02  0.31886043190E+02  0.00000000000E+00 0. -1.
         11    1    3    3    0    0 -0.25141346783E+02  0.97087618585E+01  0.34069903733E+00  0.26952985939E+02  0.51100000000E-03 0. -1.
        -11    1    3    3    0    0 -0.70598129073E+01 -0.19322212870E+02 -0.15242390516E+02  0.25603111869E+02  0.51100000000E-03 0.  1.
         12    1    3    3    0    0  0.56488829035E+01  0.33244954640E+01 -0.15951380914E+01  0.67458590022E+01  0.00000000000E+00 0. -1.
</event>
<event>
 7    1  0.4237994E-013  0.5930212E+02  0.7816164E-02  0.1266604E+00
        -11   -1    0    0    0    0  0.00000000000E+00  0.00000000000E+00  0.45593999997E+02  0.45594000000E+02  0.51100000000E-03 0.  1.
         11   -1    0    0    0    0 -0.00000000000E+00 -0.00000000000E+00 -0.45593999997E+02  0.45594000000E+02  0.51100000000E-03 0. -1.
    9900012    2    1    2    0    0 -0.88694042083E+01  0.28958320297E+02  0.99729040469E+01  0.59302118162E+02  0.50000317578E+02 0.  0.
         12    1    1    2    0    0  0.88694042083E+01 -0.28958320297E+02 -0.99729040469E+01  0.31885881838E+02  0.00000000000E+00 0. -1.
         11    1    3    3    0    0  0.95117918846E+01  0.17814898145E+02 -0.10487123054E+01  0.20222378162E+02  0.51100000000E-03 0. -1.
        -11    1    3    3    0    0 -0.22989642824E+02  0.12591360389E+02 -0.88881502169E+00  0.26227009475E+02  0.51100000000E-03 0.  1.
         12    1    3    3    0    0  0.46084467308E+01 -0.14479382373E+01  0.11910431374E+02  0.12852730524E+02  0.00000000000E+00 0. -1.
</event>
<event>
 7    1  0.4237994E-013  0.5930191E+02  0.7816164E-02  0.1266605E+00
        -11   -1    0    0    0    0  0.00000000000E+00  0.00000000000E+00  0.45593999997E+02  0.45594000000E+02  0.51100000000E-03 0. -1.
         11   -1    0    0    0    0 -0.00000000000E+00 -0.00000000000E+00 -0.45593999997E+02  0.45594000000E+02  0.51100000000E-03 0.  1.
    9900012    2    1    2    0    0  0.25144866507E+02 -0.10916845895E+02 -0.16287438101E+02  0.59301914072E+02  0.49999945367E+02 0.  0.
         12    1    1    2    0    0 -0.25144866507E+02  0.10916845895E+02  0.16287438101E+02  0.31886085928E+02  0.00000000000E+00 0. -1.
         11    1    3    3    0    0 -0.82354529926E+00 -0.11855244380E+02  0.53409587328E+01  0.13028848246E+02  0.51100000000E-03 0. -1.
        -11    1    3    3    0    0  0.31474012640E+02 -0.58688820594E+01 -0.15393863414E+02  0.35525037359E+02  0.51100000000E-03 0.  1.
         12    1    3    3    0    0 -0.55056008342E+01  0.68072805445E+01 -0.62345334199E+01  0.10748028467E+02  0.00000000000E+00 0. -1.
</event>
<event>
 7    1  0.4237994E-013  0.5930195E+02  0.7816164E-02  0.1266605E+00
        -11   -1    0    0    0    0  0.00000000000E+00  0.00000000000E+00  0.45593999997E+02  0.45594000000E+02  0.51100000000E-03 0. -1.
         11   -1    0    0    0    0 -0.00000000000E+00 -0.00000000000E+00 -0.45593999997E+02  0.45594000000E+02  0.51100000000E-03 0.  1.
    9900012    2    1    2    0    0  0.21382268949E+01  0.17880890669E+02 -0.26313917030E+02  0.59301945136E+02  0.50000002020E+02 0.  0.
         12    1    1    2    0    0 -0.21382268949E+01 -0.17880890669E+02  0.26313917030E+02  0.31886054864E+02  0.00000000000E+00 0. -1.
         11    1    3    3    0    0  0.21323002322E+02  0.16540177128E+02 -0.61691367694E+01  0.27682235029E+02  0.51100000000E-03 0. -1.
        -11    1    3    3    0    0 -0.36405048260E+01  0.31523416113E+01 -0.14003431676E+02  0.14808329818E+02  0.51100000000E-03 0.  1.
         12    1    3    3    0    0 -0.15544270601E+02 -0.18116280702E+01 -0.61413485846E+01  0.16811380289E+02  0.00000000000E+00 0. -1.
</event>
<event>
 7    1  0.4237994E-013  0.5930196E+02  0.7816164E-02  0.1266605E+00
        -11   -1    0    0    0    0  0.00000000000E+00  0.00000000000E+00  0.45593999997E+02  0.45594000000E+02  0.51100000000E-03 0.  1.
         11   -1    0    0    0    0 -0.00000000000E+00 -0.00000000000E+00 -0.45593999997E+02  0.45594000000E+02  0.51100000000E-03 0. -1.
    9900012    2    1    2    0    0 -0.19269385955E+02  0.20955213997E+02  0.14362772438E+02  0.59301961349E+02  0.50000031590E+02 0.  0.
         12    1    1    2    0    0  0.19269385955E+02 -0.20955213997E+02 -0.14362772438E+02  0.31886038651E+02  0.00000000000E+00 0. -1.
         11    1    3    3    0    0 -0.17871403684E+01  0.55210641887E+01 -0.14420870264E+02  0.15544694269E+02  0.51100000000E-03 0. -1.
        -11    1    3    3    0    0 -0.17338112475E+02  0.21082995869E+02  0.23428766797E+02  0.35972350116E+02  0.51100000000E-03 0.  1.
        -12    1    3    3    0    0 -0.14413311138E+00 -0.56488460605E+01  0.53548759059E+01  0.77849169641E+01  0.00000000000E+00 0.  1.
</event>
<event>
 7    1  0.4237994E-013  0.5930195E+02  0.7816164E-02  0.1266605E+00
        -11   -1    0    0    0    0  0.00000000000E+00  0.00000000000E+00  0.45593999997E+02  0.45594000000E+02  0.51100000000E-03 0.  1.
         11   -1    0    0    0    0 -0.00000000000E+00 -0.00000000000E+00 -0.45593999997E+02  0.45594000000E+02  0.51100000000E-03 0. -1.
    9900012    2    1    2    0    0 -0.39754955672E+01 -0.23729186594E+02  0.20924661253E+02  0.59301948034E+02  0.50000007307E+02 0.  0.
         12    1    1    2    0    0  0.39754955672E+01  0.23729186594E+02 -0.20924661253E+02  0.31886051966E+02  0.00000000000E+00 0. -1.
         11    1    3    3    0    0 -0.23869944393E+01 -0.89588474679E+01 -0.11477582747E+02  0.14754443276E+02  0.51100000000E-03 0. -1.
        -11    1    3    3    0    0 -0.46128688628E+01 -0.20558458952E+02  0.31582607100E+02  0.37965640587E+02  0.51100000000E-03 0.  1.
        -12    1    3    3    0    0  0.30243677349E+01  0.57881198264E+01  0.81963690042E+00  0.65818641713E+01  0.00000000000E+00 0.  1.
</event>
<event>
 7    1  0.4237994E-013  0.5930199E+02  0.7816164E-02  0.1266605E+00
        -11   -1    0    0    0    0  0.00000000000E+00  0.00000000000E+00  0.45593999997E+02  0.45594000000E+02  0.51100000000E-03 0. -1.
         11   -1    0    0    0    0 -0.00000000000E+00 -0.00000000000E+00 -0.45593999997E+02  0.45594000000E+02  0.51100000000E-03 0.  1.
    9900012    2    1    2    0    0 -0.23300937088E+02 -0.55000473249E+01 -0.21060228100E+02  0.59301993706E+02  0.50000090601E+02 0.  0.
         12    1    1    2    0    0  0.23300937088E+02  0.55000473249E+01  0.21060228100E+02  0.31886006294E+02  0.00000000000E+00 0. -1.
         11    1    3    3    0    0  0.17138480745E+01 -0.11313056700E+02  0.12353830186E+02  0.16838635564E+02  0.51100000000E-03 0. -1.
        -11    1    3    3    0    0 -0.17331402081E+02  0.38459605699E+01 -0.18944668183E+02  0.25962845831E+02  0.51100000000E-03 0.  1.
         12    1    3    3    0    0 -0.76833830817E+01  0.19670488050E+01 -0.14469390103E+02  0.16500512312E+02  0.00000000000E+00 0. -1.
</event>
<event>
 7    1  0.4237994E-013  0.5930196E+02  0.7816164E-02  0.1266605E+00
        -11   -1    0    0    0    0  0.00000000000E+00  0.00000000000E+00  0.45593999997E+02  0.45594000000E+02  0.51100000000E-03 0.  1.
         11   -1    0    0    0    0 -0.00000000000E+00 -0.00000000000E+00 -0.45593999997E+02  0.45594000000E+02  0.51100000000E-03 0. -1.
    9900012    2    1    2    0    0  0.11873498668E+02  0.29258685934E+02 -0.44349958960E+01  0.59301955062E+02  0.50000020123E+02 0.  0.
         12    1    1    2    0    0 -0.11873498668E+02 -0.29258685934E+02  0.44349958960E+01  0.31886044938E+02  0.00000000000E+00 0. -1.
         11    1    3    3    0    0  0.21826251276E+02  0.12698834380E+01  0.78046156574E+01  0.23214432461E+02  0.51100000000E-03 0. -1.
        -11    1    3    3    0    0 -0.87286842952E+01  0.13395431009E+02  0.14329738988E+01  0.16052442677E+02  0.51100000000E-03 0.  1.
         12    1    3    3    0    0 -0.12240683122E+01  0.14593371487E+02 -0.13672585452E+02  0.20035079923E+02  0.00000000000E+00 0. -1.
</event>
<event>
 7    1  0.4237994E-013  0.5930195E+02  0.7816164E-02  0.1266605E+00
        -11   -1    0    0    0    0  0.00000000000E+00  0.00000000000E+00  0.45593999997E+02  0.45594000000E+02  0.51100000000E-03 0.  1.
         11   -1    0    0    0    0 -0.00000000000E+00 -0.00000000000E+00 -0.45593999997E+02  0.45594000000E+02  0.51100000000E-03 0. -1.
    9900012    2    1    2    0    0 -0.16243615473E+02  0.67357402557E+01  0.26598780763E+02  0.59301946959E+02  0.50000005346E+02 0.  0.
         12    1    1    2    0    0  0.16243615473E+02 -0.67357402557E+01 -0.26598780763E+02  0.31886053041E+02  0.00000000000E+00 0. -1.
         11    1    3    3    0    0 -0.16406712839E+02  0.14365225622E+02 -0.10728685577E+01  0.21833254008E+02  0.51100000000E-03 0. -1.
        -11    1    3    3    0    0 -0.47651077646E+01 -0.83742732357E+00  0.28617815586E+02  0.29023902317E+02  0.51100000000E-03 0.  1.
        -12    1    3    3    0    0  0.49282051312E+01 -0.67920580426E+01 -0.94616626451E+00  0.84447906350E+01  0.00000000000E+00 0.  1.
</event>
<event>
 7    1  0.4237994E-013  0.5930194E+02  0.7816164E-02  0.1266605E+00
        -11   -1    0    0    0    0  0.00000000000E+00  0.00000000000E+00  0.45593999997E+02  0.45594000000E+02  0.51100000000E-03 0. -1.
         11   -1    0    0    0    0 -0.00000000000E+00 -0.00000000000E+00 -0.45593999997E+02  0.45594000000E+02  0.51100000000E-03 0.  1.
    9900012    2    1    2    0    0 -0.31721969954E+02 -0.24724300087E+01  0.20795439909E+01  0.59301940490E+02  0.49999993547E+02 0.  0.
         12    1    1    2    0    0  0.31721969954E+02  0.24724300087E+01 -0.20795439909E+01  0.31886059510E+02  0.00000000000E+00 0. -1.
         11    1    3    3    0    0 -0.48489996884E+01 -0.10803400328E+02  0.15822718812E+02  0.19763215515E+02  0.51100000000E-03 0. -1.
        -11    1    3    3    0    0 -0.21103967010E+02 -0.45211914275E+01 -0.29324050666E+01  0.21781129338E+02  0.51100000000E-03 0.  1.
         12    1    3    3    0    0 -0.57690032551E+01  0.12852161747E+02 -0.10810769755E+02  0.17757595637E+02  0.00000000000E+00 0. -1.
</event>
<event>
 7    1  0.4237994E-013  0.5930197E+02  0.7816164E-02  0.1266605E+00
        -11   -1    0    0    0    0  0.00000000000E+00  0.00000000000E+00  0.45593999997E+02  0.45594000000E+02  0.51100000000E-03 0.  1.
         11   -1    0    0    0    0 -0.00000000000E+00 -0.00000000000E+00 -0.45593999997E+02  0.45594000000E+02  0.51100000000E-03 0. -1.
    9900012    2    1    2    0    0  0.24740326405E+02  0.11726365186E+02  0.16344038277E+02  0.59301968916E+02  0.50000045389E+02 0.  0.
         12    1    1    2    0    0 -0.24740326405E+02 -0.11726365186E+02 -0.16344038277E+02  0.31886031084E+02  0.00000000000E+00 0. -1.
         11    1    3    3    0    0  0.14200557637E+02 -0.15037841342E+02 -0.32036117489E+01  0.20929778735E+02  0.51100000000E-03 0. -1.
        -11    1    3    3    0    0  0.62337856396E-01  0.31545933620E+01  0.10562997190E+02  0.11024166870E+02  0.51100000000E-03 0.  1.
         12    1    3    3    0    0  0.10477430912E+02  0.23609613166E+02  0.89846528362E+01  0.27348023310E+02  0.00000000000E+00 0. -1.
</event>
<event>
 7    1  0.4237994E-013  0.5930194E+02  0.7816164E-02  0.1266605E+00
        -11   -1    0    0    0    0  0.00000000000E+00  0.00000000000E+00  0.45593999997E+02  0.45594000000E+02  0.51100000000E-03 0.  1.
         11   -1    0    0    0    0 -0.00000000000E+00 -0.00000000000E+00 -0.45593999997E+02  0.45594000000E+02  0.51100000000E-03 0. -1.
    9900012    2    1    2    0    0  0.21394190778E+01  0.15408824330E+02  0.27833644133E+02  0.59301941496E+02  0.49999995382E+02 0.  0.
         12    1    1    2    0    0 -0.21394190778E+01 -0.15408824330E+02 -0.27833644133E+02  0.31886058504E+02  0.00000000000E+00 0. -1.
         11    1    3    3    0    0  0.13329998827E+02  0.59111681668E+01  0.36508454213E+01  0.15031947657E+02  0.51100000000E-03 0. -1.
        -11    1    3    3    0    0 -0.17790599681E+02 -0.56637769605E+01  0.19690713868E+02  0.27134996211E+02  0.51100000000E-03 0.  1.
        -12    1    3    3    0    0  0.66000199323E+01  0.15161433123E+02  0.44920848435E+01  0.17134997628E+02  0.00000000000E+00 0.  1.
</event>
<event>
 7    1  0.4237994E-013  0.5930195E+02  0.7816164E-02  0.1266605E+00
        -11   -1    0    0    0    0  0.00000000000E+00  0.00000000000E+00  0.45593999997E+02  0.45594000000E+02  0.51100000000E-03 0.  1.
         11   -1    0    0    0    0 -0.00000000000E+00 -0.00000000000E+00 -0.45593999997E+02  0.45594000000E+02  0.51100000000E-03 0. -1.
    9900012    2    1    2    0    0 -0.20890774634E+02 -0.21288142270E+02 -0.11274345117E+02  0.59301947815E+02  0.50000006907E+02 0.  0.
         12    1    1    2    0    0  0.20890774634E+02  0.21288142270E+02  0.11274345117E+02  0.31886052185E+02  0.00000000000E+00 0. -1.
         11    1    3    3    0    0 -0.26301735435E+00 -0.18565772864E+01 -0.24272945572E+01  0.30672164054E+01  0.51100000000E-03 0. -1.
        -11    1    3    3    0    0 -0.11837034116E+02 -0.10048753283E+02  0.19607028057E+02  0.25010565142E+02  0.51100000000E-03 0.  1.
        -12    1    3    3    0    0 -0.87907231632E+01 -0.93828117010E+01 -0.28454078617E+02  0.31224166268E+02  0.00000000000E+00 0.  1.
</event>
<event>
 7    1  0.4237994E-013  0.5930200E+02  0.7816164E-02  0.1266605E+00
        -11   -1    0    0    0    0  0.00000000000E+00  0.00000000000E+00  0.45593999997E+02  0.45594000000E+02  0.51100000000E-03 0.  1.
         11   -1    0    0    0    0 -0.00000000000E+00 -0.00000000000E+00 -0.45593999997E+02  0.45594000000E+02  0.51100000000E-03 0. -1.
    9900012    2    1    2    0    0 -0.30273188797E+02 -0.66133940906E+01  0.75176019581E+01  0.59301995539E+02  0.50000093943E+02 0.  0.
         12    1    1    2    0    0  0.30273188797E+02  0.66133940906E+01 -0.75176019581E+01  0.31886004461E+02  0.00000000000E+00 0. -1.
         11    1    3    3    0    0 -0.11919182716E+01 -0.58383607808E+01 -0.16170709997E+02  0.17233658574E+02  0.51100000000E-03 0. -1.
        -11    1    3    3    0    0 -0.31039551606E+02 -0.28218271197E+01  0.18742958959E+02  0.36369148780E+02  0.51100000000E-03 0.  1.
         12    1    3    3    0    0  0.19582810813E+01  0.20467938099E+01  0.49453529970E+01  0.56991881841E+01  0.00000000000E+00 0. -1.
</event>
<event>
 7    1  0.4237994E-013  0.5930196E+02  0.7816164E-02  0.1266605E+00
        -11   -1    0    0    0    0  0.00000000000E+00  0.00000000000E+00  0.45593999997E+02  0.45594000000E+02  0.51100000000E-03 0.  1.
         11   -1    0    0    0    0 -0.00000000000E+00 -0.00000000000E+00 -0.45593999997E+02  0.45594000000E+02  0.51100000000E-03 0. -1.
    9900012    2    1    2    0    0 -0.13445388719E+01 -0.22625991227E+02  0.22427132995E+02  0.59301959823E+02  0.50000028808E+02 0.  0.
         12    1    1    2    0    0  0.13445388719E+01  0.22625991227E+02 -0.22427132995E+02  0.31886040177E+02  0.00000000000E+00 0. -1.
         11    1    3    3    0    0 -0.44468487317E+01  0.69326886699E+01 -0.70818039730E+01  0.10862254997E+02  0.51100000000E-03 0. -1.
        -11    1    3    3    0    0 -0.95647368485E+01 -0.13339698900E+02  0.19700139789E+02  0.25642294470E+02  0.51100000000E-03 0.  1.
        -12    1    3    3    0    0  0.12667046708E+02 -0.16218980997E+02  0.98087971792E+01  0.22797410357E+02  0.00000000000E+00 0.  1.
</event>
<event>
 7    1  0.4237994E-013  0.5930193E+02  0.7816164E-02  0.1266605E+00
        -11   -1    0    0    0    0  0.00000000000E+00  0.00000000000E+00  0.45593999997E+02  0.45594000000E+02  0.51100000000E-03 0.  1.
         11   -1    0    0    0    0 -0.00000000000E+00 -0.00000000000E+00 -0.45593999997E+02  0.45594000000E+02  0.51100000000E-03 0. -1.
    9900012    2    1    2    0    0 -0.76384588234E+01  0.30945733936E+02  0.85839197489E+00  0.59301931901E+02  0.49999977884E+02 0.  0.
         12    1    1    2    0    0  0.76384588234E+01 -0.30945733936E+02 -0.85839197489E+00  0.31886068099E+02  0.00000000000E+00 0. -1.
         11    1    3    3    0    0  0.53284929365E+01 -0.21488135829E+01 -0.19839393338E+01  0.60783428934E+01  0.51100000000E-03 0. -1.
        -11    1    3    3    0    0 -0.39139440412E+01  0.27097232754E+02 -0.15828299699E+02  0.31624579879E+02  0.51100000000E-03 0.  1.
        -12    1    3    3    0    0 -0.90530077187E+01  0.59973147645E+01  0.18670631008E+02  0.21599009129E+02  0.00000000000E+00 0.  1.
</event>
<event>
 7    1  0.4237994E-013  0.5930194E+02  0.7816164E-02  0.1266605E+00
        -11   -1    0    0    0    0  0.00000000000E+00  0.00000000000E+00  0.45593999997E+02  0.45594000000E+02  0.51100000000E-03 0. -1.
         11   -1    0    0    0    0 -0.00000000000E+00 -0.00000000000E+00 -0.45593999997E+02  0.45594000000E+02  0.51100000000E-03 0.  1.
    9900012    2    1    2    0    0  0.96641493175E+01 -0.32749423912E+01 -0.30209270764E+02  0.59301936120E+02  0.49999985577E+02 0.  0.
         12    1    1    2    0    0 -0.96641493175E+01  0.32749423912E+01  0.30209270764E+02  0.31886063880E+02  0.00000000000E+00 0. -1.
         11    1    3    3    0    0  0.15271066048E+02  0.12260272366E+02 -0.16070876956E+02  0.25333630279E+02  0.51100000000E-03 0. -1.
        -11    1    3    3    0    0 -0.15549863643E+02 -0.56828625604E+01 -0.10126450039E+02  0.19407168182E+02  0.51100000000E-03 0.  1.
         12    1    3    3    0    0  0.99429469124E+01 -0.98523521965E+01 -0.40119437694E+01  0.14561137659E+02  0.00000000000E+00 0. -1.
</event>
<event>
 7    1  0.4237994E-013  0.5930194E+02  0.7816164E-02  0.1266605E+00
        -11   -1    0    0    0    0  0.00000000000E+00  0.00000000000E+00  0.45593999997E+02  0.45594000000E+02  0.51100000000E-03 0. -1.
         11   -1    0    0    0    0 -0.00000000000E+00 -0.00000000000E+00 -0.45593999997E+02  0.45594000000E+02  0.51100000000E-03 0.  1.
    9900012    2    1    2    0    0  0.89547474547E+01  0.29854032401E+02 -0.67283198330E+01  0.59301936581E+02  0.49999986419E+02 0.  0.
         12    1    1    2    0    0 -0.89547474547E+01 -0.29854032401E+02  0.67283198330E+01  0.31886063419E+02  0.00000000000E+00 0. -1.
         11    1    3    3    0    0 -0.10846926200E+02  0.28466756460E+02 -0.51801285337E+01  0.30900578688E+02  0.51100000000E-03 0. -1.
        -11    1    3    3    0    0 -0.29665589731E+01 -0.23250359223E+01  0.30863518653E+01  0.48715328468E+01  0.51100000000E-03 0.  1.
         12    1    3    3    0    0  0.22768232628E+02  0.37123118637E+01 -0.46345431646E+01  0.23529825046E+02  0.00000000000E+00 0. -1.
</event>
<event>
 7    1  0.4237994E-013  0.5930193E+02  0.7816164E-02  0.1266605E+00
        -11   -1    0    0    0    0  0.00000000000E+00  0.00000000000E+00  0.45593999997E+02  0.45594000000E+02  0.51100000000E-03 0.  1.
         11   -1    0    0    0    0 -0.00000000000E+00 -0.00000000000E+00 -0.45593999997E+02  0.45594000000E+02  0.51100000000E-03 0. -1.
    9900012    2    1    2    0    0  0.33741902081E+01  0.29793080755E+02 -0.10849363999E+02  0.59301929066E+02  0.49999972713E+02 0.  0.
         12    1    1    2    0    0 -0.33741902081E+01 -0.29793080755E+02  0.10849363999E+02  0.31886070934E+02  0.00000000000E+00 0. -1.
         11    1    3    3    0    0  0.59367868486E+01 -0.11387839983E+02  0.46452656768E+01  0.13656750383E+02  0.51100000000E-03 0. -1.
        -11    1    3    3    0    0 -0.28931797695E+01  0.21921233169E+02 -0.14327244059E+02  0.26347312489E+02  0.51100000000E-03 0.  1.
        -12    1    3    3    0    0  0.33058312897E+00  0.19259687569E+02 -0.11673856175E+01  0.19297866194E+02  0.00000000000E+00 0.  1.
</event>
<event>
 7    1  0.4237994E-013  0.5930196E+02  0.7816164E-02  0.1266605E+00
        -11   -1    0    0    0    0  0.00000000000E+00  0.00000000000E+00  0.45593999997E+02  0.45594000000E+02  0.51100000000E-03 0. -1.
         11   -1    0    0    0    0 -0.00000000000E+00 -0.00000000000E+00 -0.45593999997E+02  0.45594000000E+02  0.51100000000E-03 0.  1.
    9900012    2    1    2    0    0 -0.56807100693E+01  0.24921975243E+02 -0.19061590968E+02  0.59301959683E+02  0.50000028551E+02 0.  0.
         12    1    1    2    0    0  0.56807100693E+01 -0.24921975243E+02  0.19061590968E+02  0.31886040317E+02  0.00000000000E+00 0. -1.
         11    1    3    3    0    0 -0.49587910017E+01  0.11818613819E+02  0.14382201796E+02  0.19264396424E+02  0.51100000000E-03 0. -1.
        -11    1    3    3    0    0  0.39964225903E+00  0.17393942386E+02 -0.28546634041E+02  0.33430813047E+02  0.51100000000E-03 0.  1.
         12    1    3    3    0    0 -0.11215613266E+01 -0.42905809620E+01 -0.48971587230E+01  0.66067502116E+01  0.00000000000E+00 0. -1.
</event>
<event>
 7    1  0.4237994E-013  0.5930198E+02  0.7816164E-02  0.1266605E+00
        -11   -1    0    0    0    0  0.00000000000E+00  0.00000000000E+00  0.45593999997E+02  0.45594000000E+02  0.51100000000E-03 0.  1.
         11   -1    0    0    0    0 -0.00000000000E+00 -0.00000000000E+00 -0.45593999997E+02  0.45594000000E+02  0.51100000000E-03 0. -1.
    9900012    2    1    2    0    0  0.18041509372E+02  0.21250678477E+01  0.26205086047E+02  0.59301976282E+02  0.50000058825E+02 0.  0.
         12    1    1    2    0    0 -0.18041509372E+02 -0.21250678477E+01 -0.26205086047E+02  0.31886023718E+02  0.00000000000E+00 0. -1.
         11    1    3    3    0    0  0.19544914210E+02 -0.63715442157E+01  0.10489330944E+02  0.23078698210E+02  0.51100000000E-03 0. -1.
        -11    1    3    3    0    0 -0.87612247151E+01 -0.54851039984E+01  0.17545704885E+02  0.20364115118E+02  0.51100000000E-03 0.  1.
         12    1    3    3    0    0  0.72578198770E+01  0.13981716062E+02 -0.18299497812E+01  0.15859162954E+02  0.00000000000E+00 0. -1.
</event>
<event>
 7    1  0.4237994E-013  0.5930192E+02  0.7816164E-02  0.1266605E+00
        -11   -1    0    0    0    0  0.00000000000E+00  0.00000000000E+00  0.45593999997E+02  0.45594000000E+02  0.51100000000E-03 0.  1.
         11   -1    0    0    0    0 -0.00000000000E+00 -0.00000000000E+00 -0.45593999997E+02  0.45594000000E+02  0.51100000000E-03 0. -1.
    9900012    2    1    2    0    0 -0.24223599056E+02 -0.51373563087E+00  0.20728614507E+02  0.59301919418E+02  0.49999955118E+02 0.  0.
         12    1    1    2    0    0  0.24223599056E+02  0.51373563087E+00 -0.20728614507E+02  0.31886080582E+02  0.00000000000E+00 0. -1.
         11    1    3    3    0    0 -0.23523957791E+02 -0.62500545719E+01  0.23262331455E+02  0.33668617989E+02  0.51100000000E-03 0.  1.
        -11    1    3    3    0    0 -0.64584265553E+01  0.77704121045E+01 -0.11166022679E+02  0.15058905690E+02  0.51100000000E-03 0. -1.
         12    1    3    3    0    0  0.57587852904E+01 -0.20340931635E+01  0.86323057309E+01  0.10574395739E+02  0.00000000000E+00 0. -1.
</event>
<event>
 7    1  0.4237994E-013  0.5930195E+02  0.7816164E-02  0.1266605E+00
        -11   -1    0    0    0    0  0.00000000000E+00  0.00000000000E+00  0.45593999997E+02  0.45594000000E+02  0.51100000000E-03 0. -1.
         11   -1    0    0    0    0 -0.00000000000E+00 -0.00000000000E+00 -0.45593999997E+02  0.45594000000E+02  0.51100000000E-03 0.  1.
    9900012    2    1    2    0    0 -0.21678383461E+02 -0.59277225804E+01  0.22619237712E+02  0.59301951027E+02  0.50000012765E+02 0.  0.
         12    1    1    2    0    0  0.21678383461E+02  0.59277225804E+01 -0.22619237712E+02  0.31886048973E+02  0.00000000000E+00 0. -1.
         11    1    3    3    0    0 -0.65548224436E+01 -0.24429205512E+01  0.17096608323E+02  0.18472346210E+02  0.51100000000E-03 0. -1.
        -11    1    3    3    0    0  0.66442711834E+01 -0.14100692676E+02 -0.13744327145E+01  0.15648160884E+02  0.51100000000E-03 0.  1.
        -12    1    3    3    0    0 -0.21767832200E+02  0.10615890647E+02  0.68970621034E+01  0.25181443934E+02  0.00000000000E+00 0.  1.
</event>
<event>
 7    1  0.4237994E-013  0.5930197E+02  0.7816164E-02  0.1266605E+00
        -11   -1    0    0    0    0  0.00000000000E+00  0.00000000000E+00  0.45593999997E+02  0.45594000000E+02  0.51100000000E-03 0. -1.
         11   -1    0    0    0    0 -0.00000000000E+00 -0.00000000000E+00 -0.45593999997E+02  0.45594000000E+02  0.51100000000E-03 0.  1.
    9900012    2    1    2    0    0 -0.25471355924E+02  0.46705646287E+01 -0.18604155230E+02  0.59301972678E+02  0.50000052251E+02 0.  0.
         12    1    1    2    0    0  0.25471355924E+02 -0.46705646287E+01  0.18604155230E+02  0.31886027322E+02  0.00000000000E+00 0. -1.
         11    1    3    3    0    0 -0.66130156367E-01  0.22829824186E+01 -0.25030951409E+01  0.33884904406E+01  0.51100000000E-03 0. -1.
        -11    1    3    3    0    0 -0.38235033280E+02 -0.34995694814E+01 -0.16503971560E+02  0.41791695754E+02  0.51100000000E-03 0.  1.
        -12    1    3    3    0    0  0.12829807512E+02  0.58871516916E+01  0.40291147032E+00  0.14121786484E+02  0.00000000000E+00 0.  1.
</event>
<event>
 7    1  0.4237994E-013  0.5930198E+02  0.7816164E-02  0.1266605E+00
        -11   -1    0    0    0    0  0.00000000000E+00  0.00000000000E+00  0.45593999997E+02  0.45594000000E+02  0.51100000000E-03 0. -1.
         11   -1    0    0    0    0 -0.00000000000E+00 -0.00000000000E+00 -0.45593999997E+02  0.45594000000E+02  0.51100000000E-03 0.  1.
    9900012    2    1    2    0    0 -0.14245141503E+02 -0.28375373073E+02 -0.29380780744E+01  0.59301981806E+02  0.50000068898E+02 0.  0.
         12    1    1    2    0    0  0.14245141503E+02  0.28375373073E+02  0.29380780744E+01  0.31886018194E+02  0.00000000000E+00 0. -1.
         11    1    3    3    0    0 -0.20065729178E+02 -0.57906359504E+01  0.54385751617E+01  0.21581080886E+02  0.51100000000E-03 0. -1.
        -11    1    3    3    0    0  0.30037560739E+01 -0.13101355833E+01 -0.14927566870E+02  0.15283038268E+02  0.51100000000E-03 0.  1.
        -12    1    3    3    0    0  0.28168316009E+01 -0.21274601540E+02  0.65509136338E+01  0.22437862652E+02  0.00000000000E+00 0.  1.
</event>
<event>
 7    1  0.4237994E-013  0.5930186E+02  0.7816164E-02  0.1266605E+00
        -11   -1    0    0    0    0  0.00000000000E+00  0.00000000000E+00  0.45593999997E+02  0.45594000000E+02  0.51100000000E-03 0.  1.
         11   -1    0    0    0    0 -0.00000000000E+00 -0.00000000000E+00 -0.45593999997E+02  0.45594000000E+02  0.51100000000E-03 0. -1.
    9900012    2    1    2    0    0 -0.16168810755E+02  0.12046929313E+02  0.24701564082E+02  0.59301855435E+02  0.49999838429E+02 0.  0.
         12    1    1    2    0    0  0.16168810755E+02 -0.12046929313E+02 -0.24701564082E+02  0.31886144565E+02  0.00000000000E+00 0. -1.
         11    1    3    3    0    0  0.54665916795E+01 -0.84082863414E+01  0.21287899451E+02  0.23532054035E+02  0.51100000000E-03 0. -1.
        -11    1    3    3    0    0 -0.13353380998E+02  0.98638061638E+01 -0.77244394063E+01  0.18310500280E+02  0.51100000000E-03 0.  1.
         12    1    3    3    0    0 -0.82820214370E+01  0.10591409490E+02  0.11138104037E+02  0.17459301120E+02  0.00000000000E+00 0. -1.
</event>
<event>
 7    1  0.4237994E-013  0.5930196E+02  0.7816164E-02  0.1266605E+00
        -11   -1    0    0    0    0  0.00000000000E+00  0.00000000000E+00  0.45593999997E+02  0.45594000000E+02  0.51100000000E-03 0.  1.
         11   -1    0    0    0    0 -0.00000000000E+00 -0.00000000000E+00 -0.45593999997E+02  0.45594000000E+02  0.51100000000E-03 0. -1.
    9900012    2    1    2    0    0  0.23378792896E+02 -0.40193216300E+01  0.21307193839E+02  0.59301962101E+02  0.50000032961E+02 0.  0.
         12    1    1    2    0    0 -0.23378792896E+02  0.40193216300E+01 -0.21307193839E+02  0.31886037899E+02  0.00000000000E+00 0. -1.
         11    1    3    3    0    0  0.17292212316E+02 -0.63195589226E+01 -0.10175398675E+02  0.21035592937E+02  0.51100000000E-03 0. -1.
        -11    1    3    3    0    0  0.68768540011E+01  0.10798471113E+02  0.22418241159E+02  0.25816189421E+02  0.51100000000E-03 0.  1.
         12    1    3    3    0    0 -0.79027342143E+00 -0.84982338201E+01  0.90643513547E+01  0.12450179743E+02  0.00000000000E+00 0. -1.
</event>
<event>
 7    1  0.4237994E-013  0.5930206E+02  0.7816164E-02  0.1266604E+00
        -11   -1    0    0    0    0  0.00000000000E+00  0.00000000000E+00  0.45593999997E+02  0.45594000000E+02  0.51100000000E-03 0. -1.
         11   -1    0    0    0    0 -0.00000000000E+00 -0.00000000000E+00 -0.45593999997E+02  0.45594000000E+02  0.51100000000E-03 0.  1.
    9900012    2    1    2    0    0 -0.18665322846E+02 -0.24337503541E+01 -0.25737055883E+02  0.59302055396E+02  0.50000203109E+02 0.  0.
         12    1    1    2    0    0  0.18665322846E+02  0.24337503541E+01  0.25737055883E+02  0.31885944604E+02  0.00000000000E+00 0. -1.
         11    1    3    3    0    0 -0.18503974296E+02  0.67937061215E+01 -0.28993430981E+01  0.19923797285E+02  0.51100000000E-03 0. -1.
        -11    1    3    3    0    0  0.24772492908E+00 -0.14962835330E+02 -0.27937168415E+02  0.31692793946E+02  0.51100000000E-03 0.  1.
        -12    1    3    3    0    0 -0.40907347965E+00  0.57353788544E+01  0.50994556301E+01  0.76854641654E+01  0.00000000000E+00 0.  1.
</event>
<event>
 7    1  0.4237994E-013  0.5930195E+02  0.7816164E-02  0.1266605E+00
        -11   -1    0    0    0    0  0.00000000000E+00  0.00000000000E+00  0.45593999997E+02  0.45594000000E+02  0.51100000000E-03 0. -1.
         11   -1    0    0    0    0 -0.00000000000E+00 -0.00000000000E+00 -0.45593999997E+02  0.45594000000E+02  0.51100000000E-03 0.  1.
    9900012    2    1    2    0    0 -0.10658589168E+02 -0.28640756230E+02 -0.91006278057E+01  0.59301954981E+02  0.50000019976E+02 0.  0.
         12    1    1    2    0    0  0.10658589168E+02  0.28640756230E+02  0.91006278057E+01  0.31886045019E+02  0.00000000000E+00 0. -1.
         11    1    3    3    0    0  0.50871425200E+01  0.29218181222E+01 -0.14707544697E+02  0.15834390151E+02  0.51100000000E-03 0.  1.
        -11    1    3    3    0    0  0.30185877886E+00 -0.26166624720E+02  0.30628269922E+01  0.26346997503E+02  0.51100000000E-03 0. -1.
         12    1    3    3    0    0 -0.16047590467E+02 -0.53959496325E+01  0.25440898994E+01  0.17120567328E+02  0.00000000000E+00 0. -1.
</event>
<event>
 7    1  0.4237994E-013  0.5930195E+02  0.7816164E-02  0.1266605E+00
        -11   -1    0    0    0    0  0.00000000000E+00  0.00000000000E+00  0.45593999997E+02  0.45594000000E+02  0.51100000000E-03 0. -1.
         11   -1    0    0    0    0 -0.00000000000E+00 -0.00000000000E+00 -0.45593999997E+02  0.45594000000E+02  0.51100000000E-03 0.  1.
    9900012    2    1    2    0    0 -0.26455443583E+02  0.10118387863E+02 -0.14644041700E+02  0.59301949359E+02  0.50000009723E+02 0.  0.
         12    1    1    2    0    0  0.26455443583E+02 -0.10118387863E+02  0.14644041700E+02  0.31886050641E+02  0.00000000000E+00 0. -1.
         11    1    3    3    0    0 -0.29816840464E+02  0.86572670040E+01  0.76272272178E+01  0.31971344084E+02  0.51100000000E-03 0. -1.
        -11    1    3    3    0    0  0.29369716444E+00  0.79075196975E+01 -0.15907398732E+02  0.17766835972E+02  0.51100000000E-03 0.  1.
        -12    1    3    3    0    0  0.30676997165E+01 -0.64463988382E+01 -0.63638701860E+01  0.95637693027E+01  0.00000000000E+00 0.  1.
</event>
<event>
 7    1  0.4237994E-013  0.5930189E+02  0.7816164E-02  0.1266605E+00
        -11   -1    0    0    0    0  0.00000000000E+00  0.00000000000E+00  0.45593999997E+02  0.45594000000E+02  0.51100000000E-03 0.  1.
         11   -1    0    0    0    0 -0.00000000000E+00 -0.00000000000E+00 -0.45593999997E+02  0.45594000000E+02  0.51100000000E-03 0. -1.
    9900012    2    1    2    0    0 -0.11706146556E+02 -0.29140637880E+02  0.55238679215E+01  0.59301893934E+02  0.49999908640E+02 0.  0.
         12    1    1    2    0    0  0.11706146556E+02  0.29140637880E+02 -0.55238679215E+01  0.31886106066E+02  0.00000000000E+00 0. -1.
         11    1    3    3    0    0 -0.12187254572E+02  0.17090152473E+01 -0.13465877566E+02  0.18242252218E+02  0.51100000000E-03 0. -1.
        -11    1    3    3    0    0  0.18217030952E+01  0.22262317779E+01  0.34461847744E+01  0.44889753682E+01  0.51100000000E-03 0.  1.
         12    1    3    3    0    0 -0.13405950796E+01 -0.33075884905E+02  0.15543560713E+02  0.36570666347E+02  0.00000000000E+00 0. -1.
</event>
<event>
 7    1  0.4237994E-013  0.5930195E+02  0.7816164E-02  0.1266605E+00
        -11   -1    0    0    0    0  0.00000000000E+00  0.00000000000E+00  0.45593999997E+02  0.45594000000E+02  0.51100000000E-03 0.  1.
         11   -1    0    0    0    0 -0.00000000000E+00 -0.00000000000E+00 -0.45593999997E+02  0.45594000000E+02  0.51100000000E-03 0. -1.
    9900012    2    1    2    0    0 -0.11927710665E+02 -0.29343811445E+02  0.36592939774E+01  0.59301953142E+02  0.50000016622E+02 0.  0.
         12    1    1    2    0    0  0.11927710665E+02  0.29343811445E+02 -0.36592939774E+01  0.31886046858E+02  0.00000000000E+00 0. -1.
         11    1    3    3    0    0  0.77433954596E+01  0.79613055558E+01  0.94941583516E+01  0.14611009632E+02  0.51100000000E-03 0. -1.
        -11    1    3    3    0    0 -0.82898232115E+01 -0.17901655069E+02  0.40176375656E+01  0.20132854615E+02  0.51100000000E-03 0.  1.
         12    1    3    3    0    0 -0.11381282913E+02 -0.19403461932E+02 -0.98525019398E+01  0.24558088895E+02  0.00000000000E+00 0. -1.
</event>
<event>
 7    1  0.4237994E-013  0.5930198E+02  0.7816164E-02  0.1266605E+00
        -11   -1    0    0    0    0  0.00000000000E+00  0.00000000000E+00  0.45593999997E+02  0.45594000000E+02  0.51100000000E-03 0. -1.
         11   -1    0    0    0    0 -0.00000000000E+00 -0.00000000000E+00 -0.45593999997E+02  0.45594000000E+02  0.51100000000E-03 0.  1.
    9900012    2    1    2    0    0  0.20191971851E+02 -0.15523134623E+01 -0.24629110172E+02  0.59301976852E+02  0.50000059864E+02 0.  0.
         12    1    1    2    0    0 -0.20191971851E+02  0.15523134623E+01  0.24629110172E+02  0.31886023148E+02  0.00000000000E+00 0. -1.
         11    1    3    3    0    0 -0.30894283782E+01  0.16209077727E+02 -0.23649415720E+02  0.28837018442E+02  0.51100000000E-03 0. -1.
        -11    1    3    3    0    0  0.17439942593E+02 -0.94067055484E+01 -0.30899168950E+01  0.20054557926E+02  0.51100000000E-03 0.  1.
         12    1    3    3    0    0  0.58414576365E+01 -0.83546856410E+01  0.21102224434E+01  0.10410400484E+02  0.00000000000E+00 0. -1.
</event>
<event>
 7    1  0.4237994E-013  0.5930195E+02  0.7816164E-02  0.1266605E+00
        -11   -1    0    0    0    0  0.00000000000E+00  0.00000000000E+00  0.45593999997E+02  0.45594000000E+02  0.51100000000E-03 0.  1.
         11   -1    0    0    0    0 -0.00000000000E+00 -0.00000000000E+00 -0.45593999997E+02  0.45594000000E+02  0.51100000000E-03 0. -1.
    9900012    2    1    2    0    0  0.24309297070E+02  0.46628438703E+01  0.20100656546E+02  0.59301946143E+02  0.50000003857E+02 0.  0.
         12    1    1    2    0    0 -0.24309297070E+02 -0.46628438703E+01 -0.20100656546E+02  0.31886053857E+02  0.00000000000E+00 0. -1.
         11    1    3    3    0    0  0.20472670991E+01  0.19612105741E+02  0.86933893772E+01  0.21549965506E+02  0.51100000000E-03 0. -1.
        -11    1    3    3    0    0  0.21293061966E+02 -0.75792069677E+01 -0.17190181574E+01  0.22667022077E+02  0.51100000000E-03 0.  1.
         12    1    3    3    0    0  0.96896800449E+00 -0.73700549034E+01  0.13126285326E+02  0.15084958559E+02  0.00000000000E+00 0. -1.
</event>
<event>
 7    1  0.4237994E-013  0.5930188E+02  0.7816164E-02  0.1266605E+00
        -11   -1    0    0    0    0  0.00000000000E+00  0.00000000000E+00  0.45593999997E+02  0.45594000000E+02  0.51100000000E-03 0.  1.
         11   -1    0    0    0    0 -0.00000000000E+00 -0.00000000000E+00 -0.45593999997E+02  0.45594000000E+02  0.51100000000E-03 0. -1.
    9900012    2    1    2    0    0 -0.18842130014E+01 -0.17762345299E+02  0.26413509307E+02  0.59301880088E+02  0.49999883389E+02 0.  0.
         12    1    1    2    0    0  0.18842130014E+01  0.17762345299E+02 -0.26413509307E+02  0.31886119912E+02  0.00000000000E+00 0. -1.
         11    1    3    3    0    0  0.18863720396E+01  0.96101456342E+01  0.18267817606E+02  0.20727432522E+02  0.51100000000E-03 0. -1.
        -11    1    3    3    0    0  0.92430275522E+01 -0.21482403006E+02  0.58451465270E+01  0.24105869315E+02  0.51100000000E-03 0.  1.
         12    1    3    3    0    0 -0.13013612593E+02 -0.58900879272E+01  0.23005451733E+01  0.14468578251E+02  0.00000000000E+00 0. -1.
</event>
<event>
 7    1  0.4237994E-013  0.5930194E+02  0.7816164E-02  0.1266605E+00
        -11   -1    0    0    0    0  0.00000000000E+00  0.00000000000E+00  0.45593999997E+02  0.45594000000E+02  0.51100000000E-03 0. -1.
         11   -1    0    0    0    0 -0.00000000000E+00 -0.00000000000E+00 -0.45593999997E+02  0.45594000000E+02  0.51100000000E-03 0.  1.
    9900012    2    1    2    0    0 -0.23134490666E+02 -0.21934678697E+02  0.62111520903E+00  0.59301943925E+02  0.49999999813E+02 0.  0.
         12    1    1    2    0    0  0.23134490666E+02  0.21934678697E+02 -0.62111520903E+00  0.31886056075E+02  0.00000000000E+00 0. -1.
         11    1    3    3    0    0  0.48313918203E+01 -0.17458807773E+02  0.12988497262E+02  0.22290208100E+02  0.51100000000E-03 0. -1.
        -11    1    3    3    0    0 -0.29230799474E+02  0.76955637442E+00 -0.87740031026E+01  0.30528920479E+02  0.51100000000E-03 0.  1.
        -12    1    3    3    0    0  0.12649169883E+01 -0.52454272981E+01 -0.35933789504E+01  0.64828153458E+01  0.00000000000E+00 0.  1.
</event>
<event>
 7    1  0.4237994E-013  0.5930195E+02  0.7816164E-02  0.1266605E+00
        -11   -1    0    0    0    0  0.00000000000E+00  0.00000000000E+00  0.45593999997E+02  0.45594000000E+02  0.51100000000E-03 0. -1.
         11   -1    0    0    0    0 -0.00000000000E+00 -0.00000000000E+00 -0.45593999997E+02  0.45594000000E+02  0.51100000000E-03 0.  1.
    9900012    2    1    2    0    0 -0.18293194764E+02 -0.22804471764E+02  0.12729306080E+02  0.59301950693E+02  0.50000012156E+02 0.  0.
         12    1    1    2    0    0  0.18293194764E+02  0.22804471764E+02 -0.12729306080E+02  0.31886049307E+02  0.00000000000E+00 0. -1.
         11    1    3    3    0    0 -0.20031314370E+02 -0.43524152008E+01 -0.37114637387E+01  0.20831995507E+02  0.51100000000E-03 0. -1.
        -11    1    3    3    0    0 -0.33438864369E+01 -0.21003441220E+02  0.21942122786E+02  0.30557861054E+02  0.51100000000E-03 0.  1.
        -12    1    3    3    0    0  0.50820060429E+01  0.25513846566E+01 -0.55013529673E+01  0.79120941322E+01  0.00000000000E+00 0.  1.
</event>
<event>
 7    1  0.4237994E-013  0.5930211E+02  0.7816164E-02  0.1266604E+00
        -11   -1    0    0    0    0  0.00000000000E+00  0.00000000000E+00  0.45593999997E+02  0.45594000000E+02  0.51100000000E-03 0. -1.
         11   -1    0    0    0    0 -0.00000000000E+00 -0.00000000000E+00 -0.45593999997E+02  0.45594000000E+02  0.51100000000E-03 0.  1.
    9900012    2    1    2    0    0  0.31464859547E+02 -0.43806658300E+01 -0.27354311473E+01  0.59302106520E+02  0.50000296346E+02 0.  0.
         12    1    1    2    0    0 -0.31464859547E+02  0.43806658300E+01  0.27354311473E+01  0.31885893480E+02  0.00000000000E+00 0. -1.
         11    1    3    3    0    0  0.13365438514E+02 -0.20058457159E+02  0.95652861169E+01  0.25932052541E+02  0.51100000000E-03 0. -1.
        -11    1    3    3    0    0  0.44973915596E+00  0.10697636270E+02  0.94378803556E+00  0.10748600988E+02  0.51100000000E-03 0.  1.
         12    1    3    3    0    0  0.17649681878E+02  0.49801550583E+01 -0.13244505300E+02  0.22621452991E+02  0.00000000000E+00 0. -1.
</event>
<event>
 7    1  0.4237994E-013  0.5930197E+02  0.7816164E-02  0.1266605E+00
        -11   -1    0    0    0    0  0.00000000000E+00  0.00000000000E+00  0.45593999997E+02  0.45594000000E+02  0.51100000000E-03 0. -1.
         11   -1    0    0    0    0 -0.00000000000E+00 -0.00000000000E+00 -0.45593999997E+02  0.45594000000E+02  0.51100000000E-03 0.  1.
    9900012    2    1    2    0    0  0.14549510214E+02 -0.26857398540E+02 -0.91493776277E+01  0.59301965208E+02  0.50000038627E+02 0.  0.
         12    1    1    2    0    0 -0.14549510214E+02  0.26857398540E+02  0.91493776277E+01  0.31886034792E+02  0.00000000000E+00 0. -1.
         11    1    3    3    0    0 -0.11676253338E+02  0.33865565814E+01 -0.83280566653E+01  0.14736355912E+02  0.51100000000E-03 0. -1.
        -11    1    3    3    0    0  0.23460999393E+02 -0.32524563081E+02  0.17711213157E+01  0.40142279047E+02  0.51100000000E-03 0.  1.
        -12    1    3    3    0    0  0.27647641586E+01  0.22806079593E+01 -0.25924422781E+01  0.44233302479E+01  0.00000000000E+00 0.  1.
</event>
<event>
 7    1  0.5507155E-013  0.5930193E+02  0.7816164E-02  0.1266605E+00
        -11   -1    0    0    0    0  0.00000000000E+00  0.00000000000E+00  0.45593999997E+02  0.45594000000E+02  0.51100000000E-03 0. -1.
         11   -1    0    0    0    0 -0.00000000000E+00 -0.00000000000E+00 -0.45593999997E+02  0.45594000000E+02  0.51100000000E-03 0.  1.
    9900012    2    1    2    0    0 -0.64038706683E+01 -0.10074025162E+02 -0.29567308157E+02  0.59301933228E+02  0.49999980305E+02 0.  0.
         12    1    1    2    0    0  0.64038706683E+01  0.10074025162E+02  0.29567308157E+02  0.31886066772E+02  0.00000000000E+00 0. -1.
         11    1    3    3    0    0 -0.23398207349E+02 -0.36520491849E+01 -0.80495442662E+01  0.25012171708E+02  0.51100000000E-03 0. -1.
        -11    1    3    3    0    0  0.93499747672E+01 -0.13391370346E+02 -0.13829640155E+02  0.21401162935E+02  0.51100000000E-03 0.  1.
        -12    1    3    3    0    0  0.76443619131E+01  0.69693943688E+01 -0.76881237363E+01  0.12888598586E+02  0.00000000000E+00 0.  1.
</event>
<event>
 7    1  0.4237994E-013  0.5930194E+02  0.7816164E-02  0.1266605E+00
        -11   -1    0    0    0    0  0.00000000000E+00  0.00000000000E+00  0.45593999997E+02  0.45594000000E+02  0.51100000000E-03 0.  1.
         11   -1    0    0    0    0 -0.00000000000E+00 -0.00000000000E+00 -0.45593999997E+02  0.45594000000E+02  0.51100000000E-03 0. -1.
    9900012    2    1    2    0    0 -0.58888982817E+00 -0.20208352743E+02  0.24657584262E+02  0.59301940766E+02  0.49999994052E+02 0.  0.
         12    1    1    2    0    0  0.58888982817E+00  0.20208352743E+02 -0.24657584262E+02  0.31886059234E+02  0.00000000000E+00 0. -1.
         11    1    3    3    0    0  0.24479005460E+01  0.42026574237E+01 -0.96992742823E+01  0.10850367200E+02  0.51100000000E-03 0. -1.
        -11    1    3    3    0    0  0.74014932905E+01 -0.12925627431E+02  0.58669404682E+01  0.16008589511E+02  0.51100000000E-03 0.  1.
         12    1    3    3    0    0 -0.10438283665E+02 -0.11485382736E+02  0.28489918076E+02  0.32442984056E+02  0.00000000000E+00 0. -1.
</event>
<event>
 7    1  0.4237994E-013  0.5930195E+02  0.7816164E-02  0.1266605E+00
        -11   -1    0    0    0    0  0.00000000000E+00  0.00000000000E+00  0.45593999997E+02  0.45594000000E+02  0.51100000000E-03 0.  1.
         11   -1    0    0    0    0 -0.00000000000E+00 -0.00000000000E+00 -0.45593999997E+02  0.45594000000E+02  0.51100000000E-03 0. -1.
    9900012    2    1    2    0    0  0.24479268056E+02  0.16229595147E+02  0.12413124140E+02  0.59301953300E+02  0.50000016911E+02 0.  0.
         12    1    1    2    0    0 -0.24479268056E+02 -0.16229595147E+02 -0.12413124140E+02  0.31886046700E+02  0.00000000000E+00 0. -1.
         11    1    3    3    0    0  0.11927783803E+02 -0.18692849060E+01  0.25753189444E+02  0.28442802593E+02  0.51100000000E-03 0.  1.
        -11    1    3    3    0    0  0.13069154227E+02  0.48365738369E+01 -0.35900407022E+01  0.14390400661E+02  0.51100000000E-03 0. -1.
         12    1    3    3    0    0 -0.51766997399E+00  0.13262306216E+02 -0.97500246016E+01  0.16468750047E+02  0.00000000000E+00 0. -1.
</event>
<event>
 7    1  0.4237994E-013  0.5930192E+02  0.7816164E-02  0.1266605E+00
        -11   -1    0    0    0    0  0.00000000000E+00  0.00000000000E+00  0.45593999997E+02  0.45594000000E+02  0.51100000000E-03 0.  1.
         11   -1    0    0    0    0 -0.00000000000E+00 -0.00000000000E+00 -0.45593999997E+02  0.45594000000E+02  0.51100000000E-03 0. -1.
    9900012    2    1    2    0    0 -0.28096349095E+00 -0.31458741607E+02  0.51952909990E+01  0.59301915064E+02  0.49999947177E+02 0.  0.
         12    1    1    2    0    0  0.28096349095E+00  0.31458741607E+02 -0.51952909990E+01  0.31886084936E+02  0.00000000000E+00 0. -1.
         11    1    3    3    0    0 -0.16081102309E+02 -0.43002717146E+01  0.11899445809E+02  0.20461940258E+02  0.51100000000E-03 0. -1.
        -11    1    3    3    0    0  0.13674657220E+02 -0.83841672903E+01  0.47701063734E+01  0.16734527968E+02  0.51100000000E-03 0.  1.
        -12    1    3    3    0    0  0.21254815978E+01 -0.18774302602E+02 -0.11474261183E+02  0.22105446838E+02  0.00000000000E+00 0.  1.
</event>
<event>
 7    1  0.4237994E-013  0.5930194E+02  0.7816164E-02  0.1266605E+00
        -11   -1    0    0    0    0  0.00000000000E+00  0.00000000000E+00  0.45593999997E+02  0.45594000000E+02  0.51100000000E-03 0. -1.
         11   -1    0    0    0    0 -0.00000000000E+00 -0.00000000000E+00 -0.45593999997E+02  0.45594000000E+02  0.51100000000E-03 0.  1.
    9900012    2    1    2    0    0 -0.23709659995E+02  0.50242179553E-01 -0.21320648390E+02  0.59301944284E+02  0.50000000467E+02 0.  0.
         12    1    1    2    0    0  0.23709659995E+02 -0.50242179553E-01  0.21320648390E+02  0.31886055716E+02  0.00000000000E+00 0. -1.
         11    1    3    3    0    0 -0.19221295503E+01 -0.12189264094E+02 -0.22407165073E+02  0.25580339873E+02  0.51100000000E-03 0. -1.
        -11    1    3    3    0    0 -0.17658737931E+02  0.14665226032E+02 -0.72804484921E+01  0.24081212810E+02  0.51100000000E-03 0.  1.
         12    1    3    3    0    0 -0.41287925137E+01 -0.24257197588E+01  0.83669651752E+01  0.96403916006E+01  0.00000000000E+00 0. -1.
</event>
<event>
 7    1  0.4237994E-013  0.5930195E+02  0.7816164E-02  0.1266605E+00
        -11   -1    0    0    0    0  0.00000000000E+00  0.00000000000E+00  0.45593999997E+02  0.45594000000E+02  0.51100000000E-03 0. -1.
         11   -1    0    0    0    0 -0.00000000000E+00 -0.00000000000E+00 -0.45593999997E+02  0.45594000000E+02  0.51100000000E-03 0.  1.
    9900012    2    1    2    0    0 -0.62988704631E+01  0.55201119730E+01 -0.30766426975E+02  0.59301946088E+02  0.50000003757E+02 0.  0.
         12    1    1    2    0    0  0.62988704631E+01 -0.55201119730E+01  0.30766426975E+02  0.31886053912E+02  0.00000000000E+00 0. -1.
         11    1    3    3    0    0 -0.14716981896E+02 -0.44742382179E+01  0.12854216075E+01  0.15435694760E+02  0.51100000000E-03 0. -1.
        -11    1    3    3    0    0 -0.19185979410E+01  0.11573273688E+02 -0.31249477620E+02  0.33378908516E+02  0.51100000000E-03 0.  1.
        -12    1    3    3    0    0  0.10336709374E+02 -0.15789234967E+01 -0.80237096184E+00  0.10487342812E+02  0.00000000000E+00 0.  1.
</event>
<event>
 7    1  0.4237994E-013  0.5930190E+02  0.7816164E-02  0.1266605E+00
        -11   -1    0    0    0    0  0.00000000000E+00  0.00000000000E+00  0.45593999997E+02  0.45594000000E+02  0.51100000000E-03 0.  1.
         11   -1    0    0    0    0 -0.00000000000E+00 -0.00000000000E+00 -0.45593999997E+02  0.45594000000E+02  0.51100000000E-03 0. -1.
    9900012    2    1    2    0    0  0.39215800610E+01  0.27911356424E+02  0.14909754602E+02  0.59301899738E+02  0.49999919226E+02 0.  0.
         12    1    1    2    0    0 -0.39215800610E+01 -0.27911356424E+02 -0.14909754602E+02  0.31886100262E+02  0.00000000000E+00 0. -1.
         11    1    3    3    0    0  0.20633704355E+02  0.15071172905E+02  0.96225174988E+01  0.27303531849E+02  0.51100000000E-03 0. -1.
        -11    1    3    3    0    0 -0.90877834664E+01  0.77795467025E+01  0.14644975640E+02  0.18909903939E+02  0.51100000000E-03 0.  1.
         12    1    3    3    0    0 -0.76243408277E+01  0.50606368171E+01 -0.93577385366E+01  0.13088463950E+02  0.00000000000E+00 0. -1.
</event>
<event>
 7    1  0.4237994E-013  0.5930194E+02  0.7816164E-02  0.1266605E+00
        -11   -1    0    0    0    0  0.00000000000E+00  0.00000000000E+00  0.45593999997E+02  0.45594000000E+02  0.51100000000E-03 0.  1.
         11   -1    0    0    0    0 -0.00000000000E+00 -0.00000000000E+00 -0.45593999997E+02  0.45594000000E+02  0.51100000000E-03 0. -1.
    9900012    2    1    2    0    0 -0.23930198209E+02 -0.68734470530E+01  0.19920394230E+02  0.59301940868E+02  0.49999994237E+02 0.  0.
         12    1    1    2    0    0  0.23930198209E+02  0.68734470530E+01 -0.19920394230E+02  0.31886059132E+02  0.00000000000E+00 0. -1.
         11    1    3    3    0    0  0.52093341488E+01  0.97683150807E+01  0.19955578281E+02  0.22820653947E+02  0.51100000000E-03 0. -1.
        -11    1    3    3    0    0 -0.15283081177E+02 -0.14760045842E+02  0.46194959926E+01  0.21743303958E+02  0.51100000000E-03 0.  1.
         12    1    3    3    0    0 -0.13856451180E+02 -0.18817162919E+01 -0.46546800434E+01  0.14737982963E+02  0.00000000000E+00 0. -1.
</event>
<event>
 7    1  0.4237994E-013  0.5930195E+02  0.7816164E-02  0.1266605E+00
        -11   -1    0    0    0    0  0.00000000000E+00  0.00000000000E+00  0.45593999997E+02  0.45594000000E+02  0.51100000000E-03 0.  1.
         11   -1    0    0    0    0 -0.00000000000E+00 -0.00000000000E+00 -0.45593999997E+02  0.45594000000E+02  0.51100000000E-03 0. -1.
    9900012    2    1    2    0    0  0.31830245353E+02 -0.20180260511E+00 -0.18747359776E+01  0.59301954800E+02  0.50000019646E+02 0.  0.
         12    1    1    2    0    0 -0.31830245353E+02  0.20180260511E+00  0.18747359776E+01  0.31886045200E+02  0.00000000000E+00 0. -1.
         11    1    3    3    0    0  0.16670282620E+02 -0.72489349094E+01 -0.16934145573E+02  0.24843724892E+02  0.51100000000E-03 0. -1.
        -11    1    3    3    0    0  0.95935250221E+01  0.16586651204E+02  0.13175383973E+02  0.23253891365E+02  0.51100000000E-03 0.  1.
         12    1    3    3    0    0  0.55664377105E+01 -0.95395189000E+01  0.18840256226E+01  0.11204338543E+02  0.00000000000E+00 0. -1.
</event>
<event>
 7    1  0.4237994E-013  0.5930202E+02  0.7816164E-02  0.1266604E+00
        -11   -1    0    0    0    0  0.00000000000E+00  0.00000000000E+00  0.45593999997E+02  0.45594000000E+02  0.51100000000E-03 0. -1.
         11   -1    0    0    0    0 -0.00000000000E+00 -0.00000000000E+00 -0.45593999997E+02  0.45594000000E+02  0.51100000000E-03 0.  1.
    9900012    2    1    2    0    0  0.13924201090E+02 -0.26929990044E+02 -0.98796752869E+01  0.59302019953E+02  0.50000138469E+02 0.  0.
         12    1    1    2    0    0 -0.13924201090E+02  0.26929990044E+02  0.98796752869E+01  0.31885980047E+02  0.00000000000E+00 0. -1.
         11    1    3    3    0    0 -0.13389271722E+02 -0.25514333524E+02 -0.59000890697E+01  0.29411985035E+02  0.51100000000E-03 0. -1.
        -11    1    3    3    0    0  0.12026934677E+02  0.19288734414E+01  0.33172140175E+01  0.12624247288E+02  0.51100000000E-03 0.  1.
         12    1    3    3    0    0  0.15286538135E+02 -0.33445299617E+01 -0.72968002347E+01  0.17265787630E+02  0.00000000000E+00 0. -1.
</event>
<event>
 7    1  0.4237994E-013  0.5930189E+02  0.7816164E-02  0.1266605E+00
        -11   -1    0    0    0    0  0.00000000000E+00  0.00000000000E+00  0.45593999997E+02  0.45594000000E+02  0.51100000000E-03 0. -1.
         11   -1    0    0    0    0 -0.00000000000E+00 -0.00000000000E+00 -0.45593999997E+02  0.45594000000E+02  0.51100000000E-03 0.  1.
    9900012    2    1    2    0    0  0.33780586510E+01 -0.30639233625E+02 -0.81578380549E+01  0.59301886422E+02  0.49999894940E+02 0.  0.
         12    1    1    2    0    0 -0.33780586510E+01  0.30639233625E+02  0.81578380549E+01  0.31886113578E+02  0.00000000000E+00 0. -1.
         11    1    3    3    0    0  0.50385827072E+01  0.10241832344E+02  0.53204524845E+01  0.12593238677E+02  0.51100000000E-03 0. -1.
        -11    1    3    3    0    0 -0.12000466795E+01 -0.22609214556E+02 -0.16720184761E+02  0.28145715013E+02  0.51100000000E-03 0.  1.
         12    1    3    3    0    0 -0.46047737675E+00 -0.18271851413E+02  0.32418942212E+01  0.18562932732E+02  0.00000000000E+00 0. -1.
</event>
<event>
 7    1  0.4237994E-013  0.5930193E+02  0.7816164E-02  0.1266605E+00
        -11   -1    0    0    0    0  0.00000000000E+00  0.00000000000E+00  0.45593999997E+02  0.45594000000E+02  0.51100000000E-03 0.  1.
         11   -1    0    0    0    0 -0.00000000000E+00 -0.00000000000E+00 -0.45593999997E+02  0.45594000000E+02  0.51100000000E-03 0. -1.
    9900012    2    1    2    0    0  0.83311639155E+01  0.21985192355E+02  0.21539838188E+02  0.59301927739E+02  0.49999970293E+02 0.  0.
         12    1    1    2    0    0 -0.83311639155E+01 -0.21985192355E+02 -0.21539838188E+02  0.31886072261E+02  0.00000000000E+00 0. -1.
         11    1    3    3    0    0 -0.15224652728E+02  0.16991943837E+01 -0.17447980833E+01  0.15418224050E+02  0.51100000000E-03 0. -1.
        -11    1    3    3    0    0  0.79204126115E+01  0.10274357652E+02  0.21658572329E+02  0.25246566434E+02  0.51100000000E-03 0.  1.
        -12    1    3    3    0    0  0.15635404032E+02  0.10011640320E+02  0.16260639424E+01  0.18637137255E+02  0.00000000000E+00 0.  1.
</event>
<event>
 7    1  0.4237994E-013  0.5930194E+02  0.7816164E-02  0.1266605E+00
        -11   -1    0    0    0    0  0.00000000000E+00  0.00000000000E+00  0.45593999997E+02  0.45594000000E+02  0.51100000000E-03 0. -1.
         11   -1    0    0    0    0 -0.00000000000E+00 -0.00000000000E+00 -0.45593999997E+02  0.45594000000E+02  0.51100000000E-03 0.  1.
    9900012    2    1    2    0    0 -0.24219562914E+02  0.11010025297E+02  0.17575927977E+02  0.59301935191E+02  0.49999983883E+02 0.  0.
         12    1    1    2    0    0  0.24219562914E+02 -0.11010025297E+02 -0.17575927977E+02  0.31886064809E+02  0.00000000000E+00 0. -1.
         11    1    3    3    0    0 -0.15578466832E+02 -0.11045148148E+02  0.13884944694E+01  0.19147110581E+02  0.51100000000E-03 0. -1.
        -11    1    3    3    0    0  0.91159114944E+01  0.44515064951E+01  0.10320679204E+02  0.14471771555E+02  0.51100000000E-03 0.  1.
        -12    1    3    3    0    0 -0.17757007576E+02  0.17603666950E+02  0.58667543035E+01  0.25683053055E+02  0.00000000000E+00 0.  1.
</event>
<event>
 7    1  0.4237994E-013  0.5930186E+02  0.7816164E-02  0.1266605E+00
        -11   -1    0    0    0    0  0.00000000000E+00  0.00000000000E+00  0.45593999997E+02  0.45594000000E+02  0.51100000000E-03 0. -1.
         11   -1    0    0    0    0 -0.00000000000E+00 -0.00000000000E+00 -0.45593999997E+02  0.45594000000E+02  0.51100000000E-03 0.  1.
    9900012    2    1    2    0    0 -0.25561851607E+02 -0.97786654040E+01 -0.16361400065E+02  0.59301859331E+02  0.49999845534E+02 0.  0.
         12    1    1    2    0    0  0.25561851607E+02  0.97786654040E+01  0.16361400065E+02  0.31886140669E+02  0.00000000000E+00 0. -1.
         11    1    3    3    0    0 -0.15479353667E+02 -0.38726930287E+01 -0.78125613161E+01  0.17766379930E+02  0.51100000000E-03 0. -1.
        -11    1    3    3    0    0 -0.40652562160E+01  0.43785091458E+01  0.14448218299E+02  0.15634854100E+02  0.51100000000E-03 0.  1.
        -12    1    3    3    0    0 -0.60172417246E+01 -0.10284481521E+02 -0.22997057048E+02  0.25900625301E+02  0.00000000000E+00 0.  1.
</event>
<event>
 7    1  0.4237994E-013  0.5930194E+02  0.7816164E-02  0.1266605E+00
        -11   -1    0    0    0    0  0.00000000000E+00  0.00000000000E+00  0.45593999997E+02  0.45594000000E+02  0.51100000000E-03 0.  1.
         11   -1    0    0    0    0 -0.00000000000E+00 -0.00000000000E+00 -0.45593999997E+02  0.45594000000E+02  0.51100000000E-03 0. -1.
    9900012    2    1    2    0    0 -0.16026884578E+01  0.25203887847E+02  0.19465766647E+02  0.59301942796E+02  0.49999997753E+02 0.  0.
         12    1    1    2    0    0  0.16026884578E+01 -0.25203887847E+02 -0.19465766647E+02  0.31886057204E+02  0.00000000000E+00 0. -1.
         11    1    3    3    0    0  0.16229789955E+02  0.19492757389E+02  0.12276019326E+02  0.28179324395E+02  0.51100000000E-03 0. -1.
        -11    1    3    3    0    0 -0.10134455470E+02  0.14686870993E+02  0.12444229699E+01  0.17887424522E+02  0.51100000000E-03 0.  1.
         12    1    3    3    0    0 -0.76980229423E+01 -0.89757405350E+01  0.59453243506E+01  0.13235193879E+02  0.00000000000E+00 0. -1.
</event>
<event>
 7    1  0.4237994E-013  0.5930194E+02  0.7816164E-02  0.1266605E+00
        -11   -1    0    0    0    0  0.00000000000E+00  0.00000000000E+00  0.45593999997E+02  0.45594000000E+02  0.51100000000E-03 0. -1.
         11   -1    0    0    0    0 -0.00000000000E+00 -0.00000000000E+00 -0.45593999997E+02  0.45594000000E+02  0.51100000000E-03 0.  1.
    9900012    2    1    2    0    0 -0.11840527514E+02  0.16149206059E+02 -0.24813820403E+02  0.59301942998E+02  0.49999998122E+02 0.  0.
         12    1    1    2    0    0  0.11840527514E+02 -0.16149206059E+02  0.24813820403E+02  0.31886057002E+02  0.00000000000E+00 0. -1.
         11    1    3    3    0    0 -0.90223196783E+01 -0.12906421161E+02 -0.98010319993E+01  0.18548266444E+02  0.51100000000E-03 0. -1.
        -11    1    3    3    0    0 -0.52979207461E+01  0.24560212971E+02 -0.21086307432E+02  0.32800981491E+02  0.51100000000E-03 0.  1.
        -12    1    3    3    0    0  0.24797129100E+01  0.44954142483E+01  0.60735190282E+01  0.79526950630E+01  0.00000000000E+00 0.  1.
</event>
<event>
 7    1  0.4237994E-013  0.5930194E+02  0.7816164E-02  0.1266605E+00
        -11   -1    0    0    0    0  0.00000000000E+00  0.00000000000E+00  0.45593999997E+02  0.45594000000E+02  0.51100000000E-03 0.  1.
         11   -1    0    0    0    0 -0.00000000000E+00 -0.00000000000E+00 -0.45593999997E+02  0.45594000000E+02  0.51100000000E-03 0. -1.
    9900012    2    1    2    0    0  0.30917091342E+02 -0.37768470162E+01  0.68256787569E+01  0.59301937199E+02  0.49999987546E+02 0.  0.
         12    1    1    2    0    0 -0.30917091342E+02  0.37768470162E+01 -0.68256787569E+01  0.31886062801E+02  0.00000000000E+00 0. -1.
         11    1    3    3    0    0  0.75182252876E+00  0.70214915458E+01  0.12784362636E-01  0.70616389276E+01  0.51100000000E-03 0. -1.
        -11    1    3    3    0    0  0.28224997605E+02 -0.55202716908E+01  0.21893833674E+02  0.36145038975E+02  0.51100000000E-03 0.  1.
        -12    1    3    3    0    0  0.19402712090E+01 -0.52780668712E+01 -0.15080939279E+02  0.16095259296E+02  0.00000000000E+00 0.  1.
</event>
<event>
 7    1  0.4237994E-013  0.5930190E+02  0.7816164E-02  0.1266605E+00
        -11   -1    0    0    0    0  0.00000000000E+00  0.00000000000E+00  0.45593999997E+02  0.45594000000E+02  0.51100000000E-03 0.  1.
         11   -1    0    0    0    0 -0.00000000000E+00 -0.00000000000E+00 -0.45593999997E+02  0.45594000000E+02  0.51100000000E-03 0. -1.
    9900012    2    1    2    0    0  0.33689769104E+01  0.20661411316E+02  0.24051598302E+02  0.59301901087E+02  0.49999921687E+02 0.  0.
         12    1    1    2    0    0 -0.33689769104E+01 -0.20661411316E+02 -0.24051598302E+02  0.31886098913E+02  0.00000000000E+00 0. -1.
         11    1    3    3    0    0  0.25282128662E+02  0.18334656430E+02  0.93192325211E+01  0.32591314044E+02  0.51100000000E-03 0. -1.
        -11    1    3    3    0    0 -0.15948917800E+02  0.28595694430E+01  0.11790343704E+02  0.20038895212E+02  0.51100000000E-03 0.  1.
         12    1    3    3    0    0 -0.59642339519E+01 -0.53281455727E+00  0.29420220769E+01  0.66716918309E+01  0.00000000000E+00 0. -1.
</event>
<event>
 7    1  0.4237994E-013  0.5930196E+02  0.7816164E-02  0.1266605E+00
        -11   -1    0    0    0    0  0.00000000000E+00  0.00000000000E+00  0.45593999997E+02  0.45594000000E+02  0.51100000000E-03 0. -1.
         11   -1    0    0    0    0 -0.00000000000E+00 -0.00000000000E+00 -0.45593999997E+02  0.45594000000E+02  0.51100000000E-03 0.  1.
    9900012    2    1    2    0    0  0.26995546798E+02  0.33953555151E+01 -0.16626225597E+02  0.59301962874E+02  0.50000034371E+02 0.  0.
         12    1    1    2    0    0 -0.26995546798E+02 -0.33953555151E+01  0.16626225597E+02  0.31886037126E+02  0.00000000000E+00 0. -1.
         11    1    3    3    0    0 -0.16675140691E+01 -0.27534131389E+01 -0.17031905929E+02  0.17333427443E+02  0.51100000000E-03 0. -1.
        -11    1    3    3    0    0  0.22999260279E+02  0.14945120519E+02 -0.79742331802E+01  0.28564155786E+02  0.51100000000E-03 0.  1.
        -12    1    3    3    0    0  0.56638005879E+01 -0.87963518646E+01  0.83799135115E+01  0.13404379646E+02  0.00000000000E+00 0.  1.
</event>
<event>
 7    1  0.4237994E-013  0.5930195E+02  0.7816164E-02  0.1266605E+00
        -11   -1    0    0    0    0  0.00000000000E+00  0.00000000000E+00  0.45593999997E+02  0.45594000000E+02  0.51100000000E-03 0. -1.
         11   -1    0    0    0    0 -0.00000000000E+00 -0.00000000000E+00 -0.45593999997E+02  0.45594000000E+02  0.51100000000E-03 0.  1.
    9900012    2    1    2    0    0 -0.31172412865E+01  0.39411074258E+01 -0.31487631852E+02  0.59301945358E+02  0.50000002426E+02 0.  0.
         12    1    1    2    0    0  0.31172412865E+01 -0.39411074258E+01  0.31487631852E+02  0.31886054642E+02  0.00000000000E+00 0. -1.
         11    1    3    3    0    0 -0.50265623336E+01  0.13785480193E+02 -0.50551312370E+01  0.15519669621E+02  0.51100000000E-03 0. -1.
        -11    1    3    3    0    0 -0.11312897498E+02 -0.12083524476E+02 -0.25419127082E+02  0.30333566151E+02  0.51100000000E-03 0.  1.
        -12    1    3    3    0    0  0.13222218545E+02  0.22391517088E+01 -0.10133735335E+01  0.13448709586E+02  0.00000000000E+00 0.  1.
</event>
<event>
 7    1  0.4237994E-013  0.5930194E+02  0.7816164E-02  0.1266605E+00
        -11   -1    0    0    0    0  0.00000000000E+00  0.00000000000E+00  0.45593999997E+02  0.45594000000E+02  0.51100000000E-03 0.  1.
         11   -1    0    0    0    0 -0.00000000000E+00 -0.00000000000E+00 -0.45593999997E+02  0.45594000000E+02  0.51100000000E-03 0. -1.
    9900012    2    1    2    0    0  0.20563068750E+02  0.10244596898E+02  0.22111738898E+02  0.59301944128E+02  0.50000000182E+02 0.  0.
         12    1    1    2    0    0 -0.20563068750E+02 -0.10244596898E+02 -0.22111738898E+02  0.31886055872E+02  0.00000000000E+00 0. -1.
         11    1    3    3    0    0 -0.10889540586E+02 -0.89202022099E+01  0.15834308051E+02  0.21186727292E+02  0.51100000000E-03 0. -1.
        -11    1    3    3    0    0  0.26690444301E+02  0.18797765413E+02  0.66798437659E+01  0.33322006459E+02  0.51100000000E-03 0.  1.
         12    1    3    3    0    0  0.47621650349E+01  0.36703369571E+00 -0.40241291899E+00  0.47932103762E+01  0.00000000000E+00 0. -1.
</event>
<event>
 7    1  0.4237994E-013  0.5930203E+02  0.7816164E-02  0.1266604E+00
        -11   -1    0    0    0    0  0.00000000000E+00  0.00000000000E+00  0.45593999997E+02  0.45594000000E+02  0.51100000000E-03 0. -1.
         11   -1    0    0    0    0 -0.00000000000E+00 -0.00000000000E+00 -0.45593999997E+02  0.45594000000E+02  0.51100000000E-03 0.  1.
    9900012    2    1    2    0    0  0.12324458495E+02  0.28311446304E+02 -0.79551741227E+01  0.59302030290E+02  0.50000157322E+02 0.  0.
         12    1    1    2    0    0 -0.12324458495E+02 -0.28311446304E+02  0.79551741227E+01  0.31885969710E+02  0.00000000000E+00 0. -1.
         11    1    3    3    0    0  0.51739315501E+01  0.91056533984E+01  0.84606665662E+01  0.13463482852E+02  0.51100000000E-03 0. -1.
        -11    1    3    3    0    0 -0.14718796848E+02  0.91854000357E+01 -0.12691555251E+02  0.21496281758E+02  0.51100000000E-03 0.  1.
        -12    1    3    3    0    0  0.21869323793E+02  0.10020392870E+02 -0.37242854383E+01  0.24342265680E+02  0.00000000000E+00 0.  1.
</event>
<event>
 7    1  0.4237994E-013  0.5930191E+02  0.7816164E-02  0.1266605E+00
        -11   -1    0    0    0    0  0.00000000000E+00  0.00000000000E+00  0.45593999997E+02  0.45594000000E+02  0.51100000000E-03 0.  1.
         11   -1    0    0    0    0 -0.00000000000E+00 -0.00000000000E+00 -0.45593999997E+02  0.45594000000E+02  0.51100000000E-03 0. -1.
    9900012    2    1    2    0    0 -0.63193339190E+01  0.28314343674E+02  0.13232033976E+02  0.59301909584E+02  0.49999937182E+02 0.  0.
         12    1    1    2    0    0  0.63193339190E+01 -0.28314343674E+02 -0.13232033976E+02  0.31886090416E+02  0.00000000000E+00 0. -1.
         11    1    3    3    0    0 -0.12946290757E+02  0.10706553253E+02 -0.11099920920E+02  0.20135664171E+02  0.51100000000E-03 0. -1.
        -11    1    3    3    0    0  0.86101817653E+01  0.17131360546E+02  0.51185146718E+01  0.19844846608E+02  0.51100000000E-03 0.  1.
        -12    1    3    3    0    0 -0.19832249274E+01  0.47642987558E+00  0.19213440224E+02  0.19321398805E+02  0.00000000000E+00 0.  1.
</event>
<event>
 7    1  0.4237994E-013  0.5930191E+02  0.7816164E-02  0.1266605E+00
        -11   -1    0    0    0    0  0.00000000000E+00  0.00000000000E+00  0.45593999997E+02  0.45594000000E+02  0.51100000000E-03 0. -1.
         11   -1    0    0    0    0 -0.00000000000E+00 -0.00000000000E+00 -0.45593999997E+02  0.45594000000E+02  0.51100000000E-03 0.  1.
    9900012    2    1    2    0    0 -0.31708802589E+02 -0.21404715890E+01 -0.25870480554E+01  0.59301912157E+02  0.49999941876E+02 0.  0.
         12    1    1    2    0    0  0.31708802589E+02  0.21404715890E+01  0.25870480554E+01  0.31886087843E+02  0.00000000000E+00 0. -1.
         11    1    3    3    0    0  0.48556581176E+01 -0.44797238896E+01 -0.91618083306E+01  0.11295312038E+02  0.51100000000E-03 0. -1.
        -11    1    3    3    0    0 -0.38680751482E+02  0.94108035366E+01  0.33446170504E+01  0.39949345700E+02  0.51100000000E-03 0.  1.
         12    1    3    3    0    0  0.21162907745E+01 -0.70715512360E+01  0.32301432248E+01  0.80572544194E+01  0.00000000000E+00 0. -1.
</event>
<event>
 7    1  0.4237994E-013  0.5930222E+02  0.7816164E-02  0.1266604E+00
        -11   -1    0    0    0    0  0.00000000000E+00  0.00000000000E+00  0.45593999997E+02  0.45594000000E+02  0.51100000000E-03 0.  1.
         11   -1    0    0    0    0 -0.00000000000E+00 -0.00000000000E+00 -0.45593999997E+02  0.45594000000E+02  0.51100000000E-03 0. -1.
    9900012    2    1    2    0    0 -0.97196794310E+00 -0.23581570134E+02  0.21439870787E+02  0.59302215847E+02  0.50000495731E+02 0.  0.
         12    1    1    2    0    0  0.97196794310E+00  0.23581570134E+02 -0.21439870787E+02  0.31885784153E+02  0.00000000000E+00 0. -1.
         11    1    3    3    0    0 -0.47818265706E+01  0.44552738593E+01  0.55016948339E+01  0.85430660082E+01  0.51100000000E-03 0. -1.
        -11    1    3    3    0    0 -0.14100675582E+02 -0.17743519068E+02 -0.28409901803E+01  0.22841469879E+02  0.51100000000E-03 0.  1.
        -12    1    3    3    0    0  0.17910534210E+02 -0.10293324926E+02  0.18779166133E+02  0.27917679960E+02  0.00000000000E+00 0.  1.
</event>
<event>
 7    1  0.4237994E-013  0.5930195E+02  0.7816164E-02  0.1266605E+00
        -11   -1    0    0    0    0  0.00000000000E+00  0.00000000000E+00  0.45593999997E+02  0.45594000000E+02  0.51100000000E-03 0. -1.
         11   -1    0    0    0    0 -0.00000000000E+00 -0.00000000000E+00 -0.45593999997E+02  0.45594000000E+02  0.51100000000E-03 0.  1.
    9900012    2    1    2    0    0  0.19588292531E+02 -0.23151826198E+02  0.98494605831E+01  0.59301950788E+02  0.50000012329E+02 0.  0.
         12    1    1    2    0    0 -0.19588292531E+02  0.23151826198E+02 -0.98494605831E+01  0.31886049212E+02  0.00000000000E+00 0. -1.
         11    1    3    3    0    0  0.83847018352E+01 -0.21114403749E+02  0.25766196751E+02  0.34351392488E+02  0.51100000000E-03 0. -1.
        -11    1    3    3    0    0  0.11183211652E+02 -0.75870204510E+01 -0.12650224046E+02  0.18510950025E+02  0.51100000000E-03 0.  1.
        -12    1    3    3    0    0  0.20379044024E-01  0.55495980021E+01 -0.32665121221E+01  0.64396082749E+01  0.00000000000E+00 0.  1.
</event>
<event>
 7    1  0.4237994E-013  0.5930193E+02  0.7816164E-02  0.1266605E+00
        -11   -1    0    0    0    0  0.00000000000E+00  0.00000000000E+00  0.45593999997E+02  0.45594000000E+02  0.51100000000E-03 0. -1.
         11   -1    0    0    0    0 -0.00000000000E+00 -0.00000000000E+00 -0.45593999997E+02  0.45594000000E+02  0.51100000000E-03 0.  1.
    9900012    2    1    2    0    0 -0.92980007247E+00  0.22901485846E+02 -0.22167062782E+02  0.59301933223E+02  0.49999980294E+02 0.  0.
         12    1    1    2    0    0  0.92980007247E+00 -0.22901485846E+02  0.22167062782E+02  0.31886066777E+02  0.00000000000E+00 0. -1.
         11    1    3    3    0    0  0.99533112684E+01  0.88304496460E+01  0.91884225948E+01  0.16170106870E+02  0.51100000000E-03 0. -1.
        -11    1    3    3    0    0 -0.17755866011E+02  0.65256643769E+01 -0.23960995209E+02  0.30528418974E+02  0.51100000000E-03 0.  1.
        -12    1    3    3    0    0  0.68727546701E+01  0.75453718235E+01 -0.73944901680E+01  0.12603407379E+02  0.00000000000E+00 0.  1.
</event>
<event>
 7    1  0.4237994E-013  0.5930191E+02  0.7816164E-02  0.1266605E+00
        -11   -1    0    0    0    0  0.00000000000E+00  0.00000000000E+00  0.45593999997E+02  0.45594000000E+02  0.51100000000E-03 0.  1.
         11   -1    0    0    0    0 -0.00000000000E+00 -0.00000000000E+00 -0.45593999997E+02  0.45594000000E+02  0.51100000000E-03 0. -1.
    9900012    2    1    2    0    0  0.25262982132E+02 -0.18465320555E+02  0.61266886325E+01  0.59301911450E+02  0.49999940586E+02 0.  0.
         12    1    1    2    0    0 -0.25262982132E+02  0.18465320555E+02 -0.61266886325E+01  0.31886088550E+02  0.00000000000E+00 0. -1.
         11    1    3    3    0    0  0.14427493252E+02 -0.10686430970E+02 -0.16369985002E+02  0.24296682441E+02  0.51100000000E-03 0. -1.
        -11    1    3    3    0    0  0.16318989400E+02  0.52972516392E+00  0.17251380651E+02  0.23752897895E+02  0.51100000000E-03 0.  1.
         12    1    3    3    0    0 -0.54835005200E+01 -0.83086147495E+01  0.52452929831E+01  0.11252331113E+02  0.00000000000E+00 0. -1.
</event>
<event>
 7    1  0.4237994E-013  0.5930195E+02  0.7816164E-02  0.1266605E+00
        -11   -1    0    0    0    0  0.00000000000E+00  0.00000000000E+00  0.45593999997E+02  0.45594000000E+02  0.51100000000E-03 0. -1.
         11   -1    0    0    0    0 -0.00000000000E+00 -0.00000000000E+00 -0.45593999997E+02  0.45594000000E+02  0.51100000000E-03 0.  1.
    9900012    2    1    2    0    0  0.79637814616E+01 -0.30864856940E+02 -0.81166666844E+00  0.59301952708E+02  0.50000015831E+02 0.  0.
         12    1    1    2    0    0 -0.79637814616E+01  0.30864856940E+02  0.81166666844E+00  0.31886047292E+02  0.00000000000E+00 0. -1.
         11    1    3    3    0    0 -0.22602097779E+01 -0.30549181388E+01  0.37044780638E+01  0.53069983099E+01  0.51100000000E-03 0. -1.
        -11    1    3    3    0    0  0.12616190980E+02 -0.25720827316E+02 -0.22065222762E+02  0.36160797674E+02  0.51100000000E-03 0.  1.
        -12    1    3    3    0    0 -0.23921997401E+01 -0.20891114858E+01  0.17549078029E+02  0.17834156725E+02  0.00000000000E+00 0.  1.
</event>
<event>
 7    1  0.4237994E-013  0.5930206E+02  0.7816164E-02  0.1266604E+00
        -11   -1    0    0    0    0  0.00000000000E+00  0.00000000000E+00  0.45593999997E+02  0.45594000000E+02  0.51100000000E-03 0.  1.
         11   -1    0    0    0    0 -0.00000000000E+00 -0.00000000000E+00 -0.45593999997E+02  0.45594000000E+02  0.51100000000E-03 0. -1.
    9900012    2    1    2    0    0 -0.24024939835E+02  0.11520543111E+02  0.17515489119E+02  0.59302062555E+02  0.50000216165E+02 0.  0.
         12    1    1    2    0    0  0.24024939835E+02 -0.11520543111E+02 -0.17515489119E+02  0.31885937445E+02  0.00000000000E+00 0. -1.
         11    1    3    3    0    0 -0.13399247729E+01  0.10293591684E+02 -0.16360932232E+01  0.10508578850E+02  0.51100000000E-03 0. -1.
        -11    1    3    3    0    0 -0.17627919841E+02 -0.22267214408E+01  0.30843279573E+02  0.35595080298E+02  0.51100000000E-03 0.  1.
        -12    1    3    3    0    0 -0.50570952216E+01  0.34536728676E+01 -0.11691697231E+02  0.13198403407E+02  0.00000000000E+00 0.  1.
</event>
<event>
 7    1  0.4237994E-013  0.5930188E+02  0.7816164E-02  0.1266605E+00
        -11   -1    0    0    0    0  0.00000000000E+00  0.00000000000E+00  0.45593999997E+02  0.45594000000E+02  0.51100000000E-03 0.  1.
         11   -1    0    0    0    0 -0.00000000000E+00 -0.00000000000E+00 -0.45593999997E+02  0.45594000000E+02  0.51100000000E-03 0. -1.
    9900012    2    1    2    0    0  0.14478906174E+02 -0.17625356458E+02  0.22280763409E+02  0.59301884960E+02  0.49999892275E+02 0.  0.
         12    1    1    2    0    0 -0.14478906174E+02  0.17625356458E+02 -0.22280763409E+02  0.31886115040E+02  0.00000000000E+00 0. -1.
         11    1    3    3    0    0 -0.11341808591E+02 -0.19419409479E+01  0.21480384971E+02  0.24368313350E+02  0.51100000000E-03 0. -1.
        -11    1    3    3    0    0  0.15403954076E+01  0.33870309797E+01 -0.14130454541E+01  0.39801375084E+01  0.51100000000E-03 0.  1.
         12    1    3    3    0    0  0.24280319357E+02 -0.19070446489E+02  0.22134238922E+01  0.30953434102E+02  0.00000000000E+00 0. -1.
</event>
<event>
 7    1  0.4237994E-013  0.5930194E+02  0.7816164E-02  0.1266605E+00
        -11   -1    0    0    0    0  0.00000000000E+00  0.00000000000E+00  0.45593999997E+02  0.45594000000E+02  0.51100000000E-03 0.  1.
         11   -1    0    0    0    0 -0.00000000000E+00 -0.00000000000E+00 -0.45593999997E+02  0.45594000000E+02  0.51100000000E-03 0. -1.
    9900012    2    1    2    0    0  0.16755246604E+02 -0.20436554664E+02  0.17841791154E+02  0.59301944005E+02  0.49999999959E+02 0.  0.
         12    1    1    2    0    0 -0.16755246604E+02  0.20436554664E+02 -0.17841791154E+02  0.31886055995E+02  0.00000000000E+00 0. -1.
         11    1    3    3    0    0 -0.80891400732E+01 -0.38103825192E+01 -0.77168568294E+01  0.11811142267E+02  0.51100000000E-03 0. -1.
        -11    1    3    3    0    0  0.30002425232E+02 -0.15216870589E+02  0.17776470208E+02  0.38048673612E+02  0.51100000000E-03 0.  1.
         12    1    3    3    0    0 -0.51580385545E+01 -0.14093015557E+01  0.77821777759E+01  0.94421281257E+01  0.00000000000E+00 0. -1.
</event>
<event>
 7    1  0.4237994E-013  0.5930197E+02  0.7816164E-02  0.1266605E+00
        -11   -1    0    0    0    0  0.00000000000E+00  0.00000000000E+00  0.45593999997E+02  0.45594000000E+02  0.51100000000E-03 0. -1.
         11   -1    0    0    0    0 -0.00000000000E+00 -0.00000000000E+00 -0.45593999997E+02  0.45594000000E+02  0.51100000000E-03 0.  1.
    9900012    2    1    2    0    0  0.18548432783E+02  0.16918351880E+02 -0.19658171326E+02  0.59301973453E+02  0.50000053665E+02 0.  0.
         12    1    1    2    0    0 -0.18548432783E+02 -0.16918351880E+02  0.19658171326E+02  0.31886026547E+02  0.00000000000E+00 0. -1.
         11    1    3    3    0    0 -0.11547984950E+01  0.23534099974E+02 -0.94465862646E+01  0.25385535517E+02  0.51100000000E-03 0. -1.
        -11    1    3    3    0    0  0.37829925055E+01 -0.10536248001E+02 -0.13138849278E+02  0.17261312663E+02  0.51100000000E-03 0.  1.
        -12    1    3    3    0    0  0.15920238772E+02  0.39204999068E+01  0.29272642170E+01  0.16655125274E+02  0.00000000000E+00 0.  1.
</event>
<event>
 7    1  0.4237994E-013  0.5930194E+02  0.7816164E-02  0.1266605E+00
        -11   -1    0    0    0    0  0.00000000000E+00  0.00000000000E+00  0.45593999997E+02  0.45594000000E+02  0.51100000000E-03 0. -1.
         11   -1    0    0    0    0 -0.00000000000E+00 -0.00000000000E+00 -0.45593999997E+02  0.45594000000E+02  0.51100000000E-03 0.  1.
    9900012    2    1    2    0    0 -0.27541509945E+02 -0.15200926430E+02 -0.52074664925E+01  0.59301942833E+02  0.49999997821E+02 0.  0.
         12    1    1    2    0    0  0.27541509945E+02  0.15200926430E+02  0.52074664925E+01  0.31886057167E+02  0.00000000000E+00 0. -1.
         11    1    3    3    0    0 -0.33098539399E+01  0.95457857399E+01  0.18590276919E+01  0.10272932528E+02  0.51100000000E-03 0. -1.
        -11    1    3    3    0    0 -0.79278406215E+01 -0.20297358342E+02 -0.18533118047E+02  0.28606116084E+02  0.51100000000E-03 0.  1.
        -12    1    3    3    0    0 -0.16303815384E+02 -0.44493538282E+01  0.11466623863E+02  0.20422894221E+02  0.00000000000E+00 0.  1.
</event>
<event>
 7    1  0.4237994E-013  0.5930193E+02  0.7816164E-02  0.1266605E+00
        -11   -1    0    0    0    0  0.00000000000E+00  0.00000000000E+00  0.45593999997E+02  0.45594000000E+02  0.51100000000E-03 0. -1.
         11   -1    0    0    0    0 -0.00000000000E+00 -0.00000000000E+00 -0.45593999997E+02  0.45594000000E+02  0.51100000000E-03 0.  1.
    9900012    2    1    2    0    0  0.91824477047E+01  0.28370454358E+02 -0.11292530277E+02  0.59301933037E+02  0.49999979955E+02 0.  0.
         12    1    1    2    0    0 -0.91824477047E+01 -0.28370454358E+02  0.11292530277E+02  0.31886066963E+02  0.00000000000E+00 0. -1.
         11    1    3    3    0    0  0.62702908970E+01  0.33431277169E+01  0.15610926207E+02  0.17152086408E+02  0.51100000000E-03 0. -1.
        -11    1    3    3    0    0 -0.22330539331E+00  0.12664806907E+02 -0.26520445848E+02  0.29390155623E+02  0.51100000000E-03 0.  1.
         12    1    3    3    0    0  0.31354622010E+01  0.12362519735E+02 -0.38301063511E+00  0.12759691005E+02  0.00000000000E+00 0. -1.
</event>
<event>
 7    1  0.4237994E-013  0.5930192E+02  0.7816164E-02  0.1266605E+00
        -11   -1    0    0    0    0  0.00000000000E+00  0.00000000000E+00  0.45593999997E+02  0.45594000000E+02  0.51100000000E-03 0.  1.
         11   -1    0    0    0    0 -0.00000000000E+00 -0.00000000000E+00 -0.45593999997E+02  0.45594000000E+02  0.51100000000E-03 0. -1.
    9900012    2    1    2    0    0 -0.15556334222E+01  0.22950672734E+02  0.22080964058E+02  0.59301916075E+02  0.49999949022E+02 0.  0.
         12    1    1    2    0    0  0.15556334222E+01 -0.22950672734E+02 -0.22080964058E+02  0.31886083925E+02  0.00000000000E+00 0. -1.
         11    1    3    3    0    0  0.97557417141E+01  0.61741631617E+01 -0.97664356149E+01  0.15122104748E+02  0.51100000000E-03 0. -1.
        -11    1    3    3    0    0  0.23978963481E+01  0.16693247107E+02  0.18767505948E+02  0.25231600933E+02  0.51100000000E-03 0.  1.
         12    1    3    3    0    0 -0.13709271484E+02  0.83262465544E-01  0.13079893725E+02  0.18948210394E+02  0.00000000000E+00 0. -1.
</event>
<event>
 7    1  0.4237994E-013  0.5930201E+02  0.7816164E-02  0.1266605E+00
        -11   -1    0    0    0    0  0.00000000000E+00  0.00000000000E+00  0.45593999997E+02  0.45594000000E+02  0.51100000000E-03 0.  1.
         11   -1    0    0    0    0 -0.00000000000E+00 -0.00000000000E+00 -0.45593999997E+02  0.45594000000E+02  0.51100000000E-03 0. -1.
    9900012    2    1    2    0    0  0.16210314083E+02  0.17358217567E+02  0.21275208822E+02  0.59302007618E+02  0.50000115973E+02 0.  0.
         12    1    1    2    0    0 -0.16210314083E+02 -0.17358217567E+02 -0.21275208822E+02  0.31885992382E+02  0.00000000000E+00 0. -1.
         11    1    3    3    0    0  0.10537895130E+02 -0.91414199212E+01  0.17462774892E+02  0.22350867973E+02  0.51100000000E-03 0. -1.
        -11    1    3    3    0    0 -0.52895180958E+01  0.14041580855E+02 -0.75917264550E+01  0.16816043097E+02  0.51100000000E-03 0.  1.
        -12    1    3    3    0    0  0.10961937048E+02  0.12458056633E+02  0.11404160385E+02  0.20135096548E+02  0.00000000000E+00 0.  1.
</event>
<event>
 7    1  0.4237994E-013  0.5930194E+02  0.7816164E-02  0.1266605E+00
        -11   -1    0    0    0    0  0.00000000000E+00  0.00000000000E+00  0.45593999997E+02  0.45594000000E+02  0.51100000000E-03 0.  1.
         11   -1    0    0    0    0 -0.00000000000E+00 -0.00000000000E+00 -0.45593999997E+02  0.45594000000E+02  0.51100000000E-03 0. -1.
    9900012    2    1    2    0    0  0.13298950811E+02  0.19381989446E+02  0.21545235756E+02  0.59301940486E+02  0.49999993540E+02 0.  0.
         12    1    1    2    0    0 -0.13298950811E+02 -0.19381989446E+02 -0.21545235756E+02  0.31886059514E+02  0.00000000000E+00 0. -1.
         11    1    3    3    0    0 -0.85534929977E+01 -0.10162741423E+02  0.19025226412E+01  0.13418761059E+02  0.51100000000E-03 0. -1.
        -11    1    3    3    0    0  0.19189461771E+02  0.14321951623E+02  0.18733936720E+02  0.30402534872E+02  0.51100000000E-03 0.  1.
         12    1    3    3    0    0  0.26629820381E+01  0.15222779246E+02  0.90877639476E+00  0.15480644555E+02  0.00000000000E+00 0. -1.
</event>
<event>
 7    1  0.4237994E-013  0.5930195E+02  0.7816164E-02  0.1266605E+00
        -11   -1    0    0    0    0  0.00000000000E+00  0.00000000000E+00  0.45593999997E+02  0.45594000000E+02  0.51100000000E-03 0. -1.
         11   -1    0    0    0    0 -0.00000000000E+00 -0.00000000000E+00 -0.45593999997E+02  0.45594000000E+02  0.51100000000E-03 0.  1.
    9900012    2    1    2    0    0  0.32053555665E+01  0.21362962185E+02 -0.23453558946E+02  0.59301954700E+02  0.50000019464E+02 0.  0.
         12    1    1    2    0    0 -0.32053555665E+01 -0.21362962185E+02  0.23453558946E+02  0.31886045300E+02  0.00000000000E+00 0. -1.
         11    1    3    3    0    0 -0.59971130908E+01  0.17684174392E+02  0.29970277920E+00  0.18675792122E+02  0.51100000000E-03 0. -1.
        -11    1    3    3    0    0  0.93552476806E+01 -0.50328793334E+01 -0.28702721498E+02  0.30605502041E+02  0.51100000000E-03 0.  1.
        -12    1    3    3    0    0 -0.15277902327E+00  0.87116671267E+01  0.49494597731E+01  0.10020660537E+02  0.00000000000E+00 0.  1.
</event>
<event>
 7    1  0.4237994E-013  0.5930195E+02  0.7816164E-02  0.1266605E+00
        -11   -1    0    0    0    0  0.00000000000E+00  0.00000000000E+00  0.45593999997E+02  0.45594000000E+02  0.51100000000E-03 0.  1.
         11   -1    0    0    0    0 -0.00000000000E+00 -0.00000000000E+00 -0.45593999997E+02  0.45594000000E+02  0.51100000000E-03 0. -1.
    9900012    2    1    2    0    0  0.31818001695E+02 -0.64036824900E+00  0.19811652885E+01  0.59301947889E+02  0.50000007041E+02 0.  0.
         12    1    1    2    0    0 -0.31818001695E+02  0.64036824900E+00 -0.19811652885E+01  0.31886052111E+02  0.00000000000E+00 0. -1.
         11    1    3    3    0    0  0.14348414590E+01 -0.13944076683E+01  0.18278319637E+02  0.18387498791E+02  0.51100000000E-03 0. -1.
        -11    1    3    3    0    0  0.24802494274E+02 -0.37172459745E+01 -0.22854095582E+01  0.25183421868E+02  0.51100000000E-03 0.  1.
         12    1    3    3    0    0  0.55806659617E+01  0.44712853938E+01 -0.14011744790E+02  0.15731027230E+02  0.00000000000E+00 0. -1.
</event>
<event>
 7    1  0.4237994E-013  0.5930200E+02  0.7816164E-02  0.1266605E+00
        -11   -1    0    0    0    0  0.00000000000E+00  0.00000000000E+00  0.45593999997E+02  0.45594000000E+02  0.51100000000E-03 0.  1.
         11   -1    0    0    0    0 -0.00000000000E+00 -0.00000000000E+00 -0.45593999997E+02  0.45594000000E+02  0.51100000000E-03 0. -1.
    9900012    2    1    2    0    0  0.21937915623E+02  0.13092394151E+01  0.23102614649E+02  0.59301999101E+02  0.50000100440E+02 0.  0.
         12    1    1    2    0    0 -0.21937915623E+02 -0.13092394151E+01 -0.23102614649E+02  0.31886000899E+02  0.00000000000E+00 0. -1.
         11    1    3    3    0    0  0.86181859238E+01 -0.14856853148E+02  0.48899610097E+01  0.17858077529E+02  0.51100000000E-03 0. -1.
        -11    1    3    3    0    0  0.10540386668E+02  0.16998588990E+02 -0.28314859633E+01  0.20200720081E+02  0.51100000000E-03 0.  1.
        -12    1    3    3    0    0  0.27793430303E+01 -0.83249642646E+00  0.21044139603E+02  0.21243201491E+02  0.00000000000E+00 0.  1.
</event>
<event>
 7    1  0.4237994E-013  0.5930196E+02  0.7816164E-02  0.1266605E+00
        -11   -1    0    0    0    0  0.00000000000E+00  0.00000000000E+00  0.45593999997E+02  0.45594000000E+02  0.51100000000E-03 0.  1.
         11   -1    0    0    0    0 -0.00000000000E+00 -0.00000000000E+00 -0.45593999997E+02  0.45594000000E+02  0.51100000000E-03 0. -1.
    9900012    2    1    2    0    0  0.11232236186E+02  0.14108872587E+02  0.26296312408E+02  0.59301961336E+02  0.50000031566E+02 0.  0.
         12    1    1    2    0    0 -0.11232236186E+02 -0.14108872587E+02 -0.26296312408E+02  0.31886038664E+02  0.00000000000E+00 0. -1.
         11    1    3    3    0    0  0.16745120752E+02  0.11385166631E+02 -0.40820178788E+01  0.20656329743E+02  0.51100000000E-03 0. -1.
        -11    1    3    3    0    0 -0.12238384178E+02  0.38008656696E+01  0.76636287216E+01  0.14931705615E+02  0.51100000000E-03 0.  1.
         12    1    3    3    0    0  0.67254996128E+01 -0.10771597137E+01  0.22714701565E+02  0.23713925978E+02  0.00000000000E+00 0. -1.
</event>
<event>
 7    1  0.4237994E-013  0.5930192E+02  0.7816164E-02  0.1266605E+00
        -11   -1    0    0    0    0  0.00000000000E+00  0.00000000000E+00  0.45593999997E+02  0.45594000000E+02  0.51100000000E-03 0. -1.
         11   -1    0    0    0    0 -0.00000000000E+00 -0.00000000000E+00 -0.45593999997E+02  0.45594000000E+02  0.51100000000E-03 0.  1.
    9900012    2    1    2    0    0 -0.12400442062E+01  0.22864831129E+02 -0.22189723259E+02  0.59301921055E+02  0.49999958103E+02 0.  0.
         12    1    1    2    0    0  0.12400442062E+01 -0.22864831129E+02  0.22189723259E+02  0.31886078945E+02  0.00000000000E+00 0. -1.
         11    1    3    3    0    0 -0.17013967843E+02  0.77082523322E+01 -0.25867875985E+02  0.31906727567E+02  0.51100000000E-03 0. -1.
        -11    1    3    3    0    0  0.87459287354E+01  0.17532522108E+02  0.38815478820E+01  0.19973658031E+02  0.51100000000E-03 0.  1.
         12    1    3    3    0    0  0.70279949012E+01 -0.23759433117E+01 -0.20339515523E+00  0.74215354571E+01  0.00000000000E+00 0. -1.
</event>
<event>
 7    1  0.4237994E-013  0.5930194E+02  0.7816164E-02  0.1266605E+00
        -11   -1    0    0    0    0  0.00000000000E+00  0.00000000000E+00  0.45593999997E+02  0.45594000000E+02  0.51100000000E-03 0. -1.
         11   -1    0    0    0    0 -0.00000000000E+00 -0.00000000000E+00 -0.45593999997E+02  0.45594000000E+02  0.51100000000E-03 0.  1.
    9900012    2    1    2    0    0 -0.16582700047E+00 -0.23509138044E+02 -0.21540980951E+02  0.59301938304E+02  0.49999989560E+02 0.  0.
         12    1    1    2    0    0  0.16582700047E+00  0.23509138044E+02  0.21540980951E+02  0.31886061696E+02  0.00000000000E+00 0. -1.
         11    1    3    3    0    0 -0.73696799904E+01 -0.13258763831E+01 -0.25651422614E+02  0.26722006169E+02  0.51100000000E-03 0. -1.
        -11    1    3    3    0    0  0.85358073622E+01 -0.19895421276E+02 -0.57258696424E+01  0.22393601285E+02  0.51100000000E-03 0.  1.
         12    1    3    3    0    0 -0.13319543724E+01 -0.22878403847E+01  0.98363113051E+01  0.10186330849E+02  0.00000000000E+00 0. -1.
</event>
<event>
 7    1  0.4237994E-013  0.5930193E+02  0.7816164E-02  0.1266605E+00
        -11   -1    0    0    0    0  0.00000000000E+00  0.00000000000E+00  0.45593999997E+02  0.45594000000E+02  0.51100000000E-03 0.  1.
         11   -1    0    0    0    0 -0.00000000000E+00 -0.00000000000E+00 -0.45593999997E+02  0.45594000000E+02  0.51100000000E-03 0. -1.
    9900012    2    1    2    0    0 -0.32603218760E+01 -0.99985720708E+01  0.30101833403E+02  0.59301929116E+02  0.49999972805E+02 0.  0.
         12    1    1    2    0    0  0.32603218760E+01  0.99985720708E+01 -0.30101833403E+02  0.31886070884E+02  0.00000000000E+00 0. -1.
         11    1    3    3    0    0  0.83874715663E+01  0.20123849594E+01  0.25346509322E+02  0.26773959505E+02  0.51100000000E-03 0. -1.
        -11    1    3    3    0    0 -0.15157486796E+02 -0.52631562365E+01  0.13478022462E+02  0.20954887480E+02  0.51100000000E-03 0.  1.
         12    1    3    3    0    0  0.35096933539E+01 -0.67478007936E+01 -0.87226983807E+01  0.11573082132E+02  0.00000000000E+00 0. -1.
</event>
<event>
 7    1  0.4237994E-013  0.5930194E+02  0.7816164E-02  0.1266605E+00
        -11   -1    0    0    0    0  0.00000000000E+00  0.00000000000E+00  0.45593999997E+02  0.45594000000E+02  0.51100000000E-03 0. -1.
         11   -1    0    0    0    0 -0.00000000000E+00 -0.00000000000E+00 -0.45593999997E+02  0.45594000000E+02  0.51100000000E-03 0.  1.
    9900012    2    1    2    0    0 -0.13206753404E+01  0.19345611495E+02 -0.25312522597E+02  0.59301942425E+02  0.49999997077E+02 0.  0.
         12    1    1    2    0    0  0.13206753404E+01 -0.19345611495E+02  0.25312522597E+02  0.31886057575E+02  0.00000000000E+00 0. -1.
         11    1    3    3    0    0  0.17440424404E+02  0.16805469264E+02 -0.14439928700E+02  0.28197583969E+02  0.51100000000E-03 0. -1.
        -11    1    3    3    0    0 -0.90569724296E+00 -0.81104106020E+01 -0.46967541481E+01  0.94158667906E+01  0.51100000000E-03 0.  1.
         12    1    3    3    0    0 -0.17855402501E+02  0.10650552833E+02 -0.61758397481E+01  0.21688491665E+02  0.00000000000E+00 0. -1.
</event>
<event>
 7    1  0.4237994E-013  0.5930192E+02  0.7816164E-02  0.1266605E+00
        -11   -1    0    0    0    0  0.00000000000E+00  0.00000000000E+00  0.45593999997E+02  0.45594000000E+02  0.51100000000E-03 0.  1.
         11   -1    0    0    0    0 -0.00000000000E+00 -0.00000000000E+00 -0.45593999997E+02  0.45594000000E+02  0.51100000000E-03 0. -1.
    9900012    2    1    2    0    0 -0.13803484232E+02  0.11684311428E+02  0.26261432158E+02  0.59301919503E+02  0.49999955273E+02 0.  0.
         12    1    1    2    0    0  0.13803484232E+02 -0.11684311428E+02 -0.26261432158E+02  0.31886080497E+02  0.00000000000E+00 0. -1.
         11    1    3    3    0    0  0.72293356839E+01 -0.10454761869E+02  0.13709313482E+02  0.18695203036E+02  0.51100000000E-03 0. -1.
        -11    1    3    3    0    0 -0.22326227828E+02  0.26043023120E+02  0.12451030352E+02  0.36492843948E+02  0.51100000000E-03 0.  1.
        -12    1    3    3    0    0  0.12934079122E+01 -0.39039498241E+01  0.10108832420E+00  0.41138725194E+01  0.00000000000E+00 0.  1.
</event>
<event>
 7    1  0.4237994E-013  0.5930197E+02  0.7816164E-02  0.1266605E+00
        -11   -1    0    0    0    0  0.00000000000E+00  0.00000000000E+00  0.45593999997E+02  0.45594000000E+02  0.51100000000E-03 0.  1.
         11   -1    0    0    0    0 -0.00000000000E+00 -0.00000000000E+00 -0.45593999997E+02  0.45594000000E+02  0.51100000000E-03 0. -1.
    9900012    2    1    2    0    0  0.55345503263E+01  0.30856833789E+02 -0.58261259251E+01  0.59301965720E+02  0.50000039562E+02 0.  0.
         12    1    1    2    0    0 -0.55345503263E+01 -0.30856833789E+02  0.58261259251E+01  0.31886034280E+02  0.00000000000E+00 0. -1.
         11    1    3    3    0    0  0.80507021656E+01  0.33534839768E+02  0.14264786238E+01  0.34517156968E+02  0.51100000000E-03 0. -1.
        -11    1    3    3    0    0 -0.40114145401E+01 -0.28551153869E+01 -0.15571159903E+02  0.16331079311E+02  0.51100000000E-03 0.  1.
        -12    1    3    3    0    0  0.14952627008E+01  0.17710940813E+00  0.83185553539E+01  0.84537294410E+01  0.00000000000E+00 0.  1.
</event>
<event>
 7    1  0.4237994E-013  0.5930194E+02  0.7816164E-02  0.1266605E+00
        -11   -1    0    0    0    0  0.00000000000E+00  0.00000000000E+00  0.45593999997E+02  0.45594000000E+02  0.51100000000E-03 0.  1.
         11   -1    0    0    0    0 -0.00000000000E+00 -0.00000000000E+00 -0.45593999997E+02  0.45594000000E+02  0.51100000000E-03 0. -1.
    9900012    2    1    2    0    0 -0.12705752692E+02  0.14717180927E+02  0.25272308112E+02  0.59301935282E+02  0.49999984050E+02 0.  0.
         12    1    1    2    0    0  0.12705752692E+02 -0.14717180927E+02 -0.25272308112E+02  0.31886064718E+02  0.00000000000E+00 0. -1.
         11    1    3    3    0    0 -0.90374442183E+01  0.20768300963E+02 -0.36568362103E+01  0.22942758644E+02  0.51100000000E-03 0. -1.
        -11    1    3    3    0    0 -0.87928361205E+01  0.18164201760E+01  0.24269849474E+02  0.25877382847E+02  0.51100000000E-03 0.  1.
         12    1    3    3    0    0  0.51245276467E+01 -0.78675402117E+01  0.46592948485E+01  0.10481793791E+02  0.00000000000E+00 0. -1.
</event>
<event>
 7    1  0.4237994E-013  0.5930193E+02  0.7816164E-02  0.1266605E+00
        -11   -1    0    0    0    0  0.00000000000E+00  0.00000000000E+00  0.45593999997E+02  0.45594000000E+02  0.51100000000E-03 0. -1.
         11   -1    0    0    0    0 -0.00000000000E+00 -0.00000000000E+00 -0.45593999997E+02  0.45594000000E+02  0.51100000000E-03 0.  1.
    9900012    2    1    2    0    0 -0.40756969960E+01  0.15970459159E+02 -0.27295685725E+02  0.59301932025E+02  0.49999978109E+02 0.  0.
         12    1    1    2    0    0  0.40756969960E+01 -0.15970459159E+02  0.27295685725E+02  0.31886067975E+02  0.00000000000E+00 0. -1.
         11    1    3    3    0    0 -0.10213285330E+02  0.79363682911E+01 -0.52381295965E+00  0.12944941837E+02  0.51100000000E-03 0. -1.
        -11    1    3    3    0    0  0.65536133782E+01 -0.46415443407E+01 -0.31736961728E+02  0.32737265038E+02  0.51100000000E-03 0.  1.
        -12    1    3    3    0    0 -0.41602504463E+00  0.12675635208E+02  0.49650889625E+01  0.13619725150E+02  0.00000000000E+00 0.  1.
</event>
<event>
 7    1  0.4237994E-013  0.5930195E+02  0.7816164E-02  0.1266605E+00
        -11   -1    0    0    0    0  0.00000000000E+00  0.00000000000E+00  0.45593999997E+02  0.45594000000E+02  0.51100000000E-03 0.  1.
         11   -1    0    0    0    0 -0.00000000000E+00 -0.00000000000E+00 -0.45593999997E+02  0.45594000000E+02  0.51100000000E-03 0. -1.
    9900012    2    1    2    0    0 -0.27025430575E+02 -0.10888965667E+02  0.12952870530E+02  0.59301947782E+02  0.50000006847E+02 0.  0.
         12    1    1    2    0    0  0.27025430575E+02  0.10888965667E+02 -0.12952870530E+02  0.31886052218E+02  0.00000000000E+00 0. -1.
         11    1    3    3    0    0  0.98527737610E+01  0.80368953804E+01  0.19219452549E+01  0.12859343372E+02  0.51100000000E-03 0. -1.
        -11    1    3    3    0    0 -0.24419784074E+02 -0.46282599607E+01  0.73825615800E+00  0.24865471379E+02  0.51100000000E-03 0.  1.
        -12    1    3    3    0    0 -0.12458420262E+02 -0.14297601087E+02  0.10292669117E+02  0.21577133031E+02  0.00000000000E+00 0.  1.
</event>
<event>
 7    1  0.4237994E-013  0.5930195E+02  0.7816164E-02  0.1266605E+00
        -11   -1    0    0    0    0  0.00000000000E+00  0.00000000000E+00  0.45593999997E+02  0.45594000000E+02  0.51100000000E-03 0.  1.
         11   -1    0    0    0    0 -0.00000000000E+00 -0.00000000000E+00 -0.45593999997E+02  0.45594000000E+02  0.51100000000E-03 0. -1.
    9900012    2    1    2    0    0  0.23507526243E+02  0.59789609872E+01  0.20697060085E+02  0.59301951943E+02  0.50000014435E+02 0.  0.
         12    1    1    2    0    0 -0.23507526243E+02 -0.59789609872E+01 -0.20697060085E+02  0.31886048057E+02  0.00000000000E+00 0. -1.
         11    1    3    3    0    0  0.22168790038E+00 -0.54146137222E+01 -0.12951076253E+02  0.14039143979E+02  0.51100000000E-03 0. -1.
        -11    1    3    3    0    0  0.10886004163E+02 -0.29358815676E+01  0.11313889114E+02  0.15972744735E+02  0.51100000000E-03 0.  1.
         12    1    3    3    0    0  0.12399834179E+02  0.14329456277E+02  0.22334247225E+02  0.29290063229E+02  0.00000000000E+00 0. -1.
</event>
<event>
 7    1  0.4237994E-013  0.5930194E+02  0.7816164E-02  0.1266605E+00
        -11   -1    0    0    0    0  0.00000000000E+00  0.00000000000E+00  0.45593999997E+02  0.45594000000E+02  0.51100000000E-03 0. -1.
         11   -1    0    0    0    0 -0.00000000000E+00 -0.00000000000E+00 -0.45593999997E+02  0.45594000000E+02  0.51100000000E-03 0.  1.
    9900012    2    1    2    0    0 -0.13700318892E+01 -0.37139297911E+01 -0.31639383958E+02  0.59301939110E+02  0.49999991031E+02 0.  0.
         12    1    1    2    0    0  0.13700318892E+01  0.37139297911E+01  0.31639383958E+02  0.31886060890E+02  0.00000000000E+00 0. -1.
         11    1    3    3    0    0  0.93086343486E+01  0.54811587626E+00 -0.18393054214E+01  0.95044278704E+01  0.51100000000E-03 0. -1.
        -11    1    3    3    0    0 -0.24010973125E+02 -0.83659991051E+01 -0.15291579201E+02  0.29670678559E+02  0.51100000000E-03 0.  1.
        -12    1    3    3    0    0  0.13332306888E+02  0.41039534377E+01 -0.14508499336E+02  0.20126832680E+02  0.00000000000E+00 0.  1.
</event>
<event>
 7    1  0.4237994E-013  0.5930160E+02  0.7816164E-02  0.1266606E+00
        -11   -1    0    0    0    0  0.00000000000E+00  0.00000000000E+00  0.45593999997E+02  0.45594000000E+02  0.51100000000E-03 0.  1.
         11   -1    0    0    0    0 -0.00000000000E+00 -0.00000000000E+00 -0.45593999997E+02  0.45594000000E+02  0.51100000000E-03 0. -1.
    9900012    2    1    2    0    0 -0.25377629261E+02 -0.16812671163E+02  0.94895931101E+01  0.59301602337E+02  0.49999376835E+02 0.  0.
         12    1    1    2    0    0  0.25377629261E+02  0.16812671163E+02 -0.94895931101E+01  0.31886397663E+02  0.00000000000E+00 0. -1.
         11    1    3    3    0    0  0.52869031619E+01  0.12732985065E+02  0.73753542210E+01  0.15635731638E+02  0.51100000000E-03 0. -1.
        -11    1    3    3    0    0 -0.17095754943E+02 -0.99523127359E+01  0.93080288269E+00  0.19803528982E+02  0.51100000000E-03 0.  1.
         12    1    3    3    0    0 -0.13568777479E+02 -0.19593343492E+02  0.11834360064E+01  0.23862341718E+02  0.00000000000E+00 0. -1.
</event>
<event>
 7    1  0.4237994E-013  0.5930193E+02  0.7816164E-02  0.1266605E+00
        -11   -1    0    0    0    0  0.00000000000E+00  0.00000000000E+00  0.45593999997E+02  0.45594000000E+02  0.51100000000E-03 0.  1.
         11   -1    0    0    0    0 -0.00000000000E+00 -0.00000000000E+00 -0.45593999997E+02  0.45594000000E+02  0.51100000000E-03 0. -1.
    9900012    2    1    2    0    0 -0.79368099553E+01 -0.17065803657E+02  0.25738826050E+02  0.59301925090E+02  0.49999965462E+02 0.  0.
         12    1    1    2    0    0  0.79368099553E+01  0.17065803657E+02 -0.25738826050E+02  0.31886074910E+02  0.00000000000E+00 0. -1.
         11    1    3    3    0    0 -0.17131075970E+02 -0.26751693282E+02  0.25988136646E+02  0.41042783823E+02  0.51100000000E-03 0. -1.
        -11    1    3    3    0    0 -0.30414553019E+01  0.17018954558E+01  0.91290918291E+00  0.36028186096E+01  0.51100000000E-03 0.  1.
         12    1    3    3    0    0  0.12235721316E+02  0.79839941692E+01 -0.11622197791E+01  0.14656322657E+02  0.00000000000E+00 0. -1.
</event>
<event>
 7    1  0.4237994E-013  0.5930198E+02  0.7816164E-02  0.1266605E+00
        -11   -1    0    0    0    0  0.00000000000E+00  0.00000000000E+00  0.45593999997E+02  0.45594000000E+02  0.51100000000E-03 0.  1.
         11   -1    0    0    0    0 -0.00000000000E+00 -0.00000000000E+00 -0.45593999997E+02  0.45594000000E+02  0.51100000000E-03 0. -1.
    9900012    2    1    2    0    0 -0.33803005076E+01 -0.19282527013E+02  0.25168951391E+02  0.59301978084E+02  0.50000062110E+02 0.  0.
         12    1    1    2    0    0  0.33803005076E+01  0.19282527013E+02 -0.25168951391E+02  0.31886021916E+02  0.00000000000E+00 0. -1.
         11    1    3    3    0    0 -0.12988184231E+02  0.68969850337E+00  0.16413360768E+02  0.20941991921E+02  0.51100000000E-03 0.  1.
        -11    1    3    3    0    0  0.15538238861E+02 -0.25077252851E+02  0.74467027036E+01  0.30426285657E+02  0.51100000000E-03 0. -1.
         12    1    3    3    0    0 -0.59303551379E+01  0.51050273339E+01  0.13088879189E+01  0.79337005064E+01  0.00000000000E+00 0. -1.
</event>
<event>
 7    1  0.4237994E-013  0.5930197E+02  0.7816164E-02  0.1266605E+00
        -11   -1    0    0    0    0  0.00000000000E+00  0.00000000000E+00  0.45593999997E+02  0.45594000000E+02  0.51100000000E-03 0.  1.
         11   -1    0    0    0    0 -0.00000000000E+00 -0.00000000000E+00 -0.45593999997E+02  0.45594000000E+02  0.51100000000E-03 0. -1.
    9900012    2    1    2    0    0 -0.25102723146E+02 -0.30620241675E+01  0.19421538109E+02  0.59301971023E+02  0.50000049233E+02 0.  0.
         12    1    1    2    0    0  0.25102723146E+02  0.30620241675E+01 -0.19421538109E+02  0.31886028977E+02  0.00000000000E+00 0. -1.
         11    1    3    3    0    0 -0.38133598425E+01 -0.75817032207E+01 -0.89898471872E+01  0.12362899730E+02  0.51100000000E-03 0. -1.
        -11    1    3    3    0    0 -0.12205465672E+02 -0.75345747442E+01  0.28431995991E+02  0.31845276026E+02  0.51100000000E-03 0.  1.
         12    1    3    3    0    0 -0.90838976317E+01  0.12054253797E+02 -0.20610694197E-01  0.15093795268E+02  0.00000000000E+00 0. -1.
</event>
<event>
 7    1  0.4237994E-013  0.5930195E+02  0.7816164E-02  0.1266605E+00
        -11   -1    0    0    0    0  0.00000000000E+00  0.00000000000E+00  0.45593999997E+02  0.45594000000E+02  0.51100000000E-03 0. -1.
         11   -1    0    0    0    0 -0.00000000000E+00 -0.00000000000E+00 -0.45593999997E+02  0.45594000000E+02  0.51100000000E-03 0.  1.
    9900012    2    1    2    0    0 -0.25009085789E+02 -0.11754325542E+02 -0.15909172204E+02  0.59301948172E+02  0.50000007557E+02 0.  0.
         12    1    1    2    0    0  0.25009085789E+02  0.11754325542E+02  0.15909172204E+02  0.31886051828E+02  0.00000000000E+00 0. -1.
         11    1    3    3    0    0 -0.18476234573E+02 -0.76014818264E+01 -0.59850820775E+01  0.20856053742E+02  0.51100000000E-03 0. -1.
        -11    1    3    3    0    0  0.98213776456E+01 -0.11282250079E+02 -0.13615917660E+02  0.20227254873E+02  0.51100000000E-03 0.  1.
        -12    1    3    3    0    0 -0.16354228862E+02  0.71294063631E+01  0.36918275334E+01  0.18218639557E+02  0.00000000000E+00 0.  1.
</event>
<event>
 7    1  0.4237994E-013  0.5930195E+02  0.7816164E-02  0.1266605E+00
        -11   -1    0    0    0    0  0.00000000000E+00  0.00000000000E+00  0.45593999997E+02  0.45594000000E+02  0.51100000000E-03 0. -1.
         11   -1    0    0    0    0 -0.00000000000E+00 -0.00000000000E+00 -0.45593999997E+02  0.45594000000E+02  0.51100000000E-03 0.  1.
    9900012    2    1    2    0    0  0.24686019414E+02  0.14613851954E+02  0.13919624405E+02  0.59301950276E+02  0.50000011395E+02 0.  0.
         12    1    1    2    0    0 -0.24686019414E+02 -0.14613851954E+02 -0.13919624405E+02  0.31886049724E+02  0.00000000000E+00 0. -1.
         11    1    3    3    0    0  0.23371619854E+02 -0.49443767315E+01  0.78072857186E+01  0.25132313591E+02  0.51100000000E-03 0. -1.
        -11    1    3    3    0    0 -0.45420887566E+00  0.14037151460E+02 -0.98716480092E+01  0.17166751629E+02  0.51100000000E-03 0.  1.
        -12    1    3    3    0    0  0.17686084354E+01  0.55210772253E+01  0.15983986695E+02  0.17002885055E+02  0.00000000000E+00 0.  1.
</event>
<event>
 7    1  0.4237994E-013  0.5930193E+02  0.7816164E-02  0.1266605E+00
        -11   -1    0    0    0    0  0.00000000000E+00  0.00000000000E+00  0.45593999997E+02  0.45594000000E+02  0.51100000000E-03 0. -1.
         11   -1    0    0    0    0 -0.00000000000E+00 -0.00000000000E+00 -0.45593999997E+02  0.45594000000E+02  0.51100000000E-03 0.  1.
    9900012    2    1    2    0    0  0.19126992026E+02 -0.18520372360E+02  0.17546379936E+02  0.59301929919E+02  0.49999974269E+02 0.  0.
         12    1    1    2    0    0 -0.19126992026E+02  0.18520372360E+02 -0.17546379936E+02  0.31886070081E+02  0.00000000000E+00 0. -1.
         11    1    3    3    0    0 -0.14432868972E+00 -0.20592898454E+02  0.21611605361E+02  0.29852131985E+02  0.51100000000E-03 0. -1.
        -11    1    3    3    0    0  0.17954530373E+02  0.59595301619E+01  0.49411961549E+01  0.19552405999E+02  0.51100000000E-03 0.  1.
         12    1    3    3    0    0  0.13167903430E+01 -0.38870040680E+01 -0.90064215799E+01  0.98973919346E+01  0.00000000000E+00 0. -1.
</event>
<event>
 7    1  0.4237994E-013  0.5930191E+02  0.7816164E-02  0.1266605E+00
        -11   -1    0    0    0    0  0.00000000000E+00  0.00000000000E+00  0.45593999997E+02  0.45594000000E+02  0.51100000000E-03 0.  1.
         11   -1    0    0    0    0 -0.00000000000E+00 -0.00000000000E+00 -0.45593999997E+02  0.45594000000E+02  0.51100000000E-03 0. -1.
    9900012    2    1    2    0    0  0.16218269670E+02 -0.25780010760E+02  0.94382924338E+01  0.59301912282E+02  0.49999942104E+02 0.  0.
         12    1    1    2    0    0 -0.16218269670E+02  0.25780010760E+02 -0.94382924338E+01  0.31886087718E+02  0.00000000000E+00 0. -1.
         11    1    3    3    0    0  0.61865642037E+01  0.33589138238E+01 -0.13747162758E+02  0.15444751953E+02  0.51100000000E-03 0. -1.
        -11    1    3    3    0    0  0.15445902433E+02 -0.24503513559E+02  0.13834887634E+02  0.32099878424E+02  0.51100000000E-03 0.  1.
         12    1    3    3    0    0 -0.54141969665E+01 -0.46354110247E+01  0.93505675578E+01  0.11757281906E+02  0.00000000000E+00 0. -1.
</event>
<event>
 7    1  0.4237994E-013  0.5930195E+02  0.7816164E-02  0.1266605E+00
        -11   -1    0    0    0    0  0.00000000000E+00  0.00000000000E+00  0.45593999997E+02  0.45594000000E+02  0.51100000000E-03 0.  1.
         11   -1    0    0    0    0 -0.00000000000E+00 -0.00000000000E+00 -0.45593999997E+02  0.45594000000E+02  0.51100000000E-03 0. -1.
    9900012    2    1    2    0    0  0.18663804743E+02  0.50273307555E+01  0.25359582076E+02  0.59301951874E+02  0.50000014310E+02 0.  0.
         12    1    1    2    0    0 -0.18663804743E+02 -0.50273307555E+01 -0.25359582076E+02  0.31886048126E+02  0.00000000000E+00 0. -1.
         11    1    3    3    0    0  0.63111789559E+01  0.11514869693E+02 -0.10081627087E+02  0.16554830377E+02  0.51100000000E-03 0. -1.
        -11    1    3    3    0    0  0.14270103464E+02  0.23472904333E+01  0.17889270489E+02  0.23003730657E+02  0.51100000000E-03 0.  1.
         12    1    3    3    0    0 -0.19174776765E+01 -0.88348293704E+01  0.17551938673E+02  0.19743390840E+02  0.00000000000E+00 0. -1.
</event>
<event>
 7    1  0.4237994E-013  0.5930194E+02  0.7816164E-02  0.1266605E+00
        -11   -1    0    0    0    0  0.00000000000E+00  0.00000000000E+00  0.45593999997E+02  0.45594000000E+02  0.51100000000E-03 0. -1.
         11   -1    0    0    0    0 -0.00000000000E+00 -0.00000000000E+00 -0.45593999997E+02  0.45594000000E+02  0.51100000000E-03 0.  1.
    9900012    2    1    2    0    0  0.87157371935E+00 -0.30701403605E+02 -0.85665141084E+01  0.59301937401E+02  0.49999987915E+02 0.  0.
         12    1    1    2    0    0 -0.87157371935E+00  0.30701403605E+02  0.85665141084E+01  0.31886062599E+02  0.00000000000E+00 0. -1.
         11    1    3    3    0    0  0.47587543228E+01  0.82610737177E+01  0.79841712902E+01  0.12435355770E+02  0.51100000000E-03 0. -1.
        -11    1    3    3    0    0 -0.44521898739E+01 -0.41165930650E+02 -0.14713158247E+02  0.43942381215E+02  0.51100000000E-03 0.  1.
        -12    1    3    3    0    0  0.56500927049E+00  0.22034533273E+01 -0.18375271515E+01  0.29242004162E+01  0.00000000000E+00 0.  1.
</event>
<event>
 7    1  0.4237994E-013  0.5930194E+02  0.7816164E-02  0.1266605E+00
        -11   -1    0    0    0    0  0.00000000000E+00  0.00000000000E+00  0.45593999997E+02  0.45594000000E+02  0.51100000000E-03 0.  1.
         11   -1    0    0    0    0 -0.00000000000E+00 -0.00000000000E+00 -0.45593999997E+02  0.45594000000E+02  0.51100000000E-03 0. -1.
    9900012    2    1    2    0    0  0.20491277852E+02  0.41709737117E+01  0.24071380673E+02  0.59301939453E+02  0.49999991656E+02 0.  0.
         12    1    1    2    0    0 -0.20491277852E+02 -0.41709737117E+01 -0.24071380673E+02  0.31886060547E+02  0.00000000000E+00 0. -1.
         11    1    3    3    0    0  0.16223048068E+02  0.56386522245E+01 -0.34855853504E+01  0.17525153153E+02  0.51100000000E-03 0. -1.
        -11    1    3    3    0    0  0.69005619885E+01 -0.14197256925E+02  0.23212041324E+02  0.28070958705E+02  0.51100000000E-03 0.  1.
        -12    1    3    3    0    0 -0.26323322047E+01  0.12729578413E+02  0.43449247000E+01  0.13705827594E+02  0.00000000000E+00 0.  1.
</event>
<event>
 7    1  0.4237994E-013  0.5930194E+02  0.7816164E-02  0.1266605E+00
        -11   -1    0    0    0    0  0.00000000000E+00  0.00000000000E+00  0.45593999997E+02  0.45594000000E+02  0.51100000000E-03 0. -1.
         11   -1    0    0    0    0 -0.00000000000E+00 -0.00000000000E+00 -0.45593999997E+02  0.45594000000E+02  0.51100000000E-03 0.  1.
    9900012    2    1    2    0    0  0.86801597444E+01 -0.29011854879E+02 -0.99843992862E+01  0.59301935241E+02  0.49999983975E+02 0.  0.
         12    1    1    2    0    0 -0.86801597444E+01  0.29011854879E+02  0.99843992862E+01  0.31886064759E+02  0.00000000000E+00 0. -1.
         11    1    3    3    0    0  0.23570201033E+02 -0.23161700478E+02 -0.15068985738E+02  0.36319320990E+02  0.51100000000E-03 0.  1.
        -11    1    3    3    0    0 -0.67975424569E+01  0.47507493749E+01  0.49243054789E+01  0.96449462304E+01  0.51100000000E-03 0. -1.
        -12    1    3    3    0    0 -0.80924988319E+01 -0.10600903776E+02  0.16028097314E+00  0.13337668020E+02  0.00000000000E+00 0.  1.
</event>
<event>
 7    1  0.4237994E-013  0.5930197E+02  0.7816164E-02  0.1266605E+00
        -11   -1    0    0    0    0  0.00000000000E+00  0.00000000000E+00  0.45593999997E+02  0.45594000000E+02  0.51100000000E-03 0.  1.
         11   -1    0    0    0    0 -0.00000000000E+00 -0.00000000000E+00 -0.45593999997E+02  0.45594000000E+02  0.51100000000E-03 0. -1.
    9900012    2    1    2    0    0 -0.50887405702E+01 -0.27212614098E+02  0.15820784279E+02  0.59301970742E+02  0.50000048721E+02 0.  0.
         12    1    1    2    0    0  0.50887405702E+01  0.27212614098E+02 -0.15820784279E+02  0.31886029258E+02  0.00000000000E+00 0. -1.
         11    1    3    3    0    0 -0.16916881374E+02 -0.40739792212E+01  0.10172400085E+02  0.20155790877E+02  0.51100000000E-03 0. -1.
        -11    1    3    3    0    0  0.56411041289E+01 -0.95560358727E+01 -0.11791215136E+02  0.16191745799E+02  0.51100000000E-03 0.  1.
        -12    1    3    3    0    0  0.61870366751E+01 -0.13582599004E+02  0.17439599330E+02  0.22954434066E+02  0.00000000000E+00 0.  1.
</event>
<event>
 7    1  0.4237994E-013  0.5930196E+02  0.7816164E-02  0.1266605E+00
        -11   -1    0    0    0    0  0.00000000000E+00  0.00000000000E+00  0.45593999997E+02  0.45594000000E+02  0.51100000000E-03 0. -1.
         11   -1    0    0    0    0 -0.00000000000E+00 -0.00000000000E+00 -0.45593999997E+02  0.45594000000E+02  0.51100000000E-03 0.  1.
    9900012    2    1    2    0    0  0.15862516445E+02  0.20074138061E+02 -0.19029690633E+02  0.59301959599E+02  0.50000028398E+02 0.  0.
         12    1    1    2    0    0 -0.15862516445E+02 -0.20074138061E+02  0.19029690633E+02  0.31886040401E+02  0.00000000000E+00 0. -1.
         11    1    3    3    0    0  0.98905310429E+01  0.17766644175E+02 -0.19590621017E+02  0.28235946622E+02  0.51100000000E-03 0. -1.
        -11    1    3    3    0    0 -0.47564437467E+01 -0.12152526795E+02  0.52257414380E+00  0.13060656516E+02  0.51100000000E-03 0.  1.
         12    1    3    3    0    0  0.10728429148E+02  0.14460020681E+02  0.38356239752E-01  0.18005356461E+02  0.00000000000E+00 0. -1.
</event>
<event>
 7    1  0.4237994E-013  0.5930194E+02  0.7816164E-02  0.1266605E+00
        -11   -1    0    0    0    0  0.00000000000E+00  0.00000000000E+00  0.45593999997E+02  0.45594000000E+02  0.51100000000E-03 0. -1.
         11   -1    0    0    0    0 -0.00000000000E+00 -0.00000000000E+00 -0.45593999997E+02  0.45594000000E+02  0.51100000000E-03 0.  1.
    9900012    2    1    2    0    0  0.46576098098E+01  0.20468737325E+01 -0.31477576505E+02  0.59301939663E+02  0.49999992039E+02 0.  0.
         12    1    1    2    0    0 -0.46576098098E+01 -0.20468737325E+01  0.31477576505E+02  0.31886060337E+02  0.00000000000E+00 0. -1.
         11    1    3    3    0    0  0.15211063297E+01  0.40476037652E+01 -0.21662184517E+01  0.48362550954E+01  0.51100000000E-03 0. -1.
        -11    1    3    3    0    0 -0.17366854207E+02 -0.11476004172E+02 -0.22984120272E+02  0.31009290249E+02  0.51100000000E-03 0.  1.
        -12    1    3    3    0    0  0.20503357687E+02  0.94752741393E+01 -0.63272377810E+01  0.23456394318E+02  0.00000000000E+00 0.  1.
</event>
<event>
 7    1  0.4237994E-013  0.5930192E+02  0.7816164E-02  0.1266605E+00
        -11   -1    0    0    0    0  0.00000000000E+00  0.00000000000E+00  0.45593999997E+02  0.45594000000E+02  0.51100000000E-03 0. -1.
         11   -1    0    0    0    0 -0.00000000000E+00 -0.00000000000E+00 -0.45593999997E+02  0.45594000000E+02  0.51100000000E-03 0.  1.
    9900012    2    1    2    0    0  0.19759997313E+02  0.24890761332E+02 -0.25912141645E+01  0.59301923346E+02  0.49999962282E+02 0.  0.
         12    1    1    2    0    0 -0.19759997313E+02 -0.24890761332E+02  0.25912141645E+01  0.31886076654E+02  0.00000000000E+00 0. -1.
         11    1    3    3    0    0 -0.10253184701E+02 -0.24359831762E+01  0.95549846103E+01  0.14225313414E+02  0.51100000000E-03 0. -1.
        -11    1    3    3    0    0  0.23810944987E+02  0.26637493410E+02 -0.14287245971E+02  0.38479118415E+02  0.51100000000E-03 0.  1.
         12    1    3    3    0    0  0.62022370282E+01  0.68925109863E+00  0.21410471962E+01  0.65974915178E+01  0.00000000000E+00 0. -1.
</event>
<event>
 7    1  0.4237994E-013  0.5930162E+02  0.7816164E-02  0.1266606E+00
        -11   -1    0    0    0    0  0.00000000000E+00  0.00000000000E+00  0.45593999997E+02  0.45594000000E+02  0.51100000000E-03 0. -1.
         11   -1    0    0    0    0 -0.00000000000E+00 -0.00000000000E+00 -0.45593999997E+02  0.45594000000E+02  0.51100000000E-03 0.  1.
    9900012    2    1    2    0    0  0.49000345835E+01  0.39043322645E+01 -0.31264786924E+02  0.59301622803E+02  0.49999414161E+02 0.  0.
         12    1    1    2    0    0 -0.49000345835E+01 -0.39043322645E+01  0.31264786924E+02  0.31886377197E+02  0.00000000000E+00 0. -1.
         11    1    3    3    0    0  0.17970104147E+02  0.19508166396E+02 -0.76935320624E+01  0.27616727450E+02  0.51100000000E-03 0. -1.
        -11    1    3    3    0    0 -0.70880409051E+01 -0.92071532505E+01 -0.17582877399E+02  0.21075330905E+02  0.51100000000E-03 0.  1.
         12    1    3    3    0    0 -0.59820286581E+01 -0.63966808814E+01 -0.59883774617E+01  0.10609564449E+02  0.00000000000E+00 0. -1.
</event>
<event>
 7    1  0.4237994E-013  0.5930195E+02  0.7816164E-02  0.1266605E+00
        -11   -1    0    0    0    0  0.00000000000E+00  0.00000000000E+00  0.45593999997E+02  0.45594000000E+02  0.51100000000E-03 0. -1.
         11   -1    0    0    0    0 -0.00000000000E+00 -0.00000000000E+00 -0.45593999997E+02  0.45594000000E+02  0.51100000000E-03 0.  1.
    9900012    2    1    2    0    0 -0.71929490174E+01 -0.27641152551E+02  0.14175635434E+02  0.59301945526E+02  0.50000002733E+02 0.  0.
         12    1    1    2    0    0  0.71929490174E+01  0.27641152551E+02 -0.14175635434E+02  0.31886054474E+02  0.00000000000E+00 0. -1.
         11    1    3    3    0    0  0.34380263038E+00 -0.10450896043E+02  0.13359408325E+02  0.16965058779E+02  0.51100000000E-03 0. -1.
        -11    1    3    3    0    0 -0.40685498020E+01  0.87875669834E+00 -0.16532621747E+02  0.17048545185E+02  0.51100000000E-03 0.  1.
        -12    1    3    3    0    0 -0.34682018458E+01 -0.18069013207E+02  0.17348848857E+02  0.25288341562E+02  0.00000000000E+00 0.  1.
</event>
<event>
 7    1  0.4237994E-013  0.5930195E+02  0.7816164E-02  0.1266605E+00
        -11   -1    0    0    0    0  0.00000000000E+00  0.00000000000E+00  0.45593999997E+02  0.45594000000E+02  0.51100000000E-03 0.  1.
         11   -1    0    0    0    0 -0.00000000000E+00 -0.00000000000E+00 -0.45593999997E+02  0.45594000000E+02  0.51100000000E-03 0. -1.
    9900012    2    1    2    0    0 -0.43522376275E+00  0.31308777193E+02  0.60242412256E+01  0.59301946131E+02  0.50000003835E+02 0.  0.
         12    1    1    2    0    0  0.43522376275E+00 -0.31308777193E+02 -0.60242412256E+01  0.31886053869E+02  0.00000000000E+00 0. -1.
         11    1    3    3    0    0  0.20917985823E+02  0.65669881822E+01  0.80115883542E+01  0.23342515137E+02  0.51100000000E-03 0. -1.
        -11    1    3    3    0    0 -0.15529127991E+01  0.12286837590E+02 -0.21342811871E+01  0.12567142577E+02  0.51100000000E-03 0.  1.
         12    1    3    3    0    0 -0.19800296787E+02  0.12454951421E+02  0.14693405845E+00  0.23392288416E+02  0.00000000000E+00 0. -1.
</event>
<event>
 7    1  0.4237994E-013  0.5930203E+02  0.7816164E-02  0.1266604E+00
        -11   -1    0    0    0    0  0.00000000000E+00  0.00000000000E+00  0.45593999997E+02  0.45594000000E+02  0.51100000000E-03 0.  1.
         11   -1    0    0    0    0 -0.00000000000E+00 -0.00000000000E+00 -0.45593999997E+02  0.45594000000E+02  0.51100000000E-03 0. -1.
    9900012    2    1    2    0    0  0.28181696674E+02  0.12801681029E+02 -0.76566322538E+01  0.59302030012E+02  0.50000156814E+02 0.  0.
         12    1    1    2    0    0 -0.28181696674E+02 -0.12801681029E+02  0.76566322538E+01  0.31885969988E+02  0.00000000000E+00 0. -1.
         11    1    3    3    0    0 -0.14296442528E+01 -0.14077771366E+01 -0.46052536020E+01  0.50233534771E+01  0.51100000000E-03 0. -1.
        -11    1    3    3    0    0  0.27034919986E+02 -0.41971348682E+01  0.12467421527E+02  0.30065585635E+02  0.51100000000E-03 0.  1.
        -12    1    3    3    0    0  0.25764209408E+01  0.18406593033E+02 -0.15518800178E+02  0.24213090900E+02  0.00000000000E+00 0.  1.
</event>
<event>
 7    1  0.4237994E-013  0.5930198E+02  0.7816164E-02  0.1266605E+00
        -11   -1    0    0    0    0  0.00000000000E+00  0.00000000000E+00  0.45593999997E+02  0.45594000000E+02  0.51100000000E-03 0. -1.
         11   -1    0    0    0    0 -0.00000000000E+00 -0.00000000000E+00 -0.45593999997E+02  0.45594000000E+02  0.51100000000E-03 0.  1.
    9900012    2    1    2    0    0 -0.11248435118E+02 -0.19008973763E+02 -0.22996730128E+02  0.59301984685E+02  0.50000074148E+02 0.  0.
         12    1    1    2    0    0  0.11248435118E+02  0.19008973763E+02  0.22996730128E+02  0.31886015315E+02  0.00000000000E+00 0. -1.
         11    1    3    3    0    0 -0.34875703108E+01 -0.10411761997E+02 -0.19158214309E+01  0.11146223870E+02  0.51100000000E-03 0. -1.
        -11    1    3    3    0    0  0.36786118712E+01  0.58851485094E+01  0.99024373811E+01  0.12092370513E+02  0.51100000000E-03 0.  1.
        -12    1    3    3    0    0 -0.11439476678E+02 -0.14482360276E+02 -0.30983346078E+02  0.36063390301E+02  0.00000000000E+00 0.  1.
</event>
<event>
 7    1  0.4237994E-013  0.5930200E+02  0.7816164E-02  0.1266605E+00
        -11   -1    0    0    0    0  0.00000000000E+00  0.00000000000E+00  0.45593999997E+02  0.45594000000E+02  0.51100000000E-03 0. -1.
         11   -1    0    0    0    0 -0.00000000000E+00 -0.00000000000E+00 -0.45593999997E+02  0.45594000000E+02  0.51100000000E-03 0.  1.
    9900012    2    1    2    0    0  0.23493601344E+02  0.17934515592E+02  0.11963307033E+02  0.59302001995E+02  0.50000105719E+02 0.  0.
         12    1    1    2    0    0 -0.23493601344E+02 -0.17934515592E+02 -0.11963307033E+02  0.31885998005E+02  0.00000000000E+00 0. -1.
         11    1    3    3    0    0  0.16690408713E+02  0.18679931978E+02  0.19880967848E+02  0.31980657975E+02  0.51100000000E-03 0. -1.
        -11    1    3    3    0    0  0.13889169914E+02  0.36765083016E+01 -0.11331283781E+02  0.18298189708E+02  0.51100000000E-03 0.  1.
        -12    1    3    3    0    0 -0.70859772825E+01 -0.44219246879E+01  0.34136229662E+01  0.90231543126E+01  0.00000000000E+00 0.  1.
</event>
<event>
 7    1  0.4237994E-013  0.5930195E+02  0.7816164E-02  0.1266605E+00
        -11   -1    0    0    0    0  0.00000000000E+00  0.00000000000E+00  0.45593999997E+02  0.45594000000E+02  0.51100000000E-03 0. -1.
         11   -1    0    0    0    0 -0.00000000000E+00 -0.00000000000E+00 -0.45593999997E+02  0.45594000000E+02  0.51100000000E-03 0.  1.
    9900012    2    1    2    0    0  0.45657760038E+01  0.15470248792E+02 -0.27505373884E+02  0.59301945043E+02  0.50000001852E+02 0.  0.
         12    1    1    2    0    0 -0.45657760038E+01 -0.15470248792E+02  0.27505373884E+02  0.31886054957E+02  0.00000000000E+00 0. -1.
         11    1    3    3    0    0  0.14358608911E+02  0.94660047144E+01  0.41739036192E+00  0.17203171512E+02  0.51100000000E-03 0. -1.
        -11    1    3    3    0    0 -0.17325303478E+02  0.11923536713E+02 -0.23530749873E+02  0.31559991416E+02  0.51100000000E-03 0.  1.
        -12    1    3    3    0    0  0.75324705710E+01 -0.59192926350E+01 -0.43920143728E+01  0.10538782114E+02  0.00000000000E+00 0.  1.
</event>
<event>
 7    1  0.4237994E-013  0.5930195E+02  0.7816164E-02  0.1266605E+00
        -11   -1    0    0    0    0  0.00000000000E+00  0.00000000000E+00  0.45593999997E+02  0.45594000000E+02  0.51100000000E-03 0. -1.
         11   -1    0    0    0    0 -0.00000000000E+00 -0.00000000000E+00 -0.45593999997E+02  0.45594000000E+02  0.51100000000E-03 0.  1.
    9900012    2    1    2    0    0 -0.27388139498E+02 -0.10968168633E+02 -0.12095846088E+02  0.59301946608E+02  0.50000004706E+02 0.  0.
         12    1    1    2    0    0  0.27388139498E+02  0.10968168633E+02  0.12095846088E+02  0.31886053392E+02  0.00000000000E+00 0. -1.
         11    1    3    3    0    0  0.66821220519E+01  0.86401524555E+01 -0.11250666201E+02  0.15680576514E+02  0.51100000000E-03 0. -1.
        -11    1    3    3    0    0 -0.15111833221E+02 -0.62983804096E+01 -0.94585172394E+01  0.18907687529E+02  0.51100000000E-03 0.  1.
         12    1    3    3    0    0 -0.18958428329E+02 -0.13309940678E+02  0.86133373524E+01  0.24713682565E+02  0.00000000000E+00 0. -1.
</event>
<event>
 7    1  0.4237994E-013  0.5930189E+02  0.7816164E-02  0.1266605E+00
        -11   -1    0    0    0    0  0.00000000000E+00  0.00000000000E+00  0.45593999997E+02  0.45594000000E+02  0.51100000000E-03 0. -1.
         11   -1    0    0    0    0 -0.00000000000E+00 -0.00000000000E+00 -0.45593999997E+02  0.45594000000E+02  0.51100000000E-03 0.  1.
    9900012    2    1    2    0    0 -0.27458867127E+02 -0.92080607837E+01 -0.13339638755E+02  0.59301894415E+02  0.49999909517E+02 0.  0.
         12    1    1    2    0    0  0.27458867127E+02  0.92080607837E+01  0.13339638755E+02  0.31886105585E+02  0.00000000000E+00 0. -1.
         11    1    3    3    0    0 -0.11421942428E+02  0.48245759527E+01 -0.19339359676E+02  0.22972769421E+02  0.51100000000E-03 0.  1.
        -11    1    3    3    0    0  0.60075029291E+01 -0.12171618787E+02  0.76264624650E+00  0.13594852883E+02  0.51100000000E-03 0. -1.
        -12    1    3    3    0    0 -0.22044427628E+02 -0.18610179491E+01  0.52370746741E+01  0.22734272111E+02  0.00000000000E+00 0.  1.
</event>
<event>
 7    1  0.4237994E-013  0.5930194E+02  0.7816164E-02  0.1266605E+00
        -11   -1    0    0    0    0  0.00000000000E+00  0.00000000000E+00  0.45593999997E+02  0.45594000000E+02  0.51100000000E-03 0. -1.
         11   -1    0    0    0    0 -0.00000000000E+00 -0.00000000000E+00 -0.45593999997E+02  0.45594000000E+02  0.51100000000E-03 0.  1.
    9900012    2    1    2    0    0 -0.21770129393E+01 -0.70550170970E+01 -0.31019481983E+02  0.59301938561E+02  0.49999990030E+02 0.  0.
         12    1    1    2    0    0  0.21770129393E+01  0.70550170970E+01  0.31019481983E+02  0.31886061439E+02  0.00000000000E+00 0. -1.
         11    1    3    3    0    0 -0.12255291126E+02  0.87401839312E+01  0.14160311192E+01  0.15119130932E+02  0.51100000000E-03 0. -1.
        -11    1    3    3    0    0  0.92675325035E+01 -0.19286630355E+02 -0.14393633044E+02  0.25788329562E+02  0.51100000000E-03 0.  1.
        -12    1    3    3    0    0  0.81074568356E+00  0.34914293267E+01 -0.18041880058E+02  0.18394478067E+02  0.00000000000E+00 0.  1.
</event>
<event>
 7    1  0.4237994E-013  0.5930193E+02  0.7816164E-02  0.1266605E+00
        -11   -1    0    0    0    0  0.00000000000E+00  0.00000000000E+00  0.45593999997E+02  0.45594000000E+02  0.51100000000E-03 0.  1.
         11   -1    0    0    0    0 -0.00000000000E+00 -0.00000000000E+00 -0.45593999997E+02  0.45594000000E+02  0.51100000000E-03 0. -1.
    9900012    2    1    2    0    0 -0.13041770014E+02  0.12210383995E+02  0.26410986865E+02  0.59301929851E+02  0.49999974144E+02 0.  0.
         12    1    1    2    0    0  0.13041770014E+02 -0.12210383995E+02 -0.26410986865E+02  0.31886070149E+02  0.00000000000E+00 0. -1.
         11    1    3    3    0    0 -0.23038285567E+01  0.50487621647E+01 -0.14286071069E+02  0.15326103623E+02  0.51100000000E-03 0. -1.
        -11    1    3    3    0    0 -0.96225151244E+01  0.16756632849E+01  0.33276979200E+02  0.34680801457E+02  0.51100000000E-03 0.  1.
         12    1    3    3    0    0 -0.11154263328E+01  0.54859585456E+01  0.74200787333E+01  0.92950247701E+01  0.00000000000E+00 0. -1.
</event>
<event>
 7    1  0.4237994E-013  0.5930193E+02  0.7816164E-02  0.1266605E+00
        -11   -1    0    0    0    0  0.00000000000E+00  0.00000000000E+00  0.45593999997E+02  0.45594000000E+02  0.51100000000E-03 0. -1.
         11   -1    0    0    0    0 -0.00000000000E+00 -0.00000000000E+00 -0.45593999997E+02  0.45594000000E+02  0.51100000000E-03 0.  1.
    9900012    2    1    2    0    0 -0.12427779681E+01 -0.31125722001E+02 -0.68092792912E+01  0.59301931700E+02  0.49999977517E+02 0.  0.
         12    1    1    2    0    0  0.12427779681E+01  0.31125722001E+02  0.68092792912E+01  0.31886068300E+02  0.00000000000E+00 0. -1.
         11    1    3    3    0    0 -0.16189865822E+02 -0.39166692052E+01  0.10051885834E+02  0.19454882731E+02  0.51100000000E-03 0. -1.
        -11    1    3    3    0    0  0.27293958988E+01 -0.18060553227E+02 -0.16445402647E+02  0.24578129573E+02  0.51100000000E-03 0.  1.
        -12    1    3    3    0    0  0.12217691955E+02 -0.91484995687E+01 -0.41576247879E+00  0.15268919395E+02  0.00000000000E+00 0.  1.
</event>
<event>
 7    1  0.4237994E-013  0.5930180E+02  0.7816164E-02  0.1266605E+00
        -11   -1    0    0    0    0  0.00000000000E+00  0.00000000000E+00  0.45593999997E+02  0.45594000000E+02  0.51100000000E-03 0. -1.
         11   -1    0    0    0    0 -0.00000000000E+00 -0.00000000000E+00 -0.45593999997E+02  0.45594000000E+02  0.51100000000E-03 0.  1.
    9900012    2    1    2    0    0 -0.25493568881E+02 -0.19143523482E+02  0.57699256596E+00  0.59301804460E+02  0.49999745461E+02 0.  0.
         12    1    1    2    0    0  0.25493568881E+02  0.19143523482E+02 -0.57699256596E+00  0.31886195540E+02  0.00000000000E+00 0. -1.
         11    1    3    3    0    0 -0.18096128562E+02 -0.24912948869E+02  0.36766998341E+01  0.31010369430E+02  0.51100000000E-03 0. -1.
        -11    1    3    3    0    0  0.78725259035E+01  0.14322743016E+01 -0.83564439961E+01  0.11569711764E+02  0.51100000000E-03 0.  1.
         12    1    3    3    0    0 -0.15269966222E+02  0.43371510846E+01  0.52567367279E+01  0.16721723266E+02  0.00000000000E+00 0. -1.
</event>
<event>
 7    1  0.4237994E-013  0.5930193E+02  0.7816164E-02  0.1266605E+00
        -11   -1    0    0    0    0  0.00000000000E+00  0.00000000000E+00  0.45593999997E+02  0.45594000000E+02  0.51100000000E-03 0.  1.
         11   -1    0    0    0    0 -0.00000000000E+00 -0.00000000000E+00 -0.45593999997E+02  0.45594000000E+02  0.51100000000E-03 0. -1.
    9900012    2    1    2    0    0 -0.20258694387E+01 -0.77756966412E+01  0.30857020395E+02  0.59301932307E+02  0.49999978625E+02 0.  0.
         12    1    1    2    0    0  0.20258694387E+01  0.77756966412E+01 -0.30857020395E+02  0.31886067693E+02  0.00000000000E+00 0. -1.
         11    1    3    3    0    0 -0.87630377951E+01  0.48459059263E+01 -0.39846046082E+01  0.10777323870E+02  0.51100000000E-03 0. -1.
        -11    1    3    3    0    0  0.13575193644E+02 -0.16096741724E+02  0.35007541926E+02  0.40852404685E+02  0.51100000000E-03 0.  1.
        -12    1    3    3    0    0 -0.68380252879E+01  0.34751391561E+01 -0.16591692316E+00  0.76722037524E+01  0.00000000000E+00 0.  1.
</event>
<event>
 7    1  0.4237994E-013  0.5930188E+02  0.7816164E-02  0.1266605E+00
        -11   -1    0    0    0    0  0.00000000000E+00  0.00000000000E+00  0.45593999997E+02  0.45594000000E+02  0.51100000000E-03 0.  1.
         11   -1    0    0    0    0 -0.00000000000E+00 -0.00000000000E+00 -0.45593999997E+02  0.45594000000E+02  0.51100000000E-03 0. -1.
    9900012    2    1    2    0    0 -0.14740821144E+02  0.89212164894E+01  0.26829919001E+02  0.59301882875E+02  0.49999888473E+02 0.  0.
         12    1    1    2    0    0  0.14740821144E+02 -0.89212164894E+01 -0.26829919001E+02  0.31886117125E+02  0.00000000000E+00 0. -1.
         11    1    3    3    0    0  0.15395891817E+02  0.12746643568E+02  0.26705329896E+01  0.20165370163E+02  0.51100000000E-03 0. -1.
        -11    1    3    3    0    0 -0.25062787317E+02 -0.20256816352E+01  0.21717536547E+02  0.33224961823E+02  0.51100000000E-03 0.  1.
         12    1    3    3    0    0 -0.50739256448E+01 -0.17997454437E+01  0.24418494642E+01  0.59115508893E+01  0.00000000000E+00 0. -1.
</event>
<event>
 7    1  0.4237994E-013  0.5930194E+02  0.7816164E-02  0.1266605E+00
        -11   -1    0    0    0    0  0.00000000000E+00  0.00000000000E+00  0.45593999997E+02  0.45594000000E+02  0.51100000000E-03 0. -1.
         11   -1    0    0    0    0 -0.00000000000E+00 -0.00000000000E+00 -0.45593999997E+02  0.45594000000E+02  0.51100000000E-03 0.  1.
    9900012    2    1    2    0    0  0.10600497380E+01 -0.45578142532E+01 -0.31540820061E+02  0.59301941819E+02  0.49999995971E+02 0.  0.
         12    1    1    2    0    0 -0.10600497380E+01  0.45578142532E+01  0.31540820061E+02  0.31886058181E+02  0.00000000000E+00 0. -1.
         11    1    3    3    0    0 -0.21806201496E+01 -0.40428389040E-01  0.11463000559E+02  0.11668638342E+02  0.51100000000E-03 0. -1.
        -11    1    3    3    0    0  0.76745928237E+01 -0.86841689525E+01 -0.14890355634E+02  0.18868938936E+02  0.51100000000E-03 0.  1.
         12    1    3    3    0    0 -0.44339229362E+01  0.41667830884E+01 -0.28113464985E+02  0.28764364540E+02  0.00000000000E+00 0. -1.
</event>
<event>
 7    1  0.4237994E-013  0.5930196E+02  0.7816164E-02  0.1266605E+00
        -11   -1    0    0    0    0  0.00000000000E+00  0.00000000000E+00  0.45593999997E+02  0.45594000000E+02  0.51100000000E-03 0. -1.
         11   -1    0    0    0    0 -0.00000000000E+00 -0.00000000000E+00 -0.45593999997E+02  0.45594000000E+02  0.51100000000E-03 0.  1.
    9900012    2    1    2    0    0 -0.17756505070E+02 -0.86336340969E+01 -0.25037701916E+02  0.59301958739E+02  0.50000026831E+02 0.  0.
         12    1    1    2    0    0  0.17756505070E+02  0.86336340969E+01  0.25037701916E+02  0.31886041261E+02  0.00000000000E+00 0. -1.
         11    1    3    3    0    0  0.64155128463E+01 -0.11095959601E+02 -0.93514362173E+01  0.15865953616E+02  0.51100000000E-03 0. -1.
        -11    1    3    3    0    0 -0.24770999335E+02  0.56529921375E+01  0.19696810677E+01  0.25484080755E+02  0.51100000000E-03 0.  1.
        -12    1    3    3    0    0  0.59898141895E+00 -0.31906666334E+01 -0.17655946767E+02  0.17951924369E+02  0.00000000000E+00 0.  1.
</event>
<event>
 7    1  0.4237994E-013  0.5930193E+02  0.7816164E-02  0.1266605E+00
        -11   -1    0    0    0    0  0.00000000000E+00  0.00000000000E+00  0.45593999997E+02  0.45594000000E+02  0.51100000000E-03 0. -1.
         11   -1    0    0    0    0 -0.00000000000E+00 -0.00000000000E+00 -0.45593999997E+02  0.45594000000E+02  0.51100000000E-03 0.  1.
    9900012    2    1    2    0    0  0.14988903923E+02  0.27751649575E+02  0.46797718821E+01  0.59301928435E+02  0.49999971563E+02 0.  0.
         12    1    1    2    0    0 -0.14988903923E+02 -0.27751649575E+02 -0.46797718821E+01  0.31886071565E+02  0.00000000000E+00 0. -1.
         11    1    3    3    0    0 -0.60518745516E+01  0.58594510681E+01  0.10668534583E+01  0.84909674932E+01  0.51100000000E-03 0. -1.
        -11    1    3    3    0    0  0.24405774249E+02  0.11975159018E+02 -0.13803069874E+02  0.30488866631E+02  0.51100000000E-03 0.  1.
        -12    1    3    3    0    0 -0.33649957748E+01  0.99170394898E+01  0.17415988298E+02  0.20322094311E+02  0.00000000000E+00 0.  1.
</event>
<event>
 7    1  0.4237994E-013  0.5930195E+02  0.7816164E-02  0.1266605E+00
        -11   -1    0    0    0    0  0.00000000000E+00  0.00000000000E+00  0.45593999997E+02  0.45594000000E+02  0.51100000000E-03 0.  1.
         11   -1    0    0    0    0 -0.00000000000E+00 -0.00000000000E+00 -0.45593999997E+02  0.45594000000E+02  0.51100000000E-03 0. -1.
    9900012    2    1    2    0    0 -0.15088201963E+02  0.10442420282E+02  0.26077230734E+02  0.59301953795E+02  0.50000017814E+02 0.  0.
         12    1    1    2    0    0  0.15088201963E+02 -0.10442420282E+02 -0.26077230734E+02  0.31886046205E+02  0.00000000000E+00 0. -1.
         11    1    3    3    0    0 -0.18848036923E+02 -0.58514195910E+01 -0.21062480585E+00  0.19736564294E+02  0.51100000000E-03 0. -1.
        -11    1    3    3    0    0  0.74971112820E+01  0.37296513417E+01  0.25034000784E+02  0.26397313731E+02  0.51100000000E-03 0.  1.
         12    1    3    3    0    0 -0.37372763227E+01  0.12564188531E+02  0.12538547560E+01  0.13168075771E+02  0.00000000000E+00 0. -1.
</event>
<event>
 7    1  0.4237994E-013  0.5930193E+02  0.7816164E-02  0.1266605E+00
        -11   -1    0    0    0    0  0.00000000000E+00  0.00000000000E+00  0.45593999997E+02  0.45594000000E+02  0.51100000000E-03 0.  1.
         11   -1    0    0    0    0 -0.00000000000E+00 -0.00000000000E+00 -0.45593999997E+02  0.45594000000E+02  0.51100000000E-03 0. -1.
    9900012    2    1    2    0    0 -0.28964444301E+02 -0.23175686029E+01  0.13130557274E+02  0.59301926359E+02  0.49999967777E+02 0.  0.
         12    1    1    2    0    0  0.28964444301E+02  0.23175686029E+01 -0.13130557274E+02  0.31886073641E+02  0.00000000000E+00 0. -1.
         11    1    3    3    0    0  0.10250795371E+02 -0.11284653285E+01 -0.54865958721E+01  0.11681394363E+02  0.51100000000E-03 0. -1.
        -11    1    3    3    0    0 -0.38906535379E+02  0.22501607166E+01  0.13104753111E+02  0.41115888325E+02  0.51100000000E-03 0.  1.
        -12    1    3    3    0    0 -0.30870429283E+00 -0.34392639909E+01  0.55124000354E+01  0.65046436712E+01  0.00000000000E+00 0.  1.
</event>
<event>
 7    1  0.4237994E-013  0.5930190E+02  0.7816164E-02  0.1266605E+00
        -11   -1    0    0    0    0  0.00000000000E+00  0.00000000000E+00  0.45593999997E+02  0.45594000000E+02  0.51100000000E-03 0.  1.
         11   -1    0    0    0    0 -0.00000000000E+00 -0.00000000000E+00 -0.45593999997E+02  0.45594000000E+02  0.51100000000E-03 0. -1.
    9900012    2    1    2    0    0 -0.28942589775E+02  0.62832792119E+01  0.11813986904E+02  0.59301899782E+02  0.49999919306E+02 0.  0.
         12    1    1    2    0    0  0.28942589775E+02 -0.62832792119E+01 -0.11813986904E+02  0.31886100218E+02  0.00000000000E+00 0. -1.
         11    1    3    3    0    0 -0.17432227330E+02  0.78423240373E+01 -0.42883992368E+01  0.19590175197E+02  0.51100000000E-03 0. -1.
        -11    1    3    3    0    0  0.20087337136E+01 -0.11673447646E+02 -0.48531920399E+01  0.12800697806E+02  0.51100000000E-03 0.  1.
        -12    1    3    3    0    0 -0.13519096159E+02  0.10114402821E+02  0.20955578181E+02  0.26911026778E+02  0.00000000000E+00 0.  1.
</event>
<event>
 7    1  0.4237994E-013  0.5930178E+02  0.7816164E-02  0.1266605E+00
        -11   -1    0    0    0    0  0.00000000000E+00  0.00000000000E+00  0.45593999997E+02  0.45594000000E+02  0.51100000000E-03 0.  1.
         11   -1    0    0    0    0 -0.00000000000E+00 -0.00000000000E+00 -0.45593999997E+02  0.45594000000E+02  0.51100000000E-03 0. -1.
    9900012    2    1    2    0    0 -0.58405678417E+00  0.22593597555E+02  0.22492650417E+02  0.59301778907E+02  0.49999698859E+02 0.  0.
         12    1    1    2    0    0  0.58405678417E+00 -0.22593597555E+02 -0.22492650417E+02  0.31886221093E+02  0.00000000000E+00 0. -1.
         11    1    3    3    0    0 -0.66523861021E+01 -0.96530059640E+01 -0.53012227710E+01  0.12866146592E+02  0.51100000000E-03 0. -1.
        -11    1    3    3    0    0  0.14151508345E+01  0.20164054571E+02  0.26634368810E+02  0.33436228119E+02  0.51100000000E-03 0.  1.
         12    1    3    3    0    0  0.46531784834E+01  0.12082548947E+02  0.11595043783E+01  0.12999404197E+02  0.00000000000E+00 0. -1.
</event>
<event>
 7    1  0.4237994E-013  0.5930191E+02  0.7816164E-02  0.1266605E+00
        -11   -1    0    0    0    0  0.00000000000E+00  0.00000000000E+00  0.45593999997E+02  0.45594000000E+02  0.51100000000E-03 0.  1.
         11   -1    0    0    0    0 -0.00000000000E+00 -0.00000000000E+00 -0.45593999997E+02  0.45594000000E+02  0.51100000000E-03 0. -1.
    9900012    2    1    2    0    0  0.17523092860E+02  0.11366645465E+02  0.24092804740E+02  0.59301911297E+02  0.49999940307E+02 0.  0.
         12    1    1    2    0    0 -0.17523092860E+02 -0.11366645465E+02 -0.24092804740E+02  0.31886088703E+02  0.00000000000E+00 0. -1.
         11    1    3    3    0    0 -0.27040402695E+01 -0.15880295305E+02  0.17395756116E+02  0.23708815742E+02  0.51100000000E-03 0. -1.
        -11    1    3    3    0    0  0.24242762657E+01  0.81694822790E+01 -0.46464746076E+00  0.85342517917E+01  0.51100000000E-03 0.  1.
         12    1    3    3    0    0  0.17802856864E+02  0.19077458491E+02  0.71616960845E+01  0.27058843764E+02  0.00000000000E+00 0. -1.
</event>
<event>
 7    1  0.4237994E-013  0.5930194E+02  0.7816164E-02  0.1266605E+00
        -11   -1    0    0    0    0  0.00000000000E+00  0.00000000000E+00  0.45593999997E+02  0.45594000000E+02  0.51100000000E-03 0. -1.
         11   -1    0    0    0    0 -0.00000000000E+00 -0.00000000000E+00 -0.45593999997E+02  0.45594000000E+02  0.51100000000E-03 0.  1.
    9900012    2    1    2    0    0 -0.29445114757E+02  0.11830383194E+02  0.31221516733E+01  0.59301943790E+02  0.49999999566E+02 0.  0.
         12    1    1    2    0    0  0.29445114757E+02 -0.11830383194E+02 -0.31221516733E+01  0.31886056210E+02  0.00000000000E+00 0. -1.
         11    1    3    3    0    0 -0.45554796010E+01  0.16745445353E+02 -0.96035470890E+00  0.17380581575E+02  0.51100000000E-03 0. -1.
        -11    1    3    3    0    0 -0.17340658641E+02 -0.10008945515E+02  0.16898038300E+02  0.26199639904E+02  0.51100000000E-03 0.  1.
        -12    1    3    3    0    0 -0.75489765150E+01  0.50938833561E+01 -0.12815531918E+02  0.15721722311E+02  0.00000000000E+00 0.  1.
</event>
<event>
 7    1  0.4237994E-013  0.5930196E+02  0.7816164E-02  0.1266605E+00
        -11   -1    0    0    0    0  0.00000000000E+00  0.00000000000E+00  0.45593999997E+02  0.45594000000E+02  0.51100000000E-03 0.  1.
         11   -1    0    0    0    0 -0.00000000000E+00 -0.00000000000E+00 -0.45593999997E+02  0.45594000000E+02  0.51100000000E-03 0. -1.
    9900012    2    1    2    0    0 -0.23136052318E+02 -0.21170011815E+02  0.57683067649E+01  0.59301957912E+02  0.50000025321E+02 0.  0.
         12    1    1    2    0    0  0.23136052318E+02  0.21170011815E+02 -0.57683067649E+01  0.31886042088E+02  0.00000000000E+00 0. -1.
         11    1    3    3    0    0 -0.90018530946E+01 -0.32173586767E+02  0.95758129609E+00  0.33422896445E+02  0.51100000000E-03 0. -1.
        -11    1    3    3    0    0 -0.40537895722E+00  0.11276684867E+02  0.44880183814E+01  0.12143733484E+02  0.51100000000E-03 0.  1.
        -12    1    3    3    0    0 -0.13728820266E+02 -0.27310991460E+00  0.32270708733E+00  0.13735327983E+02  0.00000000000E+00 0.  1.
</event>
<event>
 7    1  0.4237994E-013  0.5930194E+02  0.7816164E-02  0.1266605E+00
        -11   -1    0    0    0    0  0.00000000000E+00  0.00000000000E+00  0.45593999997E+02  0.45594000000E+02  0.51100000000E-03 0.  1.
         11   -1    0    0    0    0 -0.00000000000E+00 -0.00000000000E+00 -0.45593999997E+02  0.45594000000E+02  0.51100000000E-03 0. -1.
    9900012    2    1    2    0    0  0.20480876400E+02 -0.18219683074E+02  0.16287957300E+02  0.59301941880E+02  0.49999996083E+02 0.  0.
         12    1    1    2    0    0 -0.20480876400E+02  0.18219683074E+02 -0.16287957300E+02  0.31886058120E+02  0.00000000000E+00 0. -1.
         11    1    3    3    0    0 -0.26758900639E+01 -0.13965183623E+02  0.15642098952E+01  0.14305016397E+02  0.51100000000E-03 0. -1.
        -11    1    3    3    0    0  0.27244920851E+02 -0.60735579142E+01  0.22615160406E+02  0.35925190304E+02  0.51100000000E-03 0.  1.
        -12    1    3    3    0    0 -0.40881543872E+01  0.18190584634E+01 -0.78914130015E+01  0.90717351784E+01  0.00000000000E+00 0.  1.
</event>
<event>
 7    1  0.4237994E-013  0.5930200E+02  0.7816164E-02  0.1266605E+00
        -11   -1    0    0    0    0  0.00000000000E+00  0.00000000000E+00  0.45593999997E+02  0.45594000000E+02  0.51100000000E-03 0. -1.
         11   -1    0    0    0    0 -0.00000000000E+00 -0.00000000000E+00 -0.45593999997E+02  0.45594000000E+02  0.51100000000E-03 0.  1.
    9900012    2    1    2    0    0 -0.28833045176E+02 -0.13070749958E+02 -0.38115594278E+01  0.59302000190E+02  0.50000102426E+02 0.  0.
         12    1    1    2    0    0  0.28833045176E+02  0.13070749958E+02  0.38115594278E+01  0.31885999810E+02  0.00000000000E+00 0. -1.
         11    1    3    3    0    0 -0.20885639696E+02 -0.17637746317E+02 -0.89955509701E+00  0.27351585700E+02  0.51100000000E-03 0. -1.
        -11    1    3    3    0    0  0.70219845601E+00  0.39471579062E+01 -0.15864377697E+02  0.16363117618E+02  0.51100000000E-03 0.  1.
         12    1    3    3    0    0 -0.86496039361E+01  0.61983845280E+00  0.12952373366E+02  0.15587296872E+02  0.00000000000E+00 0. -1.
</event>
<event>
 7    1  0.4237994E-013  0.5930195E+02  0.7816164E-02  0.1266605E+00
        -11   -1    0    0    0    0  0.00000000000E+00  0.00000000000E+00  0.45593999997E+02  0.45594000000E+02  0.51100000000E-03 0.  1.
         11   -1    0    0    0    0 -0.00000000000E+00 -0.00000000000E+00 -0.45593999997E+02  0.45594000000E+02  0.51100000000E-03 0. -1.
    9900012    2    1    2    0    0  0.29101905234E+02  0.46279804853E+01  0.12181167139E+02  0.59301954078E+02  0.50000018330E+02 0.  0.
         12    1    1    2    0    0 -0.29101905234E+02 -0.46279804853E+01 -0.12181167139E+02  0.31886045922E+02  0.00000000000E+00 0. -1.
         11    1    3    3    0    0 -0.74315062629E+01 -0.10474354157E+02 -0.65372237403E+01  0.14410922068E+02  0.51100000000E-03 0. -1.
        -11    1    3    3    0    0  0.22632983193E+02  0.11130857372E+02  0.67145833697E+01  0.26100451033E+02  0.51100000000E-03 0.  1.
         12    1    3    3    0    0  0.13900428305E+02  0.39714772703E+01  0.12003807509E+02  0.18790580978E+02  0.00000000000E+00 0. -1.
</event>
<event>
 7    1  0.4237994E-013  0.5930195E+02  0.7816164E-02  0.1266605E+00
        -11   -1    0    0    0    0  0.00000000000E+00  0.00000000000E+00  0.45593999997E+02  0.45594000000E+02  0.51100000000E-03 0.  1.
         11   -1    0    0    0    0 -0.00000000000E+00 -0.00000000000E+00 -0.45593999997E+02  0.45594000000E+02  0.51100000000E-03 0. -1.
    9900012    2    1    2    0    0 -0.10953185526E+02  0.25179388620E+02  0.16209448407E+02  0.59301951294E+02  0.50000013252E+02 0.  0.
         12    1    1    2    0    0  0.10953185526E+02 -0.25179388620E+02 -0.16209448407E+02  0.31886048706E+02  0.00000000000E+00 0. -1.
         11    1    3    3    0    0 -0.19840137622E+00  0.53846267480E+01  0.13241370230E+02  0.14295714538E+02  0.51100000000E-03 0. -1.
        -11    1    3    3    0    0  0.97990913799E+01  0.18942305738E+02 -0.65912263825E+01  0.22322128125E+02  0.51100000000E-03 0.  1.
        -12    1    3    3    0    0 -0.20553875529E+02  0.85245613384E+00  0.95593045596E+01  0.22684108631E+02  0.00000000000E+00 0.  1.
</event>
<event>
 7    1  0.4237994E-013  0.5930195E+02  0.7816164E-02  0.1266605E+00
        -11   -1    0    0    0    0  0.00000000000E+00  0.00000000000E+00  0.45593999997E+02  0.45594000000E+02  0.51100000000E-03 0.  1.
         11   -1    0    0    0    0 -0.00000000000E+00 -0.00000000000E+00 -0.45593999997E+02  0.45594000000E+02  0.51100000000E-03 0. -1.
    9900012    2    1    2    0    0 -0.26911516758E+02 -0.94193037650E+01  0.14274705788E+02  0.59301949085E+02  0.50000009223E+02 0.  0.
         12    1    1    2    0    0  0.26911516758E+02  0.94193037650E+01 -0.14274705788E+02  0.31886050915E+02  0.00000000000E+00 0. -1.
         11    1    3    3    0    0 -0.15778603081E+02 -0.10635892789E+01 -0.34168452882E+00  0.15818099946E+02  0.51100000000E-03 0. -1.
        -11    1    3    3    0    0  0.12093463382E+02  0.61039799723E+01  0.38604725078E+01  0.14085938957E+02  0.51100000000E-03 0.  1.
        -12    1    3    3    0    0 -0.23226377059E+02 -0.14459694458E+02  0.10755917809E+02  0.29397910181E+02  0.00000000000E+00 0.  1.
</event>
<event>
 7    1  0.4237994E-013  0.5930196E+02  0.7816164E-02  0.1266605E+00
        -11   -1    0    0    0    0  0.00000000000E+00  0.00000000000E+00  0.45593999997E+02  0.45594000000E+02  0.51100000000E-03 0. -1.
         11   -1    0    0    0    0 -0.00000000000E+00 -0.00000000000E+00 -0.45593999997E+02  0.45594000000E+02  0.51100000000E-03 0.  1.
    9900012    2    1    2    0    0  0.21480068481E+02 -0.12690929773E+02 -0.19856145908E+02  0.59301959625E+02  0.50000028445E+02 0.  0.
         12    1    1    2    0    0 -0.21480068481E+02  0.12690929773E+02  0.19856145908E+02  0.31886040375E+02  0.00000000000E+00 0. -1.
         11    1    3    3    0    0  0.36105110427E+02 -0.34920676353E+01 -0.80264319887E+01  0.37151004644E+02  0.51100000000E-03 0. -1.
        -11    1    3    3    0    0 -0.91175071848E+01 -0.89308345294E+01 -0.59221077724E+01  0.14069829544E+02  0.51100000000E-03 0.  1.
         12    1    3    3    0    0 -0.55075347610E+01 -0.26802760857E+00 -0.59076061471E+01  0.80811254372E+01  0.00000000000E+00 0. -1.
</event>
<event>
 7    1  0.4237994E-013  0.5930195E+02  0.7816164E-02  0.1266605E+00
        -11   -1    0    0    0    0  0.00000000000E+00  0.00000000000E+00  0.45593999997E+02  0.45594000000E+02  0.51100000000E-03 0. -1.
         11   -1    0    0    0    0 -0.00000000000E+00 -0.00000000000E+00 -0.45593999997E+02  0.45594000000E+02  0.51100000000E-03 0.  1.
    9900012    2    1    2    0    0 -0.29844017589E+02 -0.31710954216E+01 -0.10770267421E+02  0.59301954583E+02  0.50000019251E+02 0.  0.
         12    1    1    2    0    0  0.29844017589E+02  0.31710954216E+01  0.10770267421E+02  0.31886045417E+02  0.00000000000E+00 0. -1.
         11    1    3    3    0    0  0.10929650199E+01 -0.42737518069E+01  0.16854982646E+02  0.17422685421E+02  0.51100000000E-03 0. -1.
        -11    1    3    3    0    0 -0.19550400514E+02 -0.90510914126E-01 -0.13807963434E+02  0.23935041403E+02  0.51100000000E-03 0.  1.
         12    1    3    3    0    0 -0.11386582094E+02  0.11931672994E+01 -0.13817286633E+02  0.17944227759E+02  0.00000000000E+00 0. -1.
</event>
<event>
 7    1  0.4237994E-013  0.5930194E+02  0.7816164E-02  0.1266605E+00
        -11   -1    0    0    0    0  0.00000000000E+00  0.00000000000E+00  0.45593999997E+02  0.45594000000E+02  0.51100000000E-03 0.  1.
         11   -1    0    0    0    0 -0.00000000000E+00 -0.00000000000E+00 -0.45593999997E+02  0.45594000000E+02  0.51100000000E-03 0. -1.
    9900012    2    1    2    0    0  0.10562520729E+02  0.24610646675E+02  0.17305209895E+02  0.59301936220E+02  0.49999985760E+02 0.  0.
         12    1    1    2    0    0 -0.10562520729E+02 -0.24610646675E+02 -0.17305209895E+02  0.31886063780E+02  0.00000000000E+00 0. -1.
         11    1    3    3    0    0 -0.81432075357E+01 -0.19092083045E+01  0.12015926182E+02  0.14640334272E+02  0.51100000000E-03 0. -1.
        -11    1    3    3    0    0  0.12355533689E+02  0.34925888775E+01 -0.10022729124E+02  0.16288415797E+02  0.51100000000E-03 0.  1.
        -12    1    3    3    0    0  0.63501945760E+01  0.23027266102E+02  0.15312012837E+02  0.28373186152E+02  0.00000000000E+00 0.  1.
</event>
<event>
 7    1  0.4237994E-013  0.5930195E+02  0.7816164E-02  0.1266605E+00
        -11   -1    0    0    0    0  0.00000000000E+00  0.00000000000E+00  0.45593999997E+02  0.45594000000E+02  0.51100000000E-03 0. -1.
         11   -1    0    0    0    0 -0.00000000000E+00 -0.00000000000E+00 -0.45593999997E+02  0.45594000000E+02  0.51100000000E-03 0.  1.
    9900012    2    1    2    0    0 -0.75258198882E+01  0.14980841877E+02 -0.27122993989E+02  0.59301946760E+02  0.50000004982E+02 0.  0.
         12    1    1    2    0    0  0.75258198882E+01 -0.14980841877E+02  0.27122993989E+02  0.31886053240E+02  0.00000000000E+00 0. -1.
         11    1    3    3    0    0  0.12809882326E+02  0.56150472799E+01 -0.55867403357E+01  0.15060992962E+02  0.51100000000E-03 0. -1.
        -11    1    3    3    0    0 -0.14935567387E+02 -0.27354708250E+01 -0.26125342272E+02  0.30217337455E+02  0.51100000000E-03 0.  1.
        -12    1    3    3    0    0 -0.54001348270E+01  0.12101265422E+02  0.45890886192E+01  0.14023616343E+02  0.00000000000E+00 0.  1.
</event>
<event>
 7    1  0.4237994E-013  0.5930196E+02  0.7816164E-02  0.1266605E+00
        -11   -1    0    0    0    0  0.00000000000E+00  0.00000000000E+00  0.45593999997E+02  0.45594000000E+02  0.51100000000E-03 0. -1.
         11   -1    0    0    0    0 -0.00000000000E+00 -0.00000000000E+00 -0.45593999997E+02  0.45594000000E+02  0.51100000000E-03 0.  1.
    9900012    2    1    2    0    0  0.26493907304E+02 -0.11410692181E+01 -0.17705664117E+02  0.59301957520E+02  0.50000024607E+02 0.  0.
         12    1    1    2    0    0 -0.26493907304E+02  0.11410692181E+01  0.17705664117E+02  0.31886042480E+02  0.00000000000E+00 0. -1.
         11    1    3    3    0    0 -0.74412095932E+01 -0.76110358073E+01 -0.11186250183E+02  0.15441232454E+02  0.51100000000E-03 0. -1.
        -11    1    3    3    0    0  0.16266014422E+02 -0.93441963944E+01  0.15249930948E+01  0.18820808580E+02  0.51100000000E-03 0.  1.
         12    1    3    3    0    0  0.17669102476E+02  0.15814162984E+02 -0.80444070290E+01  0.25039916486E+02  0.00000000000E+00 0. -1.
</event>
<event>
 7    1  0.4237994E-013  0.5930196E+02  0.7816164E-02  0.1266605E+00
        -11   -1    0    0    0    0  0.00000000000E+00  0.00000000000E+00  0.45593999997E+02  0.45594000000E+02  0.51100000000E-03 0.  1.
         11   -1    0    0    0    0 -0.00000000000E+00 -0.00000000000E+00 -0.45593999997E+02  0.45594000000E+02  0.51100000000E-03 0. -1.
    9900012    2    1    2    0    0  0.25651901098E+02 -0.13592179343E+02 -0.13189098140E+02  0.59301957928E+02  0.50000025351E+02 0.  0.
         12    1    1    2    0    0 -0.25651901098E+02  0.13592179343E+02  0.13189098140E+02  0.31886042072E+02  0.00000000000E+00 0. -1.
         11    1    3    3    0    0  0.20198348616E+02  0.11024097116E+02 -0.20557006448E+02  0.30856028883E+02  0.51100000000E-03 0. -1.
        -11    1    3    3    0    0  0.27933510735E+01 -0.64130864369E+01  0.72143460156E+01  0.10048745024E+02  0.51100000000E-03 0.  1.
         12    1    3    3    0    0  0.26602014091E+01 -0.18203190023E+02  0.15356229291E+00  0.18397184021E+02  0.00000000000E+00 0. -1.
</event>
<event>
 7    1  0.4237994E-013  0.5930194E+02  0.7816164E-02  0.1266605E+00
        -11   -1    0    0    0    0  0.00000000000E+00  0.00000000000E+00  0.45593999997E+02  0.45594000000E+02  0.51100000000E-03 0.  1.
         11   -1    0    0    0    0 -0.00000000000E+00 -0.00000000000E+00 -0.45593999997E+02  0.45594000000E+02  0.51100000000E-03 0. -1.
    9900012    2    1    2    0    0 -0.27405355668E+01  0.28236373230E+02  0.14557389292E+02  0.59301938917E+02  0.49999990679E+02 0.  0.
         12    1    1    2    0    0  0.27405355668E+01 -0.28236373230E+02 -0.14557389292E+02  0.31886061083E+02  0.00000000000E+00 0. -1.
         11    1    3    3    0    0 -0.15468862012E+02 -0.21085608607E+01  0.15710837343E+02  0.22148637230E+02  0.51100000000E-03 0. -1.
        -11    1    3    3    0    0  0.79205039456E+01  0.80250123872E+01  0.65707014567E+01  0.13050261471E+02  0.51100000000E-03 0.  1.
         12    1    3    3    0    0  0.48078225000E+01  0.22319921704E+02 -0.77241495073E+01  0.24103040216E+02  0.00000000000E+00 0. -1.
</event>
<event>
 7    1  0.4237994E-013  0.5930199E+02  0.7816164E-02  0.1266605E+00
        -11   -1    0    0    0    0  0.00000000000E+00  0.00000000000E+00  0.45593999997E+02  0.45594000000E+02  0.51100000000E-03 0.  1.
         11   -1    0    0    0    0 -0.00000000000E+00 -0.00000000000E+00 -0.45593999997E+02  0.45594000000E+02  0.51100000000E-03 0. -1.
    9900012    2    1    2    0    0 -0.12750224314E+02  0.21584111959E+02  0.19704708195E+02  0.59301989993E+02  0.50000083830E+02 0.  0.
         12    1    1    2    0    0  0.12750224314E+02 -0.21584111959E+02 -0.19704708195E+02  0.31886010007E+02  0.00000000000E+00 0. -1.
         11    1    3    3    0    0  0.61416294116E+00 -0.48373242032E+01  0.10766927956E+02  0.11819629412E+02  0.51100000000E-03 0. -1.
        -11    1    3    3    0    0 -0.22076256237E+02  0.62181611402E+01 -0.17894534572E+01  0.23004972535E+02  0.51100000000E-03 0.  1.
        -12    1    3    3    0    0  0.87118689821E+01  0.20203275022E+02  0.10727233696E+02  0.24477388046E+02  0.00000000000E+00 0.  1.
</event>
<event>
 7    1  0.4237994E-013  0.5930183E+02  0.7816164E-02  0.1266605E+00
        -11   -1    0    0    0    0  0.00000000000E+00  0.00000000000E+00  0.45593999997E+02  0.45594000000E+02  0.51100000000E-03 0.  1.
         11   -1    0    0    0    0 -0.00000000000E+00 -0.00000000000E+00 -0.45593999997E+02  0.45594000000E+02  0.51100000000E-03 0. -1.
    9900012    2    1    2    0    0  0.44112395472E+00  0.22047922693E+02  0.23030896396E+02  0.59301832557E+02  0.49999796703E+02 0.  0.
         12    1    1    2    0    0 -0.44112395472E+00 -0.22047922693E+02 -0.23030896396E+02  0.31886167443E+02  0.00000000000E+00 0. -1.
         11    1    3    3    0    0  0.52564357689E+01  0.18037928704E+02 -0.74947437675E+01  0.20227905806E+02  0.51100000000E-03 0. -1.
        -11    1    3    3    0    0  0.80022297256E+01  0.76433145045E+01  0.14166492587E+02  0.17976246819E+02  0.51100000000E-03 0.  1.
         12    1    3    3    0    0 -0.12817541540E+02 -0.36333205152E+01  0.16359147576E+02  0.21097679932E+02  0.00000000000E+00 0. -1.
</event>
<event>
 7    1  0.4237994E-013  0.5930197E+02  0.7816164E-02  0.1266605E+00
        -11   -1    0    0    0    0  0.00000000000E+00  0.00000000000E+00  0.45593999997E+02  0.45594000000E+02  0.51100000000E-03 0.  1.
         11   -1    0    0    0    0 -0.00000000000E+00 -0.00000000000E+00 -0.45593999997E+02  0.45594000000E+02  0.51100000000E-03 0. -1.
    9900012    2    1    2    0    0  0.23891548578E+02 -0.16856247036E+02  0.12719268813E+02  0.59301969254E+02  0.50000046007E+02 0.  0.
         12    1    1    2    0    0 -0.23891548578E+02  0.16856247036E+02 -0.12719268813E+02  0.31886030746E+02  0.00000000000E+00 0. -1.
         11    1    3    3    0    0  0.70238115157E+01 -0.42618820954E+01 -0.16468330043E+02  0.18403898007E+02  0.51100000000E-03 0. -1.
        -11    1    3    3    0    0  0.68367861209E+00 -0.10013427736E+02  0.19310915527E+02  0.21763446653E+02  0.51100000000E-03 0.  1.
        -12    1    3    3    0    0  0.16184058450E+02 -0.25809372047E+01  0.98766833292E+01  0.19134624594E+02  0.00000000000E+00 0.  1.
</event>
<event>
 7    1  0.4237994E-013  0.5930191E+02  0.7816164E-02  0.1266605E+00
        -11   -1    0    0    0    0  0.00000000000E+00  0.00000000000E+00  0.45593999997E+02  0.45594000000E+02  0.51100000000E-03 0. -1.
         11   -1    0    0    0    0 -0.00000000000E+00 -0.00000000000E+00 -0.45593999997E+02  0.45594000000E+02  0.51100000000E-03 0.  1.
    9900012    2    1    2    0    0  0.28219498261E+01 -0.25792988159E+02 -0.18533237170E+02  0.59301913395E+02  0.49999944132E+02 0.  0.
         12    1    1    2    0    0 -0.28219498261E+01  0.25792988159E+02  0.18533237170E+02  0.31886086605E+02  0.00000000000E+00 0. -1.
         11    1    3    3    0    0  0.20833948650E+00  0.55949651851E+01  0.37568060461E+01  0.67424500513E+01  0.51100000000E-03 0. -1.
        -11    1    3    3    0    0  0.28536709799E+01 -0.39408529118E+02 -0.19521345352E+02  0.44071062274E+02  0.51100000000E-03 0.  1.
        -12    1    3    3    0    0 -0.24006064025E+00  0.80205757738E+01 -0.27686978643E+01  0.84884010696E+01  0.00000000000E+00 0.  1.
</event>
<event>
 7    1  0.4237994E-013  0.5930190E+02  0.7816164E-02  0.1266605E+00
        -11   -1    0    0    0    0  0.00000000000E+00  0.00000000000E+00  0.45593999997E+02  0.45594000000E+02  0.51100000000E-03 0.  1.
         11   -1    0    0    0    0 -0.00000000000E+00 -0.00000000000E+00 -0.45593999997E+02  0.45594000000E+02  0.51100000000E-03 0. -1.
    9900012    2    1    2    0    0 -0.12596838675E+01 -0.25063994634E+02 -0.19670604562E+02  0.59301900924E+02  0.49999921389E+02 0.  0.
         12    1    1    2    0    0  0.12596838675E+01  0.25063994634E+02  0.19670604562E+02  0.31886099076E+02  0.00000000000E+00 0. -1.
         11    1    3    3    0    0 -0.52904365299E+01  0.21649095046E+01 -0.48908841272E+00  0.57371386227E+01  0.51100000000E-03 0. -1.
        -11    1    3    3    0    0  0.20343182146E+00 -0.31482913891E+02  0.20746190588E+01  0.31551850914E+02  0.51100000000E-03 0.  1.
        -12    1    3    3    0    0  0.38273208409E+01  0.42540097526E+01 -0.21256135208E+02  0.22012911388E+02  0.00000000000E+00 0.  1.
</event>
<event>
 7    1  0.4237994E-013  0.5930197E+02  0.7816164E-02  0.1266605E+00
        -11   -1    0    0    0    0  0.00000000000E+00  0.00000000000E+00  0.45593999997E+02  0.45594000000E+02  0.51100000000E-03 0. -1.
         11   -1    0    0    0    0 -0.00000000000E+00 -0.00000000000E+00 -0.45593999997E+02  0.45594000000E+02  0.51100000000E-03 0.  1.
    9900012    2    1    2    0    0  0.25021190753E+02 -0.94646792526E+01 -0.17351627199E+02  0.59301966906E+02  0.50000041724E+02 0.  0.
         12    1    1    2    0    0 -0.25021190753E+02  0.94646792526E+01  0.17351627199E+02  0.31886033094E+02  0.00000000000E+00 0. -1.
         11    1    3    3    0    0 -0.95222897651E+01  0.16440219552E+01  0.56020173122E+01  0.11169575139E+02  0.51100000000E-03 0. -1.
        -11    1    3    3    0    0  0.33472765985E+02 -0.16117803116E+02 -0.20782171717E+02  0.42568865400E+02  0.51100000000E-03 0.  1.
        -12    1    3    3    0    0  0.10707145328E+01  0.50091019079E+01 -0.21714727940E+01  0.55635263664E+01  0.00000000000E+00 0.  1.
</event>
<event>
 7    1  0.4237994E-013  0.5930198E+02  0.7816164E-02  0.1266605E+00
        -11   -1    0    0    0    0  0.00000000000E+00  0.00000000000E+00  0.45593999997E+02  0.45594000000E+02  0.51100000000E-03 0. -1.
         11   -1    0    0    0    0 -0.00000000000E+00 -0.00000000000E+00 -0.45593999997E+02  0.45594000000E+02  0.51100000000E-03 0.  1.
    9900012    2    1    2    0    0  0.95142692887E+01 -0.28322619035E+02  0.11136699404E+02  0.59301982018E+02  0.50000069286E+02 0.  0.
         12    1    1    2    0    0 -0.95142692887E+01  0.28322619035E+02 -0.11136699404E+02  0.31886017982E+02  0.00000000000E+00 0. -1.
         11    1    3    3    0    0  0.19143573598E+02 -0.26149457754E+02 -0.11603950374E+02  0.34422699131E+02  0.51100000000E-03 0.  1.
        -11    1    3    3    0    0 -0.83736299575E+01 -0.11159112441E+01  0.18832226690E+02  0.20640147745E+02  0.51100000000E-03 0. -1.
        -12    1    3    3    0    0 -0.12556743521E+01 -0.10572500368E+01  0.39084230880E+01  0.42391351422E+01  0.00000000000E+00 0.  1.
</event>
<event>
 7    1  0.4237994E-013  0.5930193E+02  0.7816164E-02  0.1266605E+00
        -11   -1    0    0    0    0  0.00000000000E+00  0.00000000000E+00  0.45593999997E+02  0.45594000000E+02  0.51100000000E-03 0.  1.
         11   -1    0    0    0    0 -0.00000000000E+00 -0.00000000000E+00 -0.45593999997E+02  0.45594000000E+02  0.51100000000E-03 0. -1.
    9900012    2    1    2    0    0  0.16165383529E+02 -0.26723973525E+02 -0.64211233291E+01  0.59301933915E+02  0.49999981556E+02 0.  0.
         12    1    1    2    0    0 -0.16165383529E+02  0.26723973525E+02  0.64211233291E+01  0.31886066085E+02  0.00000000000E+00 0. -1.
         11    1    3    3    0    0  0.43835179305E+01 -0.59483127685E+01 -0.19495786338E+02  0.20849060877E+02  0.51100000000E-03 0. -1.
        -11    1    3    3    0    0  0.11958178547E+02  0.23953279603E+01  0.84155285956E+01  0.14817447554E+02  0.51100000000E-03 0.  1.
        -12    1    3    3    0    0 -0.17631294869E+00 -0.23170988717E+02  0.46591344132E+01  0.23635425485E+02  0.00000000000E+00 0.  1.
</event>
<event>
 7    1  0.4237994E-013  0.5930191E+02  0.7816164E-02  0.1266605E+00
        -11   -1    0    0    0    0  0.00000000000E+00  0.00000000000E+00  0.45593999997E+02  0.45594000000E+02  0.51100000000E-03 0.  1.
         11   -1    0    0    0    0 -0.00000000000E+00 -0.00000000000E+00 -0.45593999997E+02  0.45594000000E+02  0.51100000000E-03 0. -1.
    9900012    2    1    2    0    0  0.12816494944E+02  0.81607788437E+01  0.28033228093E+02  0.59301910066E+02  0.49999938062E+02 0.  0.
         12    1    1    2    0    0 -0.12816494944E+02 -0.81607788437E+01 -0.28033228093E+02  0.31886089934E+02  0.00000000000E+00 0. -1.
         11    1    3    3    0    0 -0.12764401590E+02  0.65129584309E+01  0.80399576603E+01  0.16431357062E+02  0.51100000000E-03 0. -1.
        -11    1    3    3    0    0  0.15819734388E+02  0.13497936833E+02  0.49508590122E+01  0.21376840274E+02  0.51100000000E-03 0.  1.
         12    1    3    3    0    0  0.97611621450E+01 -0.11850116420E+02  0.15042411420E+02  0.21493712730E+02  0.00000000000E+00 0. -1.
</event>
<event>
 7    1  0.4237994E-013  0.5930227E+02  0.7816164E-02  0.1266604E+00
        -11   -1    0    0    0    0  0.00000000000E+00  0.00000000000E+00  0.45593999997E+02  0.45594000000E+02  0.51100000000E-03 0. -1.
         11   -1    0    0    0    0 -0.00000000000E+00 -0.00000000000E+00 -0.45593999997E+02  0.45594000000E+02  0.51100000000E-03 0.  1.
    9900012    2    1    2    0    0  0.98274586657E+01  0.27983769728E+02  0.11705968551E+02  0.59302266329E+02  0.50000587797E+02 0.  0.
         12    1    1    2    0    0 -0.98274586657E+01 -0.27983769728E+02 -0.11705968551E+02  0.31885733671E+02  0.00000000000E+00 0. -1.
         11    1    3    3    0    0 -0.50604010802E+00 -0.28027113790E+01  0.12295726268E+02  0.12621257955E+02  0.51100000000E-03 0. -1.
        -11    1    3    3    0    0  0.18727545217E+02  0.10283575625E+02 -0.87275253473E+01  0.23079050596E+02  0.51100000000E-03 0.  1.
        -12    1    3    3    0    0 -0.83940464433E+01  0.20502905482E+02  0.81377676309E+01  0.23601957777E+02  0.00000000000E+00 0.  1.
</event>
<event>
 7    1  0.4237994E-013  0.5930193E+02  0.7816164E-02  0.1266605E+00
        -11   -1    0    0    0    0  0.00000000000E+00  0.00000000000E+00  0.45593999997E+02  0.45594000000E+02  0.51100000000E-03 0.  1.
         11   -1    0    0    0    0 -0.00000000000E+00 -0.00000000000E+00 -0.45593999997E+02  0.45594000000E+02  0.51100000000E-03 0. -1.
    9900012    2    1    2    0    0  0.15380718987E+02 -0.22922996077E+02  0.15959057216E+02  0.59301925094E+02  0.49999965469E+02 0.  0.
         12    1    1    2    0    0 -0.15380718987E+02  0.22922996077E+02 -0.15959057216E+02  0.31886074906E+02  0.00000000000E+00 0. -1.
         11    1    3    3    0    0  0.95663669835E+01  0.93944727457E+01  0.15368576078E+02  0.20395210868E+02  0.51100000000E-03 0. -1.
        -11    1    3    3    0    0 -0.43580060440E+01 -0.22467382237E+02 -0.54278020688E+01  0.23520980354E+02  0.51100000000E-03 0.  1.
         12    1    3    3    0    0  0.10172358047E+02 -0.98500865853E+01  0.60182832070E+01  0.15385733871E+02  0.00000000000E+00 0. -1.
</event>
<event>
 7    1  0.4237994E-013  0.5930172E+02  0.7816164E-02  0.1266606E+00
        -11   -1    0    0    0    0  0.00000000000E+00  0.00000000000E+00  0.45593999997E+02  0.45594000000E+02  0.51100000000E-03 0.  1.
         11   -1    0    0    0    0 -0.00000000000E+00 -0.00000000000E+00 -0.45593999997E+02  0.45594000000E+02  0.51100000000E-03 0. -1.
    9900012    2    1    2    0    0 -0.25202220811E+02  0.14828803606E+02  0.12715720441E+02  0.59301719306E+02  0.49999590159E+02 0.  0.
         12    1    1    2    0    0  0.25202220811E+02 -0.14828803606E+02 -0.12715720441E+02  0.31886280694E+02  0.00000000000E+00 0. -1.
         11    1    3    3    0    0 -0.24402603665E+02 -0.12934654563E+02 -0.59332755609E+00  0.27625068184E+02  0.51100000000E-03 0. -1.
        -11    1    3    3    0    0 -0.30633065350E+01  0.19713918386E+02  0.11802624590E+02  0.23180258250E+02  0.51100000000E-03 0.  1.
         12    1    3    3    0    0  0.22636893889E+01  0.80495397827E+01  0.15064234064E+01  0.84963928723E+01  0.00000000000E+00 0. -1.
</event>
<event>
 7    1  0.4237994E-013  0.5930195E+02  0.7816164E-02  0.1266605E+00
        -11   -1    0    0    0    0  0.00000000000E+00  0.00000000000E+00  0.45593999997E+02  0.45594000000E+02  0.51100000000E-03 0.  1.
         11   -1    0    0    0    0 -0.00000000000E+00 -0.00000000000E+00 -0.45593999997E+02  0.45594000000E+02  0.51100000000E-03 0. -1.
    9900012    2    1    2    0    0  0.62509822153E+01  0.28161719831E+01  0.31140242332E+02  0.59301948256E+02  0.50000007712E+02 0.  0.
         12    1    1    2    0    0 -0.62509822153E+01 -0.28161719831E+01 -0.31140242332E+02  0.31886051744E+02  0.00000000000E+00 0. -1.
         11    1    3    3    0    0  0.17825203628E+02 -0.13129579803E+01 -0.94448745734E+00  0.17898430095E+02  0.51100000000E-03 0. -1.
        -11    1    3    3    0    0 -0.10666971024E+02  0.12515746780E+01  0.35357178121E+02  0.36952412032E+02  0.51100000000E-03 0.  1.
         12    1    3    3    0    0 -0.90725038881E+00  0.28775552853E+01 -0.32724483319E+01  0.44511061291E+01  0.00000000000E+00 0. -1.
</event>
<event>
 7    1  0.4237994E-013  0.5930204E+02  0.7816164E-02  0.1266604E+00
        -11   -1    0    0    0    0  0.00000000000E+00  0.00000000000E+00  0.45593999997E+02  0.45594000000E+02  0.51100000000E-03 0.  1.
         11   -1    0    0    0    0 -0.00000000000E+00 -0.00000000000E+00 -0.45593999997E+02  0.45594000000E+02  0.51100000000E-03 0. -1.
    9900012    2    1    2    0    0  0.10934900028E+02  0.27626340615E+02  0.11572713033E+02  0.59302040373E+02  0.50000175710E+02 0.  0.
         12    1    1    2    0    0 -0.10934900028E+02 -0.27626340615E+02 -0.11572713033E+02  0.31885959627E+02  0.00000000000E+00 0. -1.
         11    1    3    3    0    0  0.13592374199E+02  0.30567836090E+02  0.12529776026E+02  0.35723109147E+02  0.51100000000E-03 0. -1.
        -11    1    3    3    0    0 -0.75017500499E+01  0.79190798241E+00  0.90927165547E+01  0.11814434674E+02  0.51100000000E-03 0.  1.
         12    1    3    3    0    0  0.48442758785E+01 -0.37334034576E+01 -0.10049779548E+02  0.11764496552E+02  0.00000000000E+00 0. -1.
</event>
<event>
 7    1  0.4237994E-013  0.5930196E+02  0.7816164E-02  0.1266605E+00
        -11   -1    0    0    0    0  0.00000000000E+00  0.00000000000E+00  0.45593999997E+02  0.45594000000E+02  0.51100000000E-03 0.  1.
         11   -1    0    0    0    0 -0.00000000000E+00 -0.00000000000E+00 -0.45593999997E+02  0.45594000000E+02  0.51100000000E-03 0. -1.
    9900012    2    1    2    0    0 -0.20414508098E+02  0.23317505000E+02  0.75007469836E+01  0.59301962528E+02  0.50000033741E+02 0.  0.
         12    1    1    2    0    0  0.20414508098E+02 -0.23317505000E+02 -0.75007469836E+01  0.31886037472E+02  0.00000000000E+00 0. -1.
         11    1    3    3    0    0  0.64230745590E+01 -0.58142168256E+00  0.32982829387E+01  0.72437979382E+01  0.51100000000E-03 0. -1.
        -11    1    3    3    0    0 -0.32836761340E+02  0.69119203573E+01 -0.12879607354E-01  0.33556336279E+02  0.51100000000E-03 0.  1.
        -12    1    3    3    0    0  0.59991786825E+01  0.16987006325E+02  0.42153436522E+01  0.18501828311E+02  0.00000000000E+00 0.  1.
</event>
<event>
 7    1  0.4237994E-013  0.5930195E+02  0.7816164E-02  0.1266605E+00
        -11   -1    0    0    0    0  0.00000000000E+00  0.00000000000E+00  0.45593999997E+02  0.45594000000E+02  0.51100000000E-03 0.  1.
         11   -1    0    0    0    0 -0.00000000000E+00 -0.00000000000E+00 -0.45593999997E+02  0.45594000000E+02  0.51100000000E-03 0. -1.
    9900012    2    1    2    0    0 -0.67108864017E+01 -0.58286740518E+01  0.30622065694E+02  0.59301947487E+02  0.50000006309E+02 0.  0.
         12    1    1    2    0    0  0.67108864017E+01  0.58286740518E+01 -0.30622065694E+02  0.31886052513E+02  0.00000000000E+00 0. -1.
         11    1    3    3    0    0  0.18582512455E+02 -0.42237460444E+01  0.16676897384E+02  0.25323283879E+02  0.51100000000E-03 0. -1.
        -11    1    3    3    0    0 -0.55313080516E+01  0.52943136049E+01  0.10136329011E+02  0.12703160685E+02  0.51100000000E-03 0.  1.
         12    1    3    3    0    0 -0.19762090805E+02 -0.68992416123E+01  0.38088392990E+01  0.21275502923E+02  0.00000000000E+00 0. -1.
</event>
<event>
 7    1  0.4237994E-013  0.5930194E+02  0.7816164E-02  0.1266605E+00
        -11   -1    0    0    0    0  0.00000000000E+00  0.00000000000E+00  0.45593999997E+02  0.45594000000E+02  0.51100000000E-03 0. -1.
         11   -1    0    0    0    0 -0.00000000000E+00 -0.00000000000E+00 -0.45593999997E+02  0.45594000000E+02  0.51100000000E-03 0.  1.
    9900012    2    1    2    0    0  0.10227551442E+02  0.29945436344E+02 -0.39228689864E+01  0.59301939293E+02  0.49999991365E+02 0.  0.
         12    1    1    2    0    0 -0.10227551442E+02 -0.29945436344E+02  0.39228689864E+01  0.31886060707E+02  0.00000000000E+00 0. -1.
         11    1    3    3    0    0 -0.96837546552E+01  0.16089842749E+02 -0.11263654065E+02  0.21898128849E+02  0.51100000000E-03 0. -1.
        -11    1    3    3    0    0  0.21954779925E+02  0.18959669065E+02  0.10196498461E+01  0.29026213991E+02  0.51100000000E-03 0.  1.
        -12    1    3    3    0    0 -0.20434738276E+01 -0.51040754705E+01  0.63211352326E+01  0.83775964525E+01  0.00000000000E+00 0.  1.
</event>
<event>
 7    1  0.4237994E-013  0.5930194E+02  0.7816164E-02  0.1266605E+00
        -11   -1    0    0    0    0  0.00000000000E+00  0.00000000000E+00  0.45593999997E+02  0.45594000000E+02  0.51100000000E-03 0.  1.
         11   -1    0    0    0    0 -0.00000000000E+00 -0.00000000000E+00 -0.45593999997E+02  0.45594000000E+02  0.51100000000E-03 0. -1.
    9900012    2    1    2    0    0 -0.97900757721E+01 -0.13965070672E+02  0.26941640893E+02  0.59301940405E+02  0.49999993393E+02 0.  0.
         12    1    1    2    0    0  0.97900757721E+01  0.13965070672E+02 -0.26941640893E+02  0.31886059595E+02  0.00000000000E+00 0. -1.
         11    1    3    3    0    0 -0.71876307006E+01 -0.28931774892E+01  0.23142550284E+01  0.80863024721E+01  0.51100000000E-03 0. -1.
        -11    1    3    3    0    0 -0.95320304707E+01  0.13759196660E+02  0.18036221947E+02  0.24606511333E+02  0.51100000000E-03 0.  1.
        -12    1    3    3    0    0  0.69295853993E+01 -0.24831089843E+02  0.65911639180E+01  0.26609126599E+02  0.00000000000E+00 0.  1.
</event>
<event>
 7    1  0.4237994E-013  0.5930181E+02  0.7816164E-02  0.1266605E+00
        -11   -1    0    0    0    0  0.00000000000E+00  0.00000000000E+00  0.45593999997E+02  0.45594000000E+02  0.51100000000E-03 0.  1.
         11   -1    0    0    0    0 -0.00000000000E+00 -0.00000000000E+00 -0.45593999997E+02  0.45594000000E+02  0.51100000000E-03 0. -1.
    9900012    2    1    2    0    0 -0.24793361187E+02  0.13658287342E+02  0.14678872701E+02  0.59301813714E+02  0.49999762339E+02 0.  0.
         12    1    1    2    0    0  0.24793361187E+02 -0.13658287342E+02 -0.14678872701E+02  0.31886186286E+02  0.00000000000E+00 0. -1.
         11    1    3    3    0    0 -0.20888477105E+02  0.10225696883E+02 -0.13858206125E+01  0.23298365856E+02  0.51100000000E-03 0. -1.
        -11    1    3    3    0    0  0.12151118664E+02  0.90545368385E+01  0.65182942675E+01  0.16496135383E+02  0.51100000000E-03 0.  1.
        -12    1    3    3    0    0 -0.16056002746E+02 -0.56219463798E+01  0.95463990463E+01  0.19507312476E+02  0.00000000000E+00 0.  1.
</event>
<event>
 7    1  0.4237994E-013  0.5930199E+02  0.7816164E-02  0.1266605E+00
        -11   -1    0    0    0    0  0.00000000000E+00  0.00000000000E+00  0.45593999997E+02  0.45594000000E+02  0.51100000000E-03 0.  1.
         11   -1    0    0    0    0 -0.00000000000E+00 -0.00000000000E+00 -0.45593999997E+02  0.45594000000E+02  0.51100000000E-03 0. -1.
    9900012    2    1    2    0    0 -0.10489088808E+02 -0.19555358689E+02  0.22897262397E+02  0.59301989545E+02  0.50000083012E+02 0.  0.
         12    1    1    2    0    0  0.10489088808E+02  0.19555358689E+02 -0.22897262397E+02  0.31886010455E+02  0.00000000000E+00 0. -1.
         11    1    3    3    0    0 -0.64471884660E+01  0.63335466917E+01 -0.26524754251E+01  0.94189000925E+01  0.51100000000E-03 0. -1.
        -11    1    3    3    0    0  0.98968846434E+01 -0.26093381092E+02  0.11789024896E+02  0.30295114634E+02  0.51100000000E-03 0.  1.
        -12    1    3    3    0    0 -0.13938784986E+02  0.20447571191E+00  0.13760712927E+02  0.19587974818E+02  0.00000000000E+00 0.  1.
</event>
<event>
 7    1  0.4237994E-013  0.5930192E+02  0.7816164E-02  0.1266605E+00
        -11   -1    0    0    0    0  0.00000000000E+00  0.00000000000E+00  0.45593999997E+02  0.45594000000E+02  0.51100000000E-03 0.  1.
         11   -1    0    0    0    0 -0.00000000000E+00 -0.00000000000E+00 -0.45593999997E+02  0.45594000000E+02  0.51100000000E-03 0. -1.
    9900012    2    1    2    0    0 -0.21277986585E+02  0.74764365251E+01  0.22540454332E+02  0.59301923137E+02  0.49999961900E+02 0.  0.
         12    1    1    2    0    0  0.21277986585E+02 -0.74764365251E+01 -0.22540454332E+02  0.31886076863E+02  0.00000000000E+00 0. -1.
         11    1    3    3    0    0 -0.14474136303E+02  0.77110211741E+01 -0.11303802361E+02  0.19918243330E+02  0.51100000000E-03 0. -1.
        -11    1    3    3    0    0 -0.12495944814E+02  0.33282117868E+01  0.26139180670E+02  0.29163031338E+02  0.51100000000E-03 0.  1.
         12    1    3    3    0    0  0.56920945318E+01 -0.35627964358E+01  0.77050760233E+01  0.10220648469E+02  0.00000000000E+00 0. -1.
</event>
<event>
 7    1  0.4237994E-013  0.5930194E+02  0.7816164E-02  0.1266605E+00
        -11   -1    0    0    0    0  0.00000000000E+00  0.00000000000E+00  0.45593999997E+02  0.45594000000E+02  0.51100000000E-03 0. -1.
         11   -1    0    0    0    0 -0.00000000000E+00 -0.00000000000E+00 -0.45593999997E+02  0.45594000000E+02  0.51100000000E-03 0.  1.
    9900012    2    1    2    0    0 -0.38383102109E+01 -0.35118522083E+01 -0.31458787706E+02  0.59301936349E+02  0.49999985996E+02 0.  0.
         12    1    1    2    0    0  0.38383102109E+01  0.35118522083E+01  0.31458787706E+02  0.31886063651E+02  0.00000000000E+00 0. -1.
         11    1    3    3    0    0 -0.13992742028E+02  0.38068762856E+01 -0.40855403265E+01  0.15065881207E+02  0.51100000000E-03 0. -1.
        -11    1    3    3    0    0  0.64986734028E+01  0.11715708217E+01 -0.32839535472E+02  0.33496871860E+02  0.51100000000E-03 0.  1.
         12    1    3    3    0    0  0.36557584146E+01 -0.84902993156E+01  0.54662880919E+01  0.10739183282E+02  0.00000000000E+00 0. -1.
</event>
<event>
 7    1  0.4237994E-013  0.5930189E+02  0.7816164E-02  0.1266605E+00
        -11   -1    0    0    0    0  0.00000000000E+00  0.00000000000E+00  0.45593999997E+02  0.45594000000E+02  0.51100000000E-03 0. -1.
         11   -1    0    0    0    0 -0.00000000000E+00 -0.00000000000E+00 -0.45593999997E+02  0.45594000000E+02  0.51100000000E-03 0.  1.
    9900012    2    1    2    0    0 -0.12504352013E+02 -0.19542541638E+02 -0.21873593355E+02  0.59301892693E+02  0.49999906377E+02 0.  0.
         12    1    1    2    0    0  0.12504352013E+02  0.19542541638E+02  0.21873593355E+02  0.31886107307E+02  0.00000000000E+00 0. -1.
         11    1    3    3    0    0  0.69644689033E+01  0.56281847956E+01  0.56028602970E+01  0.10562780646E+02  0.51100000000E-03 0. -1.
        -11    1    3    3    0    0 -0.92089388569E+01  0.74454618373E+00 -0.16245972848E+02  0.18689316144E+02  0.51100000000E-03 0.  1.
        -12    1    3    3    0    0 -0.10259882060E+02 -0.25915272618E+02 -0.11230480804E+02  0.30049795903E+02  0.00000000000E+00 0.  1.
</event>
<event>
 7    1  0.4237994E-013  0.5930188E+02  0.7816164E-02  0.1266605E+00
        -11   -1    0    0    0    0  0.00000000000E+00  0.00000000000E+00  0.45593999997E+02  0.45594000000E+02  0.51100000000E-03 0. -1.
         11   -1    0    0    0    0 -0.00000000000E+00 -0.00000000000E+00 -0.45593999997E+02  0.45594000000E+02  0.51100000000E-03 0.  1.
    9900012    2    1    2    0    0 -0.80929987150E+01  0.23591128834E+02 -0.19866719580E+02  0.59301881786E+02  0.49999886486E+02 0.  0.
         12    1    1    2    0    0  0.80929987150E+01 -0.23591128834E+02  0.19866719580E+02  0.31886118214E+02  0.00000000000E+00 0. -1.
         11    1    3    3    0    0 -0.12887685192E+02  0.15979192799E+02 -0.57404704101E+01  0.21316191801E+02  0.51100000000E-03 0. -1.
        -11    1    3    3    0    0  0.12102199286E+02 -0.43179306684E+01 -0.19200877231E+02  0.23103710514E+02  0.51100000000E-03 0.  1.
         12    1    3    3    0    0 -0.73075128096E+01  0.11929866703E+02  0.50746280610E+01  0.14881979471E+02  0.00000000000E+00 0. -1.
</event>
<event>
 7    1  0.4237994E-013  0.5930196E+02  0.7816164E-02  0.1266605E+00
        -11   -1    0    0    0    0  0.00000000000E+00  0.00000000000E+00  0.45593999997E+02  0.45594000000E+02  0.51100000000E-03 0. -1.
         11   -1    0    0    0    0 -0.00000000000E+00 -0.00000000000E+00 -0.45593999997E+02  0.45594000000E+02  0.51100000000E-03 0.  1.
    9900012    2    1    2    0    0 -0.18416327657E+02  0.97146513845E-01 -0.26029766231E+02  0.59301963999E+02  0.50000036423E+02 0.  0.
         12    1    1    2    0    0  0.18416327657E+02 -0.97146513845E-01  0.26029766231E+02  0.31886036001E+02  0.00000000000E+00 0. -1.
         11    1    3    3    0    0 -0.26235701541E+01  0.85834049780E+01  0.89391096242E+01  0.12667503405E+02  0.51100000000E-03 0. -1.
        -11    1    3    3    0    0 -0.21594825774E+02 -0.42974316380E+01 -0.18798864028E+02  0.28951713384E+02  0.51100000000E-03 0.  1.
        -12    1    3    3    0    0  0.58020682713E+01 -0.41888268261E+01 -0.16170011827E+02  0.17682747210E+02  0.00000000000E+00 0.  1.
</event>
<event>
 7    1  0.4237994E-013  0.5930187E+02  0.7816164E-02  0.1266605E+00
        -11   -1    0    0    0    0  0.00000000000E+00  0.00000000000E+00  0.45593999997E+02  0.45594000000E+02  0.51100000000E-03 0.  1.
         11   -1    0    0    0    0 -0.00000000000E+00 -0.00000000000E+00 -0.45593999997E+02  0.45594000000E+02  0.51100000000E-03 0. -1.
    9900012    2    1    2    0    0 -0.92080940841E+01  0.35969811263E+01  0.30314975463E+02  0.59301874377E+02  0.49999872974E+02 0.  0.
         12    1    1    2    0    0  0.92080940841E+01 -0.35969811263E+01 -0.30314975463E+02  0.31886125623E+02  0.00000000000E+00 0. -1.
         11    1    3    3    0    0  0.84834283814E+01  0.11788488766E+01 -0.77041889834E+01  0.11520102861E+02  0.51100000000E-03 0. -1.
        -11    1    3    3    0    0 -0.19027031820E+02 -0.33222582895E+01  0.37086470407E+02  0.41814729791E+02  0.51100000000E-03 0.  1.
        -12    1    3    3    0    0  0.13355093541E+01  0.57403905391E+01  0.93269403981E+00  0.59670417251E+01  0.00000000000E+00 0.  1.
</event>
<event>
 7    1  0.4237994E-013  0.5930194E+02  0.7816164E-02  0.1266605E+00
        -11   -1    0    0    0    0  0.00000000000E+00  0.00000000000E+00  0.45593999997E+02  0.45594000000E+02  0.51100000000E-03 0.  1.
         11   -1    0    0    0    0 -0.00000000000E+00 -0.00000000000E+00 -0.45593999997E+02  0.45594000000E+02  0.51100000000E-03 0. -1.
    9900012    2    1    2    0    0 -0.83361514000E+01  0.16076688831E+01  0.30735072835E+02  0.59301941580E+02  0.49999995536E+02 0.  0.
         12    1    1    2    0    0  0.83361514000E+01 -0.16076688831E+01 -0.30735072835E+02  0.31886058420E+02  0.00000000000E+00 0. -1.
         11    1    3    3    0    0  0.10156676045E+02  0.30792009557E+01 -0.38247823797E+01  0.11281334465E+02  0.51100000000E-03 0. -1.
        -11    1    3    3    0    0 -0.12188900700E+02 -0.52444746387E+01  0.37747715821E+02  0.40012046492E+02  0.51100000000E-03 0.  1.
        -12    1    3    3    0    0 -0.63039267444E+01  0.37729425662E+01 -0.31878606061E+01  0.80085606229E+01  0.00000000000E+00 0.  1.
</event>
<event>
 7    1  0.4237994E-013  0.5930197E+02  0.7816164E-02  0.1266605E+00
        -11   -1    0    0    0    0  0.00000000000E+00  0.00000000000E+00  0.45593999997E+02  0.45594000000E+02  0.51100000000E-03 0. -1.
         11   -1    0    0    0    0 -0.00000000000E+00 -0.00000000000E+00 -0.45593999997E+02  0.45594000000E+02  0.51100000000E-03 0.  1.
    9900012    2    1    2    0    0  0.23256533454E+02  0.20412092801E+02 -0.76941069189E+01  0.59301966034E+02  0.50000040133E+02 0.  0.
         12    1    1    2    0    0 -0.23256533454E+02 -0.20412092801E+02  0.76941069189E+01  0.31886033966E+02  0.00000000000E+00 0. -1.
         11    1    3    3    0    0  0.13316494279E+02  0.29601584350E+02  0.12566216186E+02  0.34806502344E+02  0.51100000000E-03 0. -1.
        -11    1    3    3    0    0  0.59615428507E+01 -0.39416514368E+01 -0.11418642726E+02  0.13470783614E+02  0.51100000000E-03 0.  1.
         12    1    3    3    0    0  0.39784963244E+01 -0.52478401122E+01 -0.88416803789E+01  0.11024680076E+02  0.00000000000E+00 0. -1.
</event>
<event>
 7    1  0.4237994E-013  0.5930194E+02  0.7816164E-02  0.1266605E+00
        -11   -1    0    0    0    0  0.00000000000E+00  0.00000000000E+00  0.45593999997E+02  0.45594000000E+02  0.51100000000E-03 0.  1.
         11   -1    0    0    0    0 -0.00000000000E+00 -0.00000000000E+00 -0.45593999997E+02  0.45594000000E+02  0.51100000000E-03 0. -1.
    9900012    2    1    2    0    0  0.16287434932E+02 -0.10294430987E+02  0.25405997562E+02  0.59301944143E+02  0.50000000210E+02 0.  0.
         12    1    1    2    0    0 -0.16287434932E+02  0.10294430987E+02 -0.25405997562E+02  0.31886055857E+02  0.00000000000E+00 0. -1.
         11    1    3    3    0    0 -0.12697603745E+02 -0.12676713394E+02  0.70854767867E+01  0.19290727951E+02  0.51100000000E-03 0. -1.
        -11    1    3    3    0    0  0.84528613807E+01  0.78225632321E+01 -0.64570884168E+00  0.11535176687E+02  0.51100000000E-03 0.  1.
         12    1    3    3    0    0  0.20532177296E+02 -0.54402808246E+01  0.18966229617E+02  0.28476039504E+02  0.00000000000E+00 0. -1.
</event>
<event>
 7    1  0.4237994E-013  0.5930192E+02  0.7816164E-02  0.1266605E+00
        -11   -1    0    0    0    0  0.00000000000E+00  0.00000000000E+00  0.45593999997E+02  0.45594000000E+02  0.51100000000E-03 0.  1.
         11   -1    0    0    0    0 -0.00000000000E+00 -0.00000000000E+00 -0.45593999997E+02  0.45594000000E+02  0.51100000000E-03 0. -1.
    9900012    2    1    2    0    0 -0.28910584190E+02 -0.83766925959E+01  0.10522876908E+02  0.59301924740E+02  0.49999964824E+02 0.  0.
         12    1    1    2    0    0  0.28910584190E+02  0.83766925959E+01 -0.10522876908E+02  0.31886075260E+02  0.00000000000E+00 0. -1.
         11    1    3    3    0    0 -0.18149985483E+02  0.13019447816E+02  0.16345720097E+02  0.27678702285E+02  0.51100000000E-03 0. -1.
        -11    1    3    3    0    0 -0.13556616242E+02 -0.10534270553E+02  0.29038400816E+01  0.17412208002E+02  0.51100000000E-03 0.  1.
         12    1    3    3    0    0  0.27960175349E+01 -0.10861869858E+02 -0.87266832708E+01  0.14211014453E+02  0.00000000000E+00 0. -1.
</event>
<event>
 7    1  0.4237994E-013  0.5930196E+02  0.7816164E-02  0.1266605E+00
        -11   -1    0    0    0    0  0.00000000000E+00  0.00000000000E+00  0.45593999997E+02  0.45594000000E+02  0.51100000000E-03 0.  1.
         11   -1    0    0    0    0 -0.00000000000E+00 -0.00000000000E+00 -0.45593999997E+02  0.45594000000E+02  0.51100000000E-03 0. -1.
    9900012    2    1    2    0    0  0.16143013047E+02  0.72748821361E+01  0.26517897277E+02  0.59301958284E+02  0.50000026001E+02 0.  0.
         12    1    1    2    0    0 -0.16143013047E+02 -0.72748821361E+01 -0.26517897277E+02  0.31886041716E+02  0.00000000000E+00 0. -1.
         11    1    3    3    0    0 -0.98248588272E+01  0.18205576521E+02  0.11150278628E+02  0.23501054895E+02  0.51100000000E-03 0. -1.
        -11    1    3    3    0    0  0.27599544810E+02 -0.81609285813E+01  0.12111773544E+02  0.31225481384E+02  0.51100000000E-03 0.  1.
         12    1    3    3    0    0 -0.16316729365E+01 -0.27697658035E+01  0.32558451050E+01  0.45754220052E+01  0.00000000000E+00 0. -1.
</event>
<event>
 7    1  0.4237994E-013  0.5930196E+02  0.7816164E-02  0.1266605E+00
        -11   -1    0    0    0    0  0.00000000000E+00  0.00000000000E+00  0.45593999997E+02  0.45594000000E+02  0.51100000000E-03 0.  1.
         11   -1    0    0    0    0 -0.00000000000E+00 -0.00000000000E+00 -0.45593999997E+02  0.45594000000E+02  0.51100000000E-03 0. -1.
    9900012    2    1    2    0    0  0.74982519490E+01 -0.21540784958E+02  0.22282069261E+02  0.59301955883E+02  0.50000021621E+02 0.  0.
         12    1    1    2    0    0 -0.74982519490E+01  0.21540784958E+02 -0.22282069261E+02  0.31886044117E+02  0.00000000000E+00 0. -1.
         11    1    3    3    0    0 -0.77949713484E+01 -0.17802942712E+01 -0.50697793508E+01  0.94675070077E+01  0.51100000000E-03 0. -1.
        -11    1    3    3    0    0  0.20731776560E+02 -0.26043253960E+02  0.20791336606E+02  0.39247131287E+02  0.51100000000E-03 0.  1.
        -12    1    3    3    0    0 -0.54385532621E+01  0.62827632730E+01  0.65605120056E+01  0.10587317588E+02  0.00000000000E+00 0.  1.
</event>
<event>
 7    1  0.4237994E-013  0.5930173E+02  0.7816164E-02  0.1266605E+00
        -11   -1    0    0    0    0  0.00000000000E+00  0.00000000000E+00  0.45593999997E+02  0.45594000000E+02  0.51100000000E-03 0.  1.
         11   -1    0    0    0    0 -0.00000000000E+00 -0.00000000000E+00 -0.45593999997E+02  0.45594000000E+02  0.51100000000E-03 0. -1.
    9900012    2    1    2    0    0 -0.11543810408E+02 -0.11384477806E+02  0.27456659475E+02  0.59301732686E+02  0.49999614562E+02 0.  0.
         12    1    1    2    0    0  0.11543810408E+02  0.11384477806E+02 -0.27456659475E+02  0.31886267314E+02  0.00000000000E+00 0. -1.
         11    1    3    3    0    0  0.35538755113E+01 -0.90451488042E+01 -0.54252919695E+01  0.11130073731E+02  0.51100000000E-03 0. -1.
        -11    1    3    3    0    0  0.54154023100E+01  0.80560712077E+00  0.25599176148E+02  0.26178109265E+02  0.51100000000E-03 0.  1.
        -12    1    3    3    0    0 -0.20513088230E+02 -0.31449361228E+01  0.72827752974E+01  0.21993549690E+02  0.00000000000E+00 0.  1.
</event>
<event>
 7    1  0.4237994E-013  0.5930182E+02  0.7816164E-02  0.1266605E+00
        -11   -1    0    0    0    0  0.00000000000E+00  0.00000000000E+00  0.45593999997E+02  0.45594000000E+02  0.51100000000E-03 0.  1.
         11   -1    0    0    0    0 -0.00000000000E+00 -0.00000000000E+00 -0.45593999997E+02  0.45594000000E+02  0.51100000000E-03 0. -1.
    9900012    2    1    2    0    0  0.92451652826E+01 -0.10443524680E+02  0.28673821350E+02  0.59301822436E+02  0.49999778246E+02 0.  0.
         12    1    1    2    0    0 -0.92451652826E+01  0.10443524680E+02 -0.28673821350E+02  0.31886177564E+02  0.00000000000E+00 0. -1.
         11    1    3    3    0    0  0.14319458545E+01  0.10134779853E+02 -0.71753388072E+01  0.12499988755E+02  0.51100000000E-03 0. -1.
        -11    1    3    3    0    0  0.95939342701E+01 -0.19742802442E+00  0.12480150156E+02  0.15742830139E+02  0.51100000000E-03 0.  1.
         12    1    3    3    0    0 -0.17807148420E+01 -0.20380876509E+02  0.23369010001E+02  0.31059003543E+02  0.00000000000E+00 0. -1.
</event>
<event>
 7    1  0.4237994E-013  0.5930195E+02  0.7816164E-02  0.1266605E+00
        -11   -1    0    0    0    0  0.00000000000E+00  0.00000000000E+00  0.45593999997E+02  0.45594000000E+02  0.51100000000E-03 0. -1.
         11   -1    0    0    0    0 -0.00000000000E+00 -0.00000000000E+00 -0.45593999997E+02  0.45594000000E+02  0.51100000000E-03 0.  1.
    9900012    2    1    2    0    0 -0.14337470905E+02  0.13427165133E+02 -0.25117092267E+02  0.59301950395E+02  0.50000011613E+02 0.  0.
         12    1    1    2    0    0  0.14337470905E+02 -0.13427165133E+02  0.25117092267E+02  0.31886049605E+02  0.00000000000E+00 0. -1.
         11    1    3    3    0    0  0.32734016614E+00 -0.62108838575E+01  0.70978178072E+01  0.94372266986E+01  0.51100000000E-03 0. -1.
        -11    1    3    3    0    0 -0.95306639188E+01 -0.24743728260E+00 -0.27059573126E+02  0.28689985674E+02  0.51100000000E-03 0.  1.
         12    1    3    3    0    0 -0.51341471526E+01  0.19885486273E+02 -0.51553369475E+01  0.21174738023E+02  0.00000000000E+00 0. -1.
</event>
<event>
 7    1  0.4237994E-013  0.5930194E+02  0.7816164E-02  0.1266605E+00
        -11   -1    0    0    0    0  0.00000000000E+00  0.00000000000E+00  0.45593999997E+02  0.45594000000E+02  0.51100000000E-03 0.  1.
         11   -1    0    0    0    0 -0.00000000000E+00 -0.00000000000E+00 -0.45593999997E+02  0.45594000000E+02  0.51100000000E-03 0. -1.
    9900012    2    1    2    0    0 -0.27633752881E+02  0.14797680939E+02  0.58416745567E+01  0.59301940020E+02  0.49999992690E+02 0.  0.
         12    1    1    2    0    0  0.27633752881E+02 -0.14797680939E+02 -0.58416745567E+01  0.31886059980E+02  0.00000000000E+00 0. -1.
         11    1    3    3    0    0 -0.31861773902E+02  0.21944759649E+02  0.70074341784E+01  0.39317289407E+02  0.51100000000E-03 0.  1.
        -11    1    3    3    0    0  0.36537091964E+01 -0.66045791815E+01  0.78758047452E+01  0.10908636840E+02  0.51100000000E-03 0. -1.
        -12    1    3    3    0    0  0.57431182522E+00 -0.54249952821E+00 -0.90415643670E+01  0.90760137733E+01  0.00000000000E+00 0.  1.
</event>
<event>
 7    1  0.4237994E-013  0.5930194E+02  0.7816164E-02  0.1266605E+00
        -11   -1    0    0    0    0  0.00000000000E+00  0.00000000000E+00  0.45593999997E+02  0.45594000000E+02  0.51100000000E-03 0.  1.
         11   -1    0    0    0    0 -0.00000000000E+00 -0.00000000000E+00 -0.45593999997E+02  0.45594000000E+02  0.51100000000E-03 0. -1.
    9900012    2    1    2    0    0 -0.10352426720E+02 -0.10039784894E+02  0.28438540235E+02  0.59301943636E+02  0.49999999286E+02 0.  0.
         12    1    1    2    0    0  0.10352426720E+02  0.10039784894E+02 -0.28438540235E+02  0.31886056364E+02  0.00000000000E+00 0. -1.
         11    1    3    3    0    0  0.11193957355E+02 -0.16390358926E+02 -0.42814276852E+00  0.19852754304E+02  0.51100000000E-03 0. -1.
        -11    1    3    3    0    0 -0.11636737280E+02  0.24518351529E+00  0.24304127149E+02  0.26947437099E+02  0.51100000000E-03 0.  1.
         12    1    3    3    0    0 -0.99096467953E+01  0.61053905164E+01  0.45625558543E+01  0.12501752233E+02  0.00000000000E+00 0. -1.
</event>
<event>
 7    1  0.4237994E-013  0.5930196E+02  0.7816164E-02  0.1266605E+00
        -11   -1    0    0    0    0  0.00000000000E+00  0.00000000000E+00  0.45593999997E+02  0.45594000000E+02  0.51100000000E-03 0. -1.
         11   -1    0    0    0    0 -0.00000000000E+00 -0.00000000000E+00 -0.45593999997E+02  0.45594000000E+02  0.51100000000E-03 0.  1.
    9900012    2    1    2    0    0 -0.32187852875E+01 -0.24459650409E+02 -0.20201105047E+02  0.59301957254E+02  0.50000024122E+02 0.  0.
         12    1    1    2    0    0  0.32187852875E+01  0.24459650409E+02  0.20201105047E+02  0.31886042746E+02  0.00000000000E+00 0. -1.
         11    1    3    3    0    0  0.13236757816E+02 -0.15622821804E+01 -0.62676562851E+00  0.13343362339E+02  0.51100000000E-03 0. -1.
        -11    1    3    3    0    0 -0.15594822105E+02 -0.20446964280E+02 -0.27481069980E+02  0.37636232972E+02  0.51100000000E-03 0.  1.
         12    1    3    3    0    0 -0.86072099834E+00 -0.24504039484E+01  0.79067305615E+01  0.83223619436E+01  0.00000000000E+00 0. -1.
</event>
<event>
 7    1  0.4237994E-013  0.5930192E+02  0.7816164E-02  0.1266605E+00
        -11   -1    0    0    0    0  0.00000000000E+00  0.00000000000E+00  0.45593999997E+02  0.45594000000E+02  0.51100000000E-03 0. -1.
         11   -1    0    0    0    0 -0.00000000000E+00 -0.00000000000E+00 -0.45593999997E+02  0.45594000000E+02  0.51100000000E-03 0.  1.
    9900012    2    1    2    0    0  0.14721219125E+02  0.16608173464E+02 -0.22894899381E+02  0.59301919400E+02  0.49999955085E+02 0.  0.
         12    1    1    2    0    0 -0.14721219125E+02 -0.16608173464E+02  0.22894899381E+02  0.31886080600E+02  0.00000000000E+00 0. -1.
         11    1    3    3    0    0  0.14027137343E+01 -0.10918921315E+02  0.18475438802E+00  0.11010203583E+02  0.51100000000E-03 0. -1.
        -11    1    3    3    0    0  0.18565098666E+02  0.23888656781E+02 -0.27207508871E+02  0.40688811122E+02  0.51100000000E-03 0.  1.
        -12    1    3    3    0    0 -0.52465932746E+01  0.36384379979E+01  0.41278551021E+01  0.76029046947E+01  0.00000000000E+00 0.  1.
</event>
<event>
 7    1  0.4237994E-013  0.5930193E+02  0.7816164E-02  0.1266605E+00
        -11   -1    0    0    0    0  0.00000000000E+00  0.00000000000E+00  0.45593999997E+02  0.45594000000E+02  0.51100000000E-03 0.  1.
         11   -1    0    0    0    0 -0.00000000000E+00 -0.00000000000E+00 -0.45593999997E+02  0.45594000000E+02  0.51100000000E-03 0. -1.
    9900012    2    1    2    0    0 -0.16065258999E+02  0.25907078368E+02  0.93515781358E+01  0.59301932982E+02  0.49999979855E+02 0.  0.
         12    1    1    2    0    0  0.16065258999E+02 -0.25907078368E+02 -0.93515781358E+01  0.31886067018E+02  0.00000000000E+00 0. -1.
         11    1    3    3    0    0 -0.53450258437E+01  0.13110367900E+02  0.29543019530E+02  0.32760357918E+02  0.51100000000E-03 0. -1.
        -11    1    3    3    0    0 -0.19054376651E+01  0.52144083093E+01 -0.56196399677E+01  0.78994367102E+01  0.51100000000E-03 0.  1.
         12    1    3    3    0    0 -0.88147954897E+01  0.75823021592E+01 -0.14571801427E+02  0.18642138353E+02  0.00000000000E+00 0. -1.
</event>
<event>
 7    1  0.4237994E-013  0.5930210E+02  0.7816164E-02  0.1266604E+00
        -11   -1    0    0    0    0  0.00000000000E+00  0.00000000000E+00  0.45593999997E+02  0.45594000000E+02  0.51100000000E-03 0. -1.
         11   -1    0    0    0    0 -0.00000000000E+00 -0.00000000000E+00 -0.45593999997E+02  0.45594000000E+02  0.51100000000E-03 0.  1.
    9900012    2    1    2    0    0 -0.16973670049E+02 -0.26605558817E+02  0.45551431033E+01  0.59302100866E+02  0.50000286034E+02 0.  0.
         12    1    1    2    0    0  0.16973670049E+02  0.26605558817E+02 -0.45551431033E+01  0.31885899134E+02  0.00000000000E+00 0. -1.
         11    1    3    3    0    0 -0.50543226870E+01  0.11659105788E+02  0.11594601251E-01  0.12707519833E+02  0.51100000000E-03 0. -1.
        -11    1    3    3    0    0 -0.62712695257E+01 -0.28771799973E+02 -0.73623265559E+01  0.30353733671E+02  0.51100000000E-03 0.  1.
         12    1    3    3    0    0 -0.56480778359E+01 -0.94928646321E+01  0.11905875058E+02  0.16240847363E+02  0.00000000000E+00 0. -1.
</event>
<event>
 7    1  0.4237994E-013  0.5930195E+02  0.7816164E-02  0.1266605E+00
        -11   -1    0    0    0    0  0.00000000000E+00  0.00000000000E+00  0.45593999997E+02  0.45594000000E+02  0.51100000000E-03 0. -1.
         11   -1    0    0    0    0 -0.00000000000E+00 -0.00000000000E+00 -0.45593999997E+02  0.45594000000E+02  0.51100000000E-03 0.  1.
    9900012    2    1    2    0    0 -0.17278332070E+02  0.26452290399E+02  0.42959811707E+01  0.59301954765E+02  0.50000019583E+02 0.  0.
         12    1    1    2    0    0  0.17278332070E+02 -0.26452290399E+02 -0.42959811707E+01  0.31886045235E+02  0.00000000000E+00 0. -1.
         11    1    3    3    0    0 -0.19538210667E+02  0.18660992576E+02  0.96341797094E+01  0.28684346584E+02  0.51100000000E-03 0. -1.
        -11    1    3    3    0    0  0.12872768560E+02  0.10652956802E+02 -0.90667516599E+01  0.19010514063E+02  0.51100000000E-03 0.  1.
         12    1    3    3    0    0 -0.10612889963E+02 -0.28616589789E+01  0.37285531212E+01  0.11607094118E+02  0.00000000000E+00 0. -1.
</event>
<event>
 7    1  0.4237994E-013  0.5930198E+02  0.7816164E-02  0.1266605E+00
        -11   -1    0    0    0    0  0.00000000000E+00  0.00000000000E+00  0.45593999997E+02  0.45594000000E+02  0.51100000000E-03 0.  1.
         11   -1    0    0    0    0 -0.00000000000E+00 -0.00000000000E+00 -0.45593999997E+02  0.45594000000E+02  0.51100000000E-03 0. -1.
    9900012    2    1    2    0    0  0.16645691754E+02  0.25332795482E+02  0.98938759361E+01  0.59301978581E+02  0.50000063017E+02 0.  0.
         12    1    1    2    0    0 -0.16645691754E+02 -0.25332795482E+02 -0.98938759361E+01  0.31886021419E+02  0.00000000000E+00 0. -1.
         11    1    3    3    0    0 -0.92061540327E+01  0.25436330991E+01 -0.49343138359E+01  0.10750385794E+02  0.51100000000E-03 0. -1.
        -11    1    3    3    0    0  0.25899847640E+02  0.26626509926E+02  0.43577804839E+01  0.37400045316E+02  0.51100000000E-03 0.  1.
        -12    1    3    3    0    0 -0.48001853679E-01 -0.38373475438E+01  0.10470409288E+02  0.11151547472E+02  0.00000000000E+00 0.  1.
</event>
<event>
 7    1  0.4237994E-013  0.5930193E+02  0.7816164E-02  0.1266605E+00
        -11   -1    0    0    0    0  0.00000000000E+00  0.00000000000E+00  0.45593999997E+02  0.45594000000E+02  0.51100000000E-03 0. -1.
         11   -1    0    0    0    0 -0.00000000000E+00 -0.00000000000E+00 -0.45593999997E+02  0.45594000000E+02  0.51100000000E-03 0.  1.
    9900012    2    1    2    0    0  0.13869602139E+02  0.16827598089E+02 -0.23263437829E+02  0.59301929992E+02  0.49999974401E+02 0.  0.
         12    1    1    2    0    0 -0.13869602139E+02 -0.16827598089E+02  0.23263437829E+02  0.31886070008E+02  0.00000000000E+00 0. -1.
         11    1    3    3    0    0 -0.98187754524E+01  0.72917173510E+01  0.78279905049E+01  0.14520844635E+02  0.51100000000E-03 0. -1.
        -11    1    3    3    0    0  0.24773556624E+02  0.53903320123E+01 -0.18236358500E+02  0.31230586908E+02  0.51100000000E-03 0.  1.
        -12    1    3    3    0    0 -0.10851790324E+01  0.41455487259E+01 -0.12855069834E+02  0.13550498449E+02  0.00000000000E+00 0.  1.
</event>
<event>
 7    1  0.4237994E-013  0.5930195E+02  0.7816164E-02  0.1266605E+00
        -11   -1    0    0    0    0  0.00000000000E+00  0.00000000000E+00  0.45593999997E+02  0.45594000000E+02  0.51100000000E-03 0.  1.
         11   -1    0    0    0    0 -0.00000000000E+00 -0.00000000000E+00 -0.45593999997E+02  0.45594000000E+02  0.51100000000E-03 0. -1.
    9900012    2    1    2    0    0  0.85321406398E+01  0.16255610938E+02  0.26070629049E+02  0.59301952740E+02  0.50000015889E+02 0.  0.
         12    1    1    2    0    0 -0.85321406398E+01 -0.16255610938E+02 -0.26070629049E+02  0.31886047260E+02  0.00000000000E+00 0. -1.
         11    1    3    3    0    0  0.10314662434E+01 -0.65499157891E+01  0.68296310616E+01  0.95188854471E+01  0.51100000000E-03 0. -1.
        -11    1    3    3    0    0 -0.50131722246E+01  0.16782223736E+02 -0.79621753253E+01  0.19239832781E+02  0.51100000000E-03 0.  1.
        -12    1    3    3    0    0  0.12513846621E+02  0.60233029911E+01  0.27203173312E+02  0.30543234512E+02  0.00000000000E+00 0.  1.
</event>
<event>
 7    1  0.4237994E-013  0.5930190E+02  0.7816164E-02  0.1266605E+00
        -11   -1    0    0    0    0  0.00000000000E+00  0.00000000000E+00  0.45593999997E+02  0.45594000000E+02  0.51100000000E-03 0. -1.
         11   -1    0    0    0    0 -0.00000000000E+00 -0.00000000000E+00 -0.45593999997E+02  0.45594000000E+02  0.51100000000E-03 0.  1.
    9900012    2    1    2    0    0 -0.21937200485E+02 -0.14202231833E+02 -0.18269625618E+02  0.59301899981E+02  0.49999919670E+02 0.  0.
         12    1    1    2    0    0  0.21937200485E+02  0.14202231833E+02  0.18269625618E+02  0.31886100019E+02  0.00000000000E+00 0. -1.
         11    1    3    3    0    0 -0.28613995954E+01 -0.14806135053E+02 -0.21109159484E+02  0.25942356432E+02  0.51100000000E-03 0.  1.
        -11    1    3    3    0    0 -0.23313556875E+02  0.24174057816E+00  0.97287423273E+01  0.25263190618E+02  0.51100000000E-03 0. -1.
         12    1    3    3    0    0  0.42377559848E+01  0.36216264185E+00 -0.68892084617E+01  0.80963529317E+01  0.00000000000E+00 0. -1.
</event>
<event>
 7    1  0.4237994E-013  0.5930194E+02  0.7816164E-02  0.1266605E+00
        -11   -1    0    0    0    0  0.00000000000E+00  0.00000000000E+00  0.45593999997E+02  0.45594000000E+02  0.51100000000E-03 0.  1.
         11   -1    0    0    0    0 -0.00000000000E+00 -0.00000000000E+00 -0.45593999997E+02  0.45594000000E+02  0.51100000000E-03 0. -1.
    9900012    2    1    2    0    0 -0.18297628569E+01 -0.11190195138E+02  0.29801886034E+02  0.59301938617E+02  0.49999990132E+02 0.  0.
         12    1    1    2    0    0  0.18297628569E+01  0.11190195138E+02 -0.29801886034E+02  0.31886061383E+02  0.00000000000E+00 0. -1.
         11    1    3    3    0    0  0.10624205517E+02 -0.32456824414E+01 -0.99768442177E+01  0.14931363574E+02  0.51100000000E-03 0. -1.
        -11    1    3    3    0    0  0.18475648716E+01 -0.38380437510E+01  0.13685096810E+02  0.14332688190E+02  0.51100000000E-03 0.  1.
         12    1    3    3    0    0 -0.14301533246E+02 -0.41064689460E+01  0.26093633442E+02  0.30037886853E+02  0.00000000000E+00 0. -1.
</event>
<event>
 7    1  0.4237994E-013  0.5930195E+02  0.7816164E-02  0.1266605E+00
        -11   -1    0    0    0    0  0.00000000000E+00  0.00000000000E+00  0.45593999997E+02  0.45594000000E+02  0.51100000000E-03 0.  1.
         11   -1    0    0    0    0 -0.00000000000E+00 -0.00000000000E+00 -0.45593999997E+02  0.45594000000E+02  0.51100000000E-03 0. -1.
    9900012    2    1    2    0    0  0.25265045204E+02 -0.19163916570E+02 -0.33379705060E+01  0.59301948903E+02  0.50000008892E+02 0.  0.
         12    1    1    2    0    0 -0.25265045204E+02  0.19163916570E+02  0.33379705060E+01  0.31886051097E+02  0.00000000000E+00 0. -1.
         11    1    3    3    0    0  0.11711676028E+02 -0.25812288494E+02 -0.63320173137E+01  0.29043622986E+02  0.51100000000E-03 0. -1.
        -11    1    3    3    0    0 -0.56820864433E+01  0.60848963811E+00  0.76670574447E+01  0.95624335873E+01  0.51100000000E-03 0.  1.
        -12    1    3    3    0    0  0.19235455619E+02  0.60398822859E+01 -0.46730106370E+01  0.20695892330E+02  0.00000000000E+00 0.  1.
</event>
<event>
 7    1  0.4237994E-013  0.5930195E+02  0.7816164E-02  0.1266605E+00
        -11   -1    0    0    0    0  0.00000000000E+00  0.00000000000E+00  0.45593999997E+02  0.45594000000E+02  0.51100000000E-03 0.  1.
         11   -1    0    0    0    0 -0.00000000000E+00 -0.00000000000E+00 -0.45593999997E+02  0.45594000000E+02  0.51100000000E-03 0. -1.
    9900012    2    1    2    0    0  0.98861895508E+01 -0.28953415776E+02 -0.89823840095E+01  0.59301948952E+02  0.50000008981E+02 0.  0.
         12    1    1    2    0    0 -0.98861895508E+01  0.28953415776E+02  0.89823840095E+01  0.31886051048E+02  0.00000000000E+00 0. -1.
         11    1    3    3    0    0  0.15483077778E+02 -0.20109703594E+02 -0.24758624019E+02  0.35455822367E+02  0.51100000000E-03 0. -1.
        -11    1    3    3    0    0 -0.62247229609E+01  0.85166278794E+00  0.13063914457E+01  0.64170993692E+01  0.51100000000E-03 0.  1.
         12    1    3    3    0    0  0.62783473313E+00 -0.96953749697E+01  0.14469848563E+02  0.17429027216E+02  0.00000000000E+00 0. -1.
</event>
<event>
 7    1  0.4237994E-013  0.5930195E+02  0.7816164E-02  0.1266605E+00
        -11   -1    0    0    0    0  0.00000000000E+00  0.00000000000E+00  0.45593999997E+02  0.45594000000E+02  0.51100000000E-03 0.  1.
         11   -1    0    0    0    0 -0.00000000000E+00 -0.00000000000E+00 -0.45593999997E+02  0.45594000000E+02  0.51100000000E-03 0. -1.
    9900012    2    1    2    0    0  0.31826715686E+02 -0.14076150417E+01 -0.13413607190E+01  0.59301945681E+02  0.50000003016E+02 0.  0.
         12    1    1    2    0    0 -0.31826715686E+02  0.14076150417E+01  0.13413607190E+01  0.31886054319E+02  0.00000000000E+00 0. -1.
         11    1    3    3    0    0  0.73741567236E+01 -0.34729203367E+01 -0.10534599523E+02  0.13319802942E+02  0.51100000000E-03 0. -1.
        -11    1    3    3    0    0  0.15769157036E+02 -0.84649895207E+01  0.21241557414E+02  0.27776359064E+02  0.51100000000E-03 0.  1.
        -12    1    3    3    0    0  0.86834019261E+01  0.10530294816E+02 -0.12048318610E+02  0.18205783675E+02  0.00000000000E+00 0.  1.
</event>
<event>
 7    1  0.4237994E-013  0.5930195E+02  0.7816164E-02  0.1266605E+00
        -11   -1    0    0    0    0  0.00000000000E+00  0.00000000000E+00  0.45593999997E+02  0.45594000000E+02  0.51100000000E-03 0.  1.
         11   -1    0    0    0    0 -0.00000000000E+00 -0.00000000000E+00 -0.45593999997E+02  0.45594000000E+02  0.51100000000E-03 0. -1.
    9900012    2    1    2    0    0  0.26959220246E+02 -0.11733321959E+02 -0.12338943913E+02  0.59301953877E+02  0.50000017963E+02 0.  0.
         12    1    1    2    0    0 -0.26959220246E+02  0.11733321959E+02  0.12338943913E+02  0.31886046123E+02  0.00000000000E+00 0. -1.
         11    1    3    3    0    0  0.23131410212E+01 -0.95927717742E+00 -0.68117616235E+01  0.72574741311E+01  0.51100000000E-03 0. -1.
        -11    1    3    3    0    0  0.28806930950E+02  0.73174613538E+01  0.58215053195E+01  0.30286538855E+02  0.51100000000E-03 0.  1.
        -12    1    3    3    0    0 -0.41608517249E+01 -0.18091506136E+02 -0.11348687609E+02  0.21757940890E+02  0.00000000000E+00 0.  1.
</event>
<event>
 7    1  0.4471088E-013  0.5930181E+02  0.7816164E-02  0.1266605E+00
        -11   -1    0    0    0    0  0.00000000000E+00  0.00000000000E+00  0.45593999997E+02  0.45594000000E+02  0.51100000000E-03 0. -1.
         11   -1    0    0    0    0 -0.00000000000E+00 -0.00000000000E+00 -0.45593999997E+02  0.45594000000E+02  0.51100000000E-03 0.  1.
    9900012    2    1    2    0    0 -0.13721422171E+02 -0.23933029876E+02 -0.15989421695E+02  0.59301812527E+02  0.49999760173E+02 0.  0.
         12    1    1    2    0    0  0.13721422171E+02  0.23933029876E+02  0.15989421695E+02  0.31886187473E+02  0.00000000000E+00 0. -1.
         11    1    3    3    0    0  0.18199534167E+01 -0.47226324444E+01  0.75559016019E+01  0.90943464264E+01  0.51100000000E-03 0. -1.
        -11    1    3    3    0    0 -0.86234905470E+00 -0.21546230906E+02 -0.27385086024E+02  0.34855797925E+02  0.51100000000E-03 0.  1.
        -12    1    3    3    0    0 -0.14679026533E+02  0.23358334749E+01  0.38397627267E+01  0.15351668176E+02  0.00000000000E+00 0.  1.
</event>
<event>
 7    1  0.4237994E-013  0.5930207E+02  0.7816164E-02  0.1266604E+00
        -11   -1    0    0    0    0  0.00000000000E+00  0.00000000000E+00  0.45593999997E+02  0.45594000000E+02  0.51100000000E-03 0.  1.
         11   -1    0    0    0    0 -0.00000000000E+00 -0.00000000000E+00 -0.45593999997E+02  0.45594000000E+02  0.51100000000E-03 0. -1.
    9900012    2    1    2    0    0 -0.18577305686E+02  0.24241005990E+02  0.91635133807E+01  0.59302068377E+02  0.50000226783E+02 0.  0.
         12    1    1    2    0    0  0.18577305686E+02 -0.24241005990E+02 -0.91635133807E+01  0.31885931623E+02  0.00000000000E+00 0. -1.
         11    1    3    3    0    0 -0.27021157799E+01 -0.97981616084E+01  0.35288508316E+01  0.10759097966E+02  0.51100000000E-03 0. -1.
        -11    1    3    3    0    0 -0.24963698967E+02  0.24213726195E+02  0.50834568255E+01  0.35147294860E+02  0.51100000000E-03 0.  1.
        -12    1    3    3    0    0  0.90885090612E+01  0.98254414032E+01  0.55120572351E+00  0.13395675551E+02  0.00000000000E+00 0.  1.
</event>
<event>
 7    1  0.4237994E-013  0.5930195E+02  0.7816164E-02  0.1266605E+00
        -11   -1    0    0    0    0  0.00000000000E+00  0.00000000000E+00  0.45593999997E+02  0.45594000000E+02  0.51100000000E-03 0.  1.
         11   -1    0    0    0    0 -0.00000000000E+00 -0.00000000000E+00 -0.45593999997E+02  0.45594000000E+02  0.51100000000E-03 0. -1.
    9900012    2    1    2    0    0  0.18839237949E+02 -0.24991195543E+02  0.61027224386E+01  0.59301953485E+02  0.50000017248E+02 0.  0.
         12    1    1    2    0    0 -0.18839237949E+02  0.24991195543E+02 -0.61027224386E+01  0.31886046515E+02  0.00000000000E+00 0. -1.
         11    1    3    3    0    0  0.78766858987E+01 -0.13809969790E+02 -0.85518573284E+01  0.18052471032E+02  0.51100000000E-03 0. -1.
        -11    1    3    3    0    0 -0.40721511581E+01 -0.79185936241E+01  0.22342077205E+02  0.24051090498E+02  0.51100000000E-03 0.  1.
        -12    1    3    3    0    0  0.15034703208E+02 -0.32626321291E+01 -0.76874974382E+01  0.17198391955E+02  0.00000000000E+00 0.  1.
</event>
<event>
 7    1  0.4237994E-013  0.5930194E+02  0.7816164E-02  0.1266605E+00
        -11   -1    0    0    0    0  0.00000000000E+00  0.00000000000E+00  0.45593999997E+02  0.45594000000E+02  0.51100000000E-03 0. -1.
         11   -1    0    0    0    0 -0.00000000000E+00 -0.00000000000E+00 -0.45593999997E+02  0.45594000000E+02  0.51100000000E-03 0.  1.
    9900012    2    1    2    0    0 -0.11509215457E+02 -0.26134791835E+02 -0.14185610654E+02  0.59301938244E+02  0.49999989452E+02 0.  0.
         12    1    1    2    0    0  0.11509215457E+02  0.26134791835E+02  0.14185610654E+02  0.31886061756E+02  0.00000000000E+00 0. -1.
         11    1    3    3    0    0  0.78296048650E+01 -0.68830612410E+00 -0.19717544790E+02  0.21226352736E+02  0.51100000000E-03 0. -1.
        -11    1    3    3    0    0 -0.11464175966E+02 -0.32814627035E+01 -0.41676903587E+01  0.12631902914E+02  0.51100000000E-03 0.  1.
         12    1    3    3    0    0 -0.78746443560E+01 -0.22165023007E+02  0.96996244940E+01  0.25443682594E+02  0.00000000000E+00 0. -1.
</event>
<event>
 7    1  0.4237994E-013  0.5930196E+02  0.7816164E-02  0.1266605E+00
        -11   -1    0    0    0    0  0.00000000000E+00  0.00000000000E+00  0.45593999997E+02  0.45594000000E+02  0.51100000000E-03 0. -1.
         11   -1    0    0    0    0 -0.00000000000E+00 -0.00000000000E+00 -0.45593999997E+02  0.45594000000E+02  0.51100000000E-03 0.  1.
    9900012    2    1    2    0    0 -0.14802088084E+01  0.11318475767E+02 -0.29772815798E+02  0.59301961169E+02  0.50000031262E+02 0.  0.
         12    1    1    2    0    0  0.14802088084E+01 -0.11318475767E+02  0.29772815798E+02  0.31886038831E+02  0.00000000000E+00 0. -1.
         11    1    3    3    0    0 -0.96320222503E+01  0.74384836071E+01  0.33850557056E+01  0.12631923583E+02  0.51100000000E-03 0. -1.
        -11    1    3    3    0    0 -0.91899375774E+01  0.60380371887E+01 -0.25146739355E+02  0.27445789225E+02  0.51100000000E-03 0.  1.
        -12    1    3    3    0    0  0.17341751019E+02 -0.21580450288E+01 -0.80111321485E+01  0.19224248361E+02  0.00000000000E+00 0.  1.
</event>
<event>
 7    1  0.4237994E-013  0.5930186E+02  0.7816164E-02  0.1266605E+00
        -11   -1    0    0    0    0  0.00000000000E+00  0.00000000000E+00  0.45593999997E+02  0.45594000000E+02  0.51100000000E-03 0. -1.
         11   -1    0    0    0    0 -0.00000000000E+00 -0.00000000000E+00 -0.45593999997E+02  0.45594000000E+02  0.51100000000E-03 0.  1.
    9900012    2    1    2    0    0  0.23015219335E+02  0.21275997157E+02 -0.58615412773E+01  0.59301858148E+02  0.49999843376E+02 0.  0.
         12    1    1    2    0    0 -0.23015219335E+02 -0.21275997157E+02  0.58615412773E+01  0.31886141852E+02  0.00000000000E+00 0. -1.
         11    1    3    3    0    0 -0.36901657986E+01 -0.11097921872E+02 -0.64482792355E+01  0.13355204935E+02  0.51100000000E-03 0. -1.
        -11    1    3    3    0    0  0.85590067775E+01  0.11305249436E+02 -0.86937660358E+01  0.16632703628E+02  0.51100000000E-03 0.  1.
         12    1    3    3    0    0  0.18146378357E+02  0.21068669593E+02  0.92805039940E+01  0.29313949585E+02  0.00000000000E+00 0. -1.
</event>
<event>
 7    1  0.4237994E-013  0.5930194E+02  0.7816164E-02  0.1266605E+00
        -11   -1    0    0    0    0  0.00000000000E+00  0.00000000000E+00  0.45593999997E+02  0.45594000000E+02  0.51100000000E-03 0. -1.
         11   -1    0    0    0    0 -0.00000000000E+00 -0.00000000000E+00 -0.45593999997E+02  0.45594000000E+02  0.51100000000E-03 0.  1.
    9900012    2    1    2    0    0  0.29634280841E+02 -0.11629973645E+02 -0.18094074726E+01  0.59301939670E+02  0.49999992053E+02 0.  0.
         12    1    1    2    0    0 -0.29634280841E+02  0.11629973645E+02  0.18094074726E+01  0.31886060330E+02  0.00000000000E+00 0. -1.
         11    1    3    3    0    0  0.48090534214E+01 -0.24651366945E+02 -0.89533392644E+01  0.26664192680E+02  0.51100000000E-03 0. -1.
        -11    1    3    3    0    0  0.11833768367E+02  0.10074624516E+02 -0.30818565898E+01  0.15844051666E+02  0.51100000000E-03 0.  1.
         12    1    3    3    0    0  0.12991459053E+02  0.29467687834E+01  0.10225788382E+02  0.16793695324E+02  0.00000000000E+00 0. -1.
</event>
<event>
 7    1  0.4237994E-013  0.5930193E+02  0.7816164E-02  0.1266605E+00
        -11   -1    0    0    0    0  0.00000000000E+00  0.00000000000E+00  0.45593999997E+02  0.45594000000E+02  0.51100000000E-03 0. -1.
         11   -1    0    0    0    0 -0.00000000000E+00 -0.00000000000E+00 -0.45593999997E+02  0.45594000000E+02  0.51100000000E-03 0.  1.
    9900012    2    1    2    0    0  0.82254316386E+01  0.74723023321E+01 -0.29886931316E+02  0.59301926374E+02  0.49999967804E+02 0.  0.
         12    1    1    2    0    0 -0.82254316386E+01 -0.74723023321E+01  0.29886931316E+02  0.31886073626E+02  0.00000000000E+00 0. -1.
         11    1    3    3    0    0  0.23782505399E+01 -0.12347193921E+02 -0.59308050867E+01  0.13902651639E+02  0.51100000000E-03 0. -1.
        -11    1    3    3    0    0  0.13404402281E+02  0.25494873291E+02 -0.20422507645E+02  0.35309281831E+02  0.51100000000E-03 0.  1.
        -12    1    3    3    0    0 -0.75572211820E+01 -0.56753770375E+01 -0.35336185841E+01  0.10089992904E+02  0.00000000000E+00 0.  1.
</event>
<event>
 7    1  0.4237994E-013  0.5930189E+02  0.7816164E-02  0.1266605E+00
        -11   -1    0    0    0    0  0.00000000000E+00  0.00000000000E+00  0.45593999997E+02  0.45594000000E+02  0.51100000000E-03 0. -1.
         11   -1    0    0    0    0 -0.00000000000E+00 -0.00000000000E+00 -0.45593999997E+02  0.45594000000E+02  0.51100000000E-03 0.  1.
    9900012    2    1    2    0    0  0.26379327591E+02  0.70721276282E+01  0.16457228121E+02  0.59301885926E+02  0.49999894036E+02 0.  0.
         12    1    1    2    0    0 -0.26379327591E+02 -0.70721276282E+01 -0.16457228121E+02  0.31886114074E+02  0.00000000000E+00 0. -1.
         11    1    3    3    0    0  0.18703387819E+02 -0.15352136513E+02  0.23790491333E+02  0.33933645392E+02  0.51100000000E-03 0. -1.
        -11    1    3    3    0    0  0.66587477307E+00  0.12081130220E+01  0.79418957274E+00  0.15917486064E+01  0.51100000000E-03 0.  1.
         12    1    3    3    0    0  0.70100649990E+01  0.21216151119E+02 -0.81274527853E+01  0.23776491928E+02  0.00000000000E+00 0. -1.
</event>
<event>
 7    1  0.4237994E-013  0.5930190E+02  0.7816164E-02  0.1266605E+00
        -11   -1    0    0    0    0  0.00000000000E+00  0.00000000000E+00  0.45593999997E+02  0.45594000000E+02  0.51100000000E-03 0. -1.
         11   -1    0    0    0    0 -0.00000000000E+00 -0.00000000000E+00 -0.45593999997E+02  0.45594000000E+02  0.51100000000E-03 0.  1.
    9900012    2    1    2    0    0 -0.85461048275E+01 -0.18493627989E+02 -0.24529030693E+02  0.59301897531E+02  0.49999915200E+02 0.  0.
         12    1    1    2    0    0  0.85461048275E+01  0.18493627989E+02  0.24529030693E+02  0.31886102469E+02  0.00000000000E+00 0. -1.
         11    1    3    3    0    0 -0.22682063661E+00 -0.54035979028E+01  0.24819434132E+01  0.59506605737E+01  0.51100000000E-03 0. -1.
        -11    1    3    3    0    0 -0.30130916785E+01  0.41225233730E+01 -0.33739440670E+02  0.34123654221E+02  0.51100000000E-03 0.  1.
        -12    1    3    3    0    0 -0.53061925123E+01 -0.17212553460E+02  0.67284665631E+01  0.19227582736E+02  0.00000000000E+00 0.  1.
</event>
<event>
 7    1  0.4237994E-013  0.5930195E+02  0.7816164E-02  0.1266605E+00
        -11   -1    0    0    0    0  0.00000000000E+00  0.00000000000E+00  0.45593999997E+02  0.45594000000E+02  0.51100000000E-03 0. -1.
         11   -1    0    0    0    0 -0.00000000000E+00 -0.00000000000E+00 -0.45593999997E+02  0.45594000000E+02  0.51100000000E-03 0.  1.
    9900012    2    1    2    0    0  0.70984404882E+01  0.30294108865E+02 -0.69713234478E+01  0.59301949133E+02  0.50000009310E+02 0.  0.
         12    1    1    2    0    0 -0.70984404882E+01 -0.30294108865E+02  0.69713234478E+01  0.31886050867E+02  0.00000000000E+00 0. -1.
         11    1    3    3    0    0 -0.87398275745E+01  0.32221244309E+02  0.56435708035E+01  0.33859165119E+02  0.51100000000E-03 0. -1.
        -11    1    3    3    0    0  0.66989344601E+01 -0.85012786067E+01 -0.66293919400E+01  0.12692371670E+02  0.51100000000E-03 0.  1.
        -12    1    3    3    0    0  0.91393336026E+01  0.65741431629E+01 -0.59855023113E+01  0.12750412344E+02  0.00000000000E+00 0.  1.
</event>
<event>
 7    1  0.4237994E-013  0.5930195E+02  0.7816164E-02  0.1266605E+00
        -11   -1    0    0    0    0  0.00000000000E+00  0.00000000000E+00  0.45593999997E+02  0.45594000000E+02  0.51100000000E-03 0. -1.
         11   -1    0    0    0    0 -0.00000000000E+00 -0.00000000000E+00 -0.45593999997E+02  0.45594000000E+02  0.51100000000E-03 0.  1.
    9900012    2    1    2    0    0  0.26808926046E+01  0.88957373498E+01 -0.30502437140E+02  0.59301952901E+02  0.50000016182E+02 0.  0.
         12    1    1    2    0    0 -0.26808926046E+01 -0.88957373498E+01  0.30502437140E+02  0.31886047099E+02  0.00000000000E+00 0. -1.
         11    1    3    3    0    0  0.84561383037E+01 -0.61433193845E+01 -0.38951417909E+01  0.11154316559E+02  0.51100000000E-03 0. -1.
        -11    1    3    3    0    0 -0.19792346666E+02  0.34704969678E+01 -0.66762408359E+01  0.21174360148E+02  0.51100000000E-03 0.  1.
        -12    1    3    3    0    0  0.14017100967E+02  0.11568559767E+02 -0.19931054513E+02  0.26973276193E+02  0.00000000000E+00 0.  1.
</event>
<event>
 7    1  0.4237994E-013  0.5930192E+02  0.7816164E-02  0.1266605E+00
        -11   -1    0    0    0    0  0.00000000000E+00  0.00000000000E+00  0.45593999997E+02  0.45594000000E+02  0.51100000000E-03 0.  1.
         11   -1    0    0    0    0 -0.00000000000E+00 -0.00000000000E+00 -0.45593999997E+02  0.45594000000E+02  0.51100000000E-03 0. -1.
    9900012    2    1    2    0    0 -0.12043286733E+02 -0.19213583884E+02  0.22416941524E+02  0.59301924226E+02  0.49999963886E+02 0.  0.
         12    1    1    2    0    0  0.12043286733E+02  0.19213583884E+02 -0.22416941524E+02  0.31886075774E+02  0.00000000000E+00 0. -1.
         11    1    3    3    0    0  0.58184522976E+01 -0.35760164841E+01  0.47317351660E+01  0.83085256801E+01  0.51100000000E-03 0. -1.
        -11    1    3    3    0    0 -0.26912118617E+02  0.24258645798E+01  0.14082889748E+02  0.30470883337E+02  0.51100000000E-03 0.  1.
        -12    1    3    3    0    0  0.90503795860E+01 -0.18063431980E+02  0.36023166099E+01  0.20522515209E+02  0.00000000000E+00 0.  1.
</event>
<event>
 7    1  0.4237994E-013  0.5930192E+02  0.7816164E-02  0.1266605E+00
        -11   -1    0    0    0    0  0.00000000000E+00  0.00000000000E+00  0.45593999997E+02  0.45594000000E+02  0.51100000000E-03 0.  1.
         11   -1    0    0    0    0 -0.00000000000E+00 -0.00000000000E+00 -0.45593999997E+02  0.45594000000E+02  0.51100000000E-03 0. -1.
    9900012    2    1    2    0    0  0.17670084528E+02  0.26458351816E+02  0.21085803965E+01  0.59301915584E+02  0.49999948126E+02 0.  0.
         12    1    1    2    0    0 -0.17670084528E+02 -0.26458351816E+02 -0.21085803965E+01  0.31886084416E+02  0.00000000000E+00 0. -1.
         11    1    3    3    0    0  0.74678167186E+01  0.69318141670E+01 -0.14075424495E+02  0.17376303093E+02  0.51100000000E-03 0. -1.
        -11    1    3    3    0    0  0.44020255119E+01  0.26753102278E+02  0.17917652946E+02  0.32498439924E+02  0.51100000000E-03 0.  1.
         12    1    3    3    0    0  0.58002422978E+01 -0.72265646287E+01 -0.17336480548E+01  0.94271725678E+01  0.00000000000E+00 0. -1.
</event>
<event>
 7    1  0.4237994E-013  0.5930195E+02  0.7816164E-02  0.1266605E+00
        -11   -1    0    0    0    0  0.00000000000E+00  0.00000000000E+00  0.45593999997E+02  0.45594000000E+02  0.51100000000E-03 0. -1.
         11   -1    0    0    0    0 -0.00000000000E+00 -0.00000000000E+00 -0.45593999997E+02  0.45594000000E+02  0.51100000000E-03 0.  1.
    9900012    2    1    2    0    0  0.18807096654E+01  0.13626963438E+02 -0.28766106927E+02  0.59301951184E+02  0.50000013051E+02 0.  0.
         12    1    1    2    0    0 -0.18807096654E+01 -0.13626963438E+02  0.28766106927E+02  0.31886048816E+02  0.00000000000E+00 0. -1.
         11    1    3    3    0    0 -0.16974915182E+02  0.20569175511E+01 -0.15780351770E+01  0.17171745704E+02  0.51100000000E-03 0. -1.
        -11    1    3    3    0    0  0.23260911474E+01  0.14971265564E+02 -0.14941173865E+02  0.21278819736E+02  0.51100000000E-03 0.  1.
         12    1    3    3    0    0  0.16529533700E+02 -0.34012196772E+01 -0.12246897885E+02  0.20851385744E+02  0.00000000000E+00 0. -1.
</event>
<event>
 7    1  0.4237994E-013  0.5930197E+02  0.7816164E-02  0.1266605E+00
        -11   -1    0    0    0    0  0.00000000000E+00  0.00000000000E+00  0.45593999997E+02  0.45594000000E+02  0.51100000000E-03 0.  1.
         11   -1    0    0    0    0 -0.00000000000E+00 -0.00000000000E+00 -0.45593999997E+02  0.45594000000E+02  0.51100000000E-03 0. -1.
    9900012    2    1    2    0    0  0.29396618082E+02  0.34995773924E+01  0.11845282402E+02  0.59301969959E+02  0.50000047293E+02 0.  0.
         12    1    1    2    0    0 -0.29396618082E+02 -0.34995773924E+01 -0.11845282402E+02  0.31886030041E+02  0.00000000000E+00 0. -1.
         11    1    3    3    0    0 -0.24172405047E+01 -0.17671645331E+01 -0.47498738532E+01  0.56149108655E+01  0.51100000000E-03 0. -1.
        -11    1    3    3    0    0  0.14112512232E+02  0.21580951218E+02  0.14350652689E+02  0.29510026937E+02  0.51100000000E-03 0.  1.
        -12    1    3    3    0    0  0.17701346355E+02 -0.16314209293E+02  0.22445035661E+01  0.24177032156E+02  0.00000000000E+00 0.  1.
</event>
<event>
 7    1  0.4237994E-013  0.5930190E+02  0.7816164E-02  0.1266605E+00
        -11   -1    0    0    0    0  0.00000000000E+00  0.00000000000E+00  0.45593999997E+02  0.45594000000E+02  0.51100000000E-03 0. -1.
         11   -1    0    0    0    0 -0.00000000000E+00 -0.00000000000E+00 -0.45593999997E+02  0.45594000000E+02  0.51100000000E-03 0.  1.
    9900012    2    1    2    0    0  0.12962359149E+02  0.17912654486E+02 -0.22974706564E+02  0.59301904486E+02  0.49999927885E+02 0.  0.
         12    1    1    2    0    0 -0.12962359149E+02 -0.17912654486E+02  0.22974706564E+02  0.31886095514E+02  0.00000000000E+00 0. -1.
         11    1    3    3    0    0  0.14244474419E+02  0.79332028532E+01  0.11456843319E+02  0.19927368569E+02  0.51100000000E-03 0. -1.
        -11    1    3    3    0    0 -0.58093286031E+01 -0.93662425286E+00 -0.19287800187E+02  0.20165435778E+02  0.51100000000E-03 0.  1.
         12    1    3    3    0    0  0.45272133332E+01  0.10916075885E+02 -0.15143749696E+02  0.19209100139E+02  0.00000000000E+00 0. -1.
</event>
<event>
 7    1  0.4237994E-013  0.5930195E+02  0.7816164E-02  0.1266605E+00
        -11   -1    0    0    0    0  0.00000000000E+00  0.00000000000E+00  0.45593999997E+02  0.45594000000E+02  0.51100000000E-03 0. -1.
         11   -1    0    0    0    0 -0.00000000000E+00 -0.00000000000E+00 -0.45593999997E+02  0.45594000000E+02  0.51100000000E-03 0.  1.
    9900012    2    1    2    0    0 -0.27499990075E+02 -0.11932634189E+02  0.10866594896E+02  0.59301951367E+02  0.50000013384E+02 0.  0.
         12    1    1    2    0    0  0.27499990075E+02  0.11932634189E+02 -0.10866594896E+02  0.31886048633E+02  0.00000000000E+00 0. -1.
         11    1    3    3    0    0 -0.23939237532E+02 -0.18324238914E+02  0.12258323316E+02  0.32544297751E+02  0.51100000000E-03 0. -1.
        -11    1    3    3    0    0  0.44800911801E+01  0.91972129925E+01  0.87871205978E+01  0.13486045843E+02  0.51100000000E-03 0.  1.
        -12    1    3    3    0    0 -0.80408437237E+01 -0.28056082676E+01 -0.10178849018E+02  0.13271607772E+02  0.00000000000E+00 0.  1.
</event>
<event>
 7    1  0.4237994E-013  0.5930195E+02  0.7816164E-02  0.1266605E+00
        -11   -1    0    0    0    0  0.00000000000E+00  0.00000000000E+00  0.45593999997E+02  0.45594000000E+02  0.51100000000E-03 0.  1.
         11   -1    0    0    0    0 -0.00000000000E+00 -0.00000000000E+00 -0.45593999997E+02  0.45594000000E+02  0.51100000000E-03 0. -1.
    9900012    2    1    2    0    0 -0.19770795875E+02  0.19931792232E+02  0.15118180515E+02  0.59301951433E+02  0.50000013506E+02 0.  0.
         12    1    1    2    0    0  0.19770795875E+02 -0.19931792232E+02 -0.15118180515E+02  0.31886048567E+02  0.00000000000E+00 0. -1.
         11    1    3    3    0    0 -0.11504531833E+01  0.72751059652E+01 -0.76993648390E+01  0.10655089325E+02  0.51100000000E-03 0. -1.
        -11    1    3    3    0    0 -0.21944934030E+02  0.19326756717E+02  0.27254076348E+02  0.39973595443E+02  0.51100000000E-03 0.  1.
        -12    1    3    3    0    0  0.33245913383E+01 -0.66700704510E+01 -0.44365309941E+01  0.86732666654E+01  0.00000000000E+00 0.  1.
</event>
<event>
 7    1  0.4237994E-013  0.5930194E+02  0.7816164E-02  0.1266605E+00
        -11   -1    0    0    0    0  0.00000000000E+00  0.00000000000E+00  0.45593999997E+02  0.45594000000E+02  0.51100000000E-03 0.  1.
         11   -1    0    0    0    0 -0.00000000000E+00 -0.00000000000E+00 -0.45593999997E+02  0.45594000000E+02  0.51100000000E-03 0. -1.
    9900012    2    1    2    0    0 -0.19658736891E+02 -0.46957410572E+01  0.24661816381E+02  0.59301935530E+02  0.49999984501E+02 0.  0.
         12    1    1    2    0    0  0.19658736891E+02  0.46957410572E+01 -0.24661816381E+02  0.31886064470E+02  0.00000000000E+00 0. -1.
         11    1    3    3    0    0  0.11154048977E+02 -0.95176695275E+01  0.52049077057E+01  0.15559238615E+02  0.51100000000E-03 0. -1.
        -11    1    3    3    0    0 -0.16663138244E+02  0.40741497138E+01 -0.27772966003E+01  0.17377348725E+02  0.51100000000E-03 0.  1.
         12    1    3    3    0    0 -0.14149647623E+02  0.74777875645E+00  0.22234205275E+02  0.26365348190E+02  0.00000000000E+00 0. -1.
</event>
<event>
 7    1  0.4237994E-013  0.5930195E+02  0.7816164E-02  0.1266605E+00
        -11   -1    0    0    0    0  0.00000000000E+00  0.00000000000E+00  0.45593999997E+02  0.45594000000E+02  0.51100000000E-03 0.  1.
         11   -1    0    0    0    0 -0.00000000000E+00 -0.00000000000E+00 -0.45593999997E+02  0.45594000000E+02  0.51100000000E-03 0. -1.
    9900012    2    1    2    0    0  0.10665896401E+02  0.14562789379E+02  0.26284672529E+02  0.59301949908E+02  0.50000010723E+02 0.  0.
         12    1    1    2    0    0 -0.10665896401E+02 -0.14562789379E+02 -0.26284672529E+02  0.31886050092E+02  0.00000000000E+00 0. -1.
         11    1    3    3    0    0 -0.12377111192E+02 -0.33215348665E+01  0.10085772034E+02  0.16307920563E+02  0.51100000000E-03 0. -1.
        -11    1    3    3    0    0  0.13515317778E+02  0.22917228937E+02  0.43166270410E+01  0.26953598388E+02  0.51100000000E-03 0.  1.
        -12    1    3    3    0    0  0.95276898144E+01 -0.50329046909E+01  0.11882273454E+02  0.16040430957E+02  0.00000000000E+00 0.  1.
</event>
<event>
 7    1  0.4237994E-013  0.5930193E+02  0.7816164E-02  0.1266605E+00
        -11   -1    0    0    0    0  0.00000000000E+00  0.00000000000E+00  0.45593999997E+02  0.45594000000E+02  0.51100000000E-03 0.  1.
         11   -1    0    0    0    0 -0.00000000000E+00 -0.00000000000E+00 -0.45593999997E+02  0.45594000000E+02  0.51100000000E-03 0. -1.
    9900012    2    1    2    0    0 -0.22421025369E+00  0.28101686814E+02  0.15065399270E+02  0.59301932083E+02  0.49999978216E+02 0.  0.
         12    1    1    2    0    0  0.22421025369E+00 -0.28101686814E+02 -0.15065399270E+02  0.31886067917E+02  0.00000000000E+00 0. -1.
         11    1    3    3    0    0 -0.11940092352E+02 -0.10572585045E+02  0.37249508008E+01  0.16377442372E+02  0.51100000000E-03 0. -1.
        -11    1    3    3    0    0  0.87191533922E+01  0.24331333728E+02  0.11455725252E+02  0.28271382671E+02  0.51100000000E-03 0.  1.
        -12    1    3    3    0    0  0.29967287059E+01  0.14342938132E+02 -0.11527678335E+00  0.14653107040E+02  0.00000000000E+00 0.  1.
</event>
<event>
 7    1  0.4237994E-013  0.5930193E+02  0.7816164E-02  0.1266605E+00
        -11   -1    0    0    0    0  0.00000000000E+00  0.00000000000E+00  0.45593999997E+02  0.45594000000E+02  0.51100000000E-03 0. -1.
         11   -1    0    0    0    0 -0.00000000000E+00 -0.00000000000E+00 -0.45593999997E+02  0.45594000000E+02  0.51100000000E-03 0.  1.
    9900012    2    1    2    0    0  0.17012156947E+02  0.15360751742E+02 -0.22166537314E+02  0.59301928518E+02  0.49999971713E+02 0.  0.
         12    1    1    2    0    0 -0.17012156947E+02 -0.15360751742E+02  0.22166537314E+02  0.31886071482E+02  0.00000000000E+00 0. -1.
         11    1    3    3    0    0  0.16562395759E+02 -0.14194182159E+02 -0.16590591687E+02  0.27405026787E+02  0.51100000000E-03 0. -1.
        -11    1    3    3    0    0  0.43804558042E+01  0.14561738101E+02  0.58471618924E+00  0.15217572173E+02  0.51100000000E-03 0.  1.
         12    1    3    3    0    0 -0.39306946158E+01  0.14993195800E+02 -0.61606618165E+01  0.16679329557E+02  0.00000000000E+00 0. -1.
</event>
<event>
 7    1  0.4237994E-013  0.5930191E+02  0.7816164E-02  0.1266605E+00
        -11   -1    0    0    0    0  0.00000000000E+00  0.00000000000E+00  0.45593999997E+02  0.45594000000E+02  0.51100000000E-03 0.  1.
         11   -1    0    0    0    0 -0.00000000000E+00 -0.00000000000E+00 -0.45593999997E+02  0.45594000000E+02  0.51100000000E-03 0. -1.
    9900012    2    1    2    0    0 -0.18938086916E+02  0.18176553201E+02  0.18102049699E+02  0.59301914859E+02  0.49999946804E+02 0.  0.
         12    1    1    2    0    0  0.18938086916E+02 -0.18176553201E+02 -0.18102049699E+02  0.31886085141E+02  0.00000000000E+00 0. -1.
         11    1    3    3    0    0  0.32727912010E+01  0.20981921467E+02 -0.91756233796E+01  0.23133185153E+02  0.51100000000E-03 0. -1.
        -11    1    3    3    0    0 -0.78181859773E+01  0.23039021220E+01  0.12461238112E+02  0.14890078996E+02  0.51100000000E-03 0.  1.
         12    1    3    3    0    0 -0.14392692140E+02 -0.51092703877E+01  0.14816434966E+02  0.21278650710E+02  0.00000000000E+00 0. -1.
</event>
<event>
 7    1  0.4237994E-013  0.5930192E+02  0.7816164E-02  0.1266605E+00
        -11   -1    0    0    0    0  0.00000000000E+00  0.00000000000E+00  0.45593999997E+02  0.45594000000E+02  0.51100000000E-03 0.  1.
         11   -1    0    0    0    0 -0.00000000000E+00 -0.00000000000E+00 -0.45593999997E+02  0.45594000000E+02  0.51100000000E-03 0. -1.
    9900012    2    1    2    0    0 -0.24193844590E+01 -0.30090316902E+02  0.10268458819E+02  0.59301924059E+02  0.49999963581E+02 0.  0.
         12    1    1    2    0    0  0.24193844590E+01  0.30090316902E+02 -0.10268458819E+02  0.31886075941E+02  0.00000000000E+00 0. -1.
         11    1    3    3    0    0  0.10637928760E+02 -0.75620467110E+01 -0.16472546611E+02  0.21016538032E+02  0.51100000000E-03 0. -1.
        -11    1    3    3    0    0 -0.80491853722E+01 -0.18382589717E+02  0.15728390014E+02  0.25496886919E+02  0.51100000000E-03 0.  1.
         12    1    3    3    0    0 -0.50081278464E+01 -0.41456804740E+01  0.11012615416E+02  0.12788499107E+02  0.00000000000E+00 0. -1.
</event>
<event>
 7    1  0.4237994E-013  0.5930194E+02  0.7816164E-02  0.1266605E+00
        -11   -1    0    0    0    0  0.00000000000E+00  0.00000000000E+00  0.45593999997E+02  0.45594000000E+02  0.51100000000E-03 0. -1.
         11   -1    0    0    0    0 -0.00000000000E+00 -0.00000000000E+00 -0.45593999997E+02  0.45594000000E+02  0.51100000000E-03 0.  1.
    9900012    2    1    2    0    0  0.13211981396E+02 -0.20784534536E+02 -0.20252590602E+02  0.59301941065E+02  0.49999994598E+02 0.  0.
         12    1    1    2    0    0 -0.13211981396E+02  0.20784534536E+02  0.20252590602E+02  0.31886058935E+02  0.00000000000E+00 0. -1.
         11    1    3    3    0    0  0.11704286263E+02 -0.22959722724E+01  0.12673993252E+02  0.17403790128E+02  0.51100000000E-03 0. -1.
        -11    1    3    3    0    0  0.55699096204E+01 -0.10954406737E+02 -0.30678504282E+02  0.33048351628E+02  0.51100000000E-03 0.  1.
         12    1    3    3    0    0 -0.40622144874E+01 -0.75341555272E+01 -0.22480795722E+01  0.88497993092E+01  0.00000000000E+00 0. -1.
</event>
<event>
 7    1  0.4237994E-013  0.5930193E+02  0.7816164E-02  0.1266605E+00
        -11   -1    0    0    0    0  0.00000000000E+00  0.00000000000E+00  0.45593999997E+02  0.45594000000E+02  0.51100000000E-03 0.  1.
         11   -1    0    0    0    0 -0.00000000000E+00 -0.00000000000E+00 -0.45593999997E+02  0.45594000000E+02  0.51100000000E-03 0. -1.
    9900012    2    1    2    0    0 -0.29574178855E+02  0.11288605860E+02  0.38284358182E+01  0.59301927837E+02  0.49999970471E+02 0.  0.
         12    1    1    2    0    0  0.29574178855E+02 -0.11288605860E+02 -0.38284358182E+01  0.31886072163E+02  0.00000000000E+00 0. -1.
         11    1    3    3    0    0 -0.76315283207E+01 -0.98378200161E+01 -0.16231531055E+02  0.20456918826E+02  0.51100000000E-03 0. -1.
        -11    1    3    3    0    0 -0.99116462290E+01  0.15890294065E+01  0.84963846960E+01  0.13151209016E+02  0.51100000000E-03 0.  1.
         12    1    3    3    0    0 -0.12031004305E+02  0.19537396469E+02  0.11563582178E+02  0.25693799995E+02  0.00000000000E+00 0. -1.
</event>
<event>
 7    1  0.4237994E-013  0.5930212E+02  0.7816164E-02  0.1266604E+00
        -11   -1    0    0    0    0  0.00000000000E+00  0.00000000000E+00  0.45593999997E+02  0.45594000000E+02  0.51100000000E-03 0.  1.
         11   -1    0    0    0    0 -0.00000000000E+00 -0.00000000000E+00 -0.45593999997E+02  0.45594000000E+02  0.51100000000E-03 0. -1.
    9900012    2    1    2    0    0 -0.85100205316E+01 -0.57554155398E+01  0.30185495964E+02  0.59302118735E+02  0.50000318623E+02 0.  0.
         12    1    1    2    0    0  0.85100205316E+01  0.57554155398E+01 -0.30185495964E+02  0.31885881265E+02  0.00000000000E+00 0. -1.
         11    1    3    3    0    0 -0.19954599820E+02  0.94762526452E+01  0.96160944127E+01  0.24092627299E+02  0.51100000000E-03 0. -1.
        -11    1    3    3    0    0  0.15006971669E+02 -0.23438287730E+01  0.11532330398E+02  0.19070851493E+02  0.51100000000E-03 0.  1.
        -12    1    3    3    0    0 -0.35623923811E+01 -0.12887839412E+02  0.90370711530E+01  0.16138639943E+02  0.00000000000E+00 0.  1.
</event>
<event>
 7    1  0.4887344E-013  0.5930196E+02  0.7816164E-02  0.1266605E+00
        -11   -1    0    0    0    0  0.00000000000E+00  0.00000000000E+00  0.45593999997E+02  0.45594000000E+02  0.51100000000E-03 0. -1.
         11   -1    0    0    0    0 -0.00000000000E+00 -0.00000000000E+00 -0.45593999997E+02  0.45594000000E+02  0.51100000000E-03 0.  1.
    9900012    2    1    2    0    0 -0.13911056176E+02 -0.20428675040E+02 -0.20146250896E+02  0.59301958023E+02  0.50000025523E+02 0.  0.
         12    1    1    2    0    0  0.13911056176E+02  0.20428675040E+02  0.20146250896E+02  0.31886041977E+02  0.00000000000E+00 0. -1.
         11    1    3    3    0    0  0.95257429016E-01  0.84416547709E+01  0.52814203275E+01  0.99581127824E+01  0.51100000000E-03 0. -1.
        -11    1    3    3    0    0  0.49913938433E+01 -0.20306892307E+02 -0.16657691695E+02  0.26735044054E+02  0.51100000000E-03 0.  1.
        -12    1    3    3    0    0 -0.18997707448E+02 -0.85634375039E+01 -0.87699795282E+01  0.22608801187E+02  0.00000000000E+00 0.  1.
</event>
<event>
 7    1  0.4237994E-013  0.5930191E+02  0.7816164E-02  0.1266605E+00
        -11   -1    0    0    0    0  0.00000000000E+00  0.00000000000E+00  0.45593999997E+02  0.45594000000E+02  0.51100000000E-03 0.  1.
         11   -1    0    0    0    0 -0.00000000000E+00 -0.00000000000E+00 -0.45593999997E+02  0.45594000000E+02  0.51100000000E-03 0. -1.
    9900012    2    1    2    0    0  0.10907797606E+02 -0.53027928493E+01  0.29489368165E+02  0.59301913765E+02  0.49999944808E+02 0.  0.
         12    1    1    2    0    0 -0.10907797606E+02  0.53027928493E+01 -0.29489368165E+02  0.31886086235E+02  0.00000000000E+00 0. -1.
         11    1    3    3    0    0 -0.42156057248E+01 -0.21210872590E+02  0.25696884947E+01  0.21777872873E+02  0.51100000000E-03 0. -1.
        -11    1    3    3    0    0  0.56396193426E+00  0.81618189480E+01  0.15299359963E+02  0.17349459852E+02  0.51100000000E-03 0.  1.
         12    1    3    3    0    0  0.14559441396E+02  0.77462607929E+01  0.11620319707E+02  0.20174581040E+02  0.00000000000E+00 0. -1.
</event>
<event>
 7    1  0.4237994E-013  0.5930194E+02  0.7816164E-02  0.1266605E+00
        -11   -1    0    0    0    0  0.00000000000E+00  0.00000000000E+00  0.45593999997E+02  0.45594000000E+02  0.51100000000E-03 0.  1.
         11   -1    0    0    0    0 -0.00000000000E+00 -0.00000000000E+00 -0.45593999997E+02  0.45594000000E+02  0.51100000000E-03 0. -1.
    9900012    2    1    2    0    0 -0.16959566735E+02 -0.87418629433E+01  0.25547483573E+02  0.59301937395E+02  0.49999987904E+02 0.  0.
         12    1    1    2    0    0  0.16959566735E+02  0.87418629433E+01 -0.25547483573E+02  0.31886062605E+02  0.00000000000E+00 0. -1.
         11    1    3    3    0    0  0.77441901238E+01  0.12434545364E+01 -0.31133211817E+01  0.84386864439E+01  0.51100000000E-03 0. -1.
        -11    1    3    3    0    0 -0.31397729364E+02 -0.24948328461E+01  0.18277509507E+02  0.36415778918E+02  0.51100000000E-03 0.  1.
        -12    1    3    3    0    0  0.66939725057E+01 -0.74904846336E+01  0.10383295248E+02  0.14447472033E+02  0.00000000000E+00 0.  1.
</event>
<event>
 7    1  0.4237994E-013  0.5930192E+02  0.7816164E-02  0.1266605E+00
        -11   -1    0    0    0    0  0.00000000000E+00  0.00000000000E+00  0.45593999997E+02  0.45594000000E+02  0.51100000000E-03 0.  1.
         11   -1    0    0    0    0 -0.00000000000E+00 -0.00000000000E+00 -0.45593999997E+02  0.45594000000E+02  0.51100000000E-03 0. -1.
    9900012    2    1    2    0    0 -0.12258857460E+02  0.28783507293E+02 -0.61605385499E+01  0.59301919753E+02  0.49999955728E+02 0.  0.
         12    1    1    2    0    0  0.12258857460E+02 -0.28783507293E+02  0.61605385499E+01  0.31886080247E+02  0.00000000000E+00 0. -1.
         11    1    3    3    0    0  0.54810771721E+01  0.95836391097E+01 -0.11703836577E+02  0.16089379616E+02  0.51100000000E-03 0. -1.
        -11    1    3    3    0    0 -0.17410518868E+02 -0.37574216411E+01 -0.41534286114E+01  0.18289214147E+02  0.51100000000E-03 0.  1.
         12    1    3    3    0    0 -0.32941576414E+00  0.22957289825E+02  0.96967266387E+01  0.24923325989E+02  0.00000000000E+00 0. -1.
</event>
<event>
 7    1  0.4237994E-013  0.5930195E+02  0.7816164E-02  0.1266605E+00
        -11   -1    0    0    0    0  0.00000000000E+00  0.00000000000E+00  0.45593999997E+02  0.45594000000E+02  0.51100000000E-03 0.  1.
         11   -1    0    0    0    0 -0.00000000000E+00 -0.00000000000E+00 -0.45593999997E+02  0.45594000000E+02  0.51100000000E-03 0. -1.
    9900012    2    1    2    0    0 -0.25353880673E+02 -0.16190574317E+02  0.10571969574E+02  0.59301945013E+02  0.50000001797E+02 0.  0.
         12    1    1    2    0    0  0.25353880673E+02  0.16190574317E+02 -0.10571969574E+02  0.31886054987E+02  0.00000000000E+00 0. -1.
         11    1    3    3    0    0 -0.39346691734E+02 -0.78685361304E+01  0.53983023699E+01  0.40487253303E+02  0.51100000000E-03 0. -1.
        -11    1    3    3    0    0  0.31418107725E+01 -0.28687447048E+00  0.42336302115E+01  0.52798576611E+01  0.51100000000E-03 0.  1.
         12    1    3    3    0    0  0.10851000288E+02 -0.80351637166E+01  0.94003699296E+00  0.13534834050E+02  0.00000000000E+00 0. -1.
</event>
<event>
 7    1  0.4237994E-013  0.5930193E+02  0.7816164E-02  0.1266605E+00
        -11   -1    0    0    0    0  0.00000000000E+00  0.00000000000E+00  0.45593999997E+02  0.45594000000E+02  0.51100000000E-03 0.  1.
         11   -1    0    0    0    0 -0.00000000000E+00 -0.00000000000E+00 -0.45593999997E+02  0.45594000000E+02  0.51100000000E-03 0. -1.
    9900012    2    1    2    0    0 -0.72116779867E+00  0.61779345895E+01  0.31273546441E+02  0.59301926774E+02  0.49999968532E+02 0.  0.
         12    1    1    2    0    0  0.72116779867E+00 -0.61779345895E+01 -0.31273546441E+02  0.31886073226E+02  0.00000000000E+00 0. -1.
         11    1    3    3    0    0  0.60922465085E+01 -0.35547007340E+01 -0.10988799327E+02  0.13057759215E+02  0.51100000000E-03 0. -1.
        -11    1    3    3    0    0 -0.52005170388E+01 -0.28476507539E+01  0.10779353666E+02  0.12302396433E+02  0.51100000000E-03 0.  1.
         12    1    3    3    0    0 -0.16128972684E+01  0.12580286077E+02  0.31482992102E+02  0.33941771125E+02  0.00000000000E+00 0. -1.
</event>
<event>
 7    1  0.4237994E-013  0.5930195E+02  0.7816164E-02  0.1266605E+00
        -11   -1    0    0    0    0  0.00000000000E+00  0.00000000000E+00  0.45593999997E+02  0.45594000000E+02  0.51100000000E-03 0. -1.
         11   -1    0    0    0    0 -0.00000000000E+00 -0.00000000000E+00 -0.45593999997E+02  0.45594000000E+02  0.51100000000E-03 0.  1.
    9900012    2    1    2    0    0 -0.57293237721E+01  0.23623806871E+02 -0.20635187442E+02  0.59301947207E+02  0.50000005798E+02 0.  0.
         12    1    1    2    0    0  0.57293237721E+01 -0.23623806871E+02  0.20635187442E+02  0.31886052793E+02  0.00000000000E+00 0. -1.
         11    1    3    3    0    0  0.19424092902E+02  0.91711775581E+01  0.70017259290E+00  0.21491768768E+02  0.51100000000E-03 0. -1.
        -11    1    3    3    0    0 -0.14670440535E+02  0.13957427085E+02 -0.17060912851E+02  0.26478412790E+02  0.51100000000E-03 0.  1.
         12    1    3    3    0    0 -0.10482976139E+02  0.49520222820E+00 -0.42744471840E+01  0.11331765648E+02  0.00000000000E+00 0. -1.
</event>
<event>
 7    1  0.4237994E-013  0.5930195E+02  0.7816164E-02  0.1266605E+00
        -11   -1    0    0    0    0  0.00000000000E+00  0.00000000000E+00  0.45593999997E+02  0.45594000000E+02  0.51100000000E-03 0.  1.
         11   -1    0    0    0    0 -0.00000000000E+00 -0.00000000000E+00 -0.45593999997E+02  0.45594000000E+02  0.51100000000E-03 0. -1.
    9900012    2    1    2    0    0 -0.93973870435E+01 -0.17681009586E+02 -0.24815140107E+02  0.59301950358E+02  0.50000011546E+02 0.  0.
         12    1    1    2    0    0  0.93973870435E+01  0.17681009586E+02  0.24815140107E+02  0.31886049642E+02  0.00000000000E+00 0. -1.
         11    1    3    3    0    0 -0.14814291167E+02  0.25845829092E+01 -0.32817149861E+02  0.36098595774E+02  0.51100000000E-03 0. -1.
        -11    1    3    3    0    0  0.92608393251E+00 -0.14208562546E+02  0.53343812568E+01  0.15205147310E+02  0.51100000000E-03 0.  1.
         12    1    3    3    0    0  0.44908201910E+01 -0.60570299496E+01  0.26676284977E+01  0.79982072741E+01  0.00000000000E+00 0. -1.
</event>
<event>
 7    1  0.4237994E-013  0.5930194E+02  0.7816164E-02  0.1266605E+00
        -11   -1    0    0    0    0  0.00000000000E+00  0.00000000000E+00  0.45593999997E+02  0.45594000000E+02  0.51100000000E-03 0. -1.
         11   -1    0    0    0    0 -0.00000000000E+00 -0.00000000000E+00 -0.45593999997E+02  0.45594000000E+02  0.51100000000E-03 0.  1.
    9900012    2    1    2    0    0  0.83424932789E+01  0.25302884055E+02 -0.17518218616E+02  0.59301935346E+02  0.49999984167E+02 0.  0.
         12    1    1    2    0    0 -0.83424932789E+01 -0.25302884055E+02  0.17518218616E+02  0.31886064654E+02  0.00000000000E+00 0. -1.
         11    1    3    3    0    0 -0.60073334901E+01  0.17389939343E+01 -0.28742019789E+02  0.29414551796E+02  0.51100000000E-03 0. -1.
        -11    1    3    3    0    0  0.20328947123E+01  0.35500915686E+01  0.75138196122E+00  0.41593732904E+01  0.51100000000E-03 0.  1.
         12    1    3    3    0    0  0.12316932057E+02  0.20013798552E+02  0.10472419212E+02  0.25728010260E+02  0.00000000000E+00 0. -1.
</event>
<event>
 7    1  0.4237994E-013  0.5930196E+02  0.7816164E-02  0.1266605E+00
        -11   -1    0    0    0    0  0.00000000000E+00  0.00000000000E+00  0.45593999997E+02  0.45594000000E+02  0.51100000000E-03 0.  1.
         11   -1    0    0    0    0 -0.00000000000E+00 -0.00000000000E+00 -0.45593999997E+02  0.45594000000E+02  0.51100000000E-03 0. -1.
    9900012    2    1    2    0    0  0.29241985773E+02  0.85411687874E+01  0.94167082259E+01  0.59301957756E+02  0.50000025037E+02 0.  0.
         12    1    1    2    0    0 -0.29241985773E+02 -0.85411687874E+01 -0.94167082259E+01  0.31886042244E+02  0.00000000000E+00 0. -1.
         11    1    3    3    0    0  0.13775899672E+02  0.95913687752E+01 -0.47482086339E+01  0.17444633910E+02  0.51100000000E-03 0. -1.
        -11    1    3    3    0    0  0.18538276658E+02 -0.15771125853E+02  0.82866595072E+01  0.25711181190E+02  0.51100000000E-03 0.  1.
        -12    1    3    3    0    0 -0.30721905579E+01  0.14720925865E+02  0.58782573526E+01  0.16146142656E+02  0.00000000000E+00 0.  1.
</event>
<event>
 7    1  0.4237994E-013  0.5930194E+02  0.7816164E-02  0.1266605E+00
        -11   -1    0    0    0    0  0.00000000000E+00  0.00000000000E+00  0.45593999997E+02  0.45594000000E+02  0.51100000000E-03 0.  1.
         11   -1    0    0    0    0 -0.00000000000E+00 -0.00000000000E+00 -0.45593999997E+02  0.45594000000E+02  0.51100000000E-03 0. -1.
    9900012    2    1    2    0    0  0.26346440943E+02 -0.17920379681E+02  0.12023654668E+01  0.59301942844E+02  0.49999997841E+02 0.  0.
         12    1    1    2    0    0 -0.26346440943E+02  0.17920379681E+02 -0.12023654668E+01  0.31886057156E+02  0.00000000000E+00 0. -1.
         11    1    3    3    0    0  0.17504841307E+02 -0.25211390804E+02  0.15583764218E+01  0.30732104268E+02  0.51100000000E-03 0. -1.
        -11    1    3    3    0    0 -0.55816405422E+01  0.50712626665E+01  0.86074578847E+01  0.11443808268E+02  0.51100000000E-03 0.  1.
         12    1    3    3    0    0  0.14423240178E+02  0.22197484563E+01 -0.89634688397E+01  0.17126030308E+02  0.00000000000E+00 0. -1.
</event>
<event>
 7    1  0.4237994E-013  0.5930194E+02  0.7816164E-02  0.1266605E+00
        -11   -1    0    0    0    0  0.00000000000E+00  0.00000000000E+00  0.45593999997E+02  0.45594000000E+02  0.51100000000E-03 0.  1.
         11   -1    0    0    0    0 -0.00000000000E+00 -0.00000000000E+00 -0.45593999997E+02  0.45594000000E+02  0.51100000000E-03 0. -1.
    9900012    2    1    2    0    0 -0.26062630615E+02  0.15413019581E+02  0.99949549057E+01  0.59301937046E+02  0.49999987266E+02 0.  0.
         12    1    1    2    0    0  0.26062630615E+02 -0.15413019581E+02 -0.99949549057E+01  0.31886062954E+02  0.00000000000E+00 0. -1.
         11    1    3    3    0    0 -0.21672360362E+02 -0.63723255677E+01 -0.43915677755E+01  0.23012683559E+02  0.51100000000E-03 0. -1.
        -11    1    3    3    0    0  0.40553866360E+01  0.85289919804E+01  0.17849710304E+02  0.20194108625E+02  0.51100000000E-03 0.  1.
        -12    1    3    3    0    0 -0.84456568890E+01  0.13256353169E+02 -0.34631876226E+01  0.16095144862E+02  0.00000000000E+00 0.  1.
</event>
<event>
 7    1  0.4237994E-013  0.5930195E+02  0.7816164E-02  0.1266605E+00
        -11   -1    0    0    0    0  0.00000000000E+00  0.00000000000E+00  0.45593999997E+02  0.45594000000E+02  0.51100000000E-03 0.  1.
         11   -1    0    0    0    0 -0.00000000000E+00 -0.00000000000E+00 -0.45593999997E+02  0.45594000000E+02  0.51100000000E-03 0. -1.
    9900012    2    1    2    0    0 -0.28037019980E+01 -0.29728432054E+02  0.11183899121E+02  0.59301952631E+02  0.50000015691E+02 0.  0.
         12    1    1    2    0    0  0.28037019980E+01  0.29728432054E+02 -0.11183899121E+02  0.31886047369E+02  0.00000000000E+00 0. -1.
         11    1    3    3    0    0  0.45951219085E+01  0.25624357344E+01 -0.13265587440E+01  0.54259543501E+01  0.51100000000E-03 0. -1.
        -11    1    3    3    0    0  0.18490668194E+00 -0.90037408815E+01  0.24864852968E+02  0.26445461874E+02  0.51100000000E-03 0.  1.
        -12    1    3    3    0    0 -0.75837305884E+01 -0.23287126906E+02 -0.12354395104E+02  0.27430536407E+02  0.00000000000E+00 0.  1.
</event>
<event>
 7    1  0.4237994E-013  0.5930194E+02  0.7816164E-02  0.1266605E+00
        -11   -1    0    0    0    0  0.00000000000E+00  0.00000000000E+00  0.45593999997E+02  0.45594000000E+02  0.51100000000E-03 0.  1.
         11   -1    0    0    0    0 -0.00000000000E+00 -0.00000000000E+00 -0.45593999997E+02  0.45594000000E+02  0.51100000000E-03 0. -1.
    9900012    2    1    2    0    0 -0.10637466709E+01 -0.28209504055E+02  0.14826092958E+02  0.59301941787E+02  0.49999995913E+02 0.  0.
         12    1    1    2    0    0  0.10637466709E+01  0.28209504055E+02 -0.14826092958E+02  0.31886058213E+02  0.00000000000E+00 0. -1.
         11    1    3    3    0    0 -0.17532714966E+01 -0.27274526424E+02 -0.64220068855E+01  0.28075183442E+02  0.51100000000E-03 0. -1.
        -11    1    3    3    0    0  0.44778987463E+01  0.10155812176E+02  0.11501169804E+02  0.15983397801E+02  0.51100000000E-03 0.  1.
        -12    1    3    3    0    0 -0.37883739206E+01 -0.11090789806E+02  0.97469300389E+01  0.15243360544E+02  0.00000000000E+00 0.  1.
</event>
<event>
 7    1  0.4237994E-013  0.5930194E+02  0.7816164E-02  0.1266605E+00
        -11   -1    0    0    0    0  0.00000000000E+00  0.00000000000E+00  0.45593999997E+02  0.45594000000E+02  0.51100000000E-03 0. -1.
         11   -1    0    0    0    0 -0.00000000000E+00 -0.00000000000E+00 -0.45593999997E+02  0.45594000000E+02  0.51100000000E-03 0.  1.
    9900012    2    1    2    0    0 -0.19207724320E+02 -0.22001146485E+02 -0.12795854241E+02  0.59301937120E+02  0.49999987402E+02 0.  0.
         12    1    1    2    0    0  0.19207724320E+02  0.22001146485E+02  0.12795854241E+02  0.31886062880E+02  0.00000000000E+00 0. -1.
         11    1    3    3    0    0 -0.30943990877E+01  0.60488809111E+01 -0.82112879361E+01  0.10657838234E+02  0.51100000000E-03 0. -1.
        -11    1    3    3    0    0 -0.16979306942E+02 -0.29577340258E+02  0.87382035161E+01  0.35206137560E+02  0.51100000000E-03 0.  1.
        -12    1    3    3    0    0  0.86598170895E+00  0.15273128618E+01 -0.13322769821E+02  0.13437961326E+02  0.00000000000E+00 0.  1.
</event>
<event>
 7    1  0.4237994E-013  0.5930194E+02  0.7816164E-02  0.1266605E+00
        -11   -1    0    0    0    0  0.00000000000E+00  0.00000000000E+00  0.45593999997E+02  0.45594000000E+02  0.51100000000E-03 0. -1.
         11   -1    0    0    0    0 -0.00000000000E+00 -0.00000000000E+00 -0.45593999997E+02  0.45594000000E+02  0.51100000000E-03 0.  1.
    9900012    2    1    2    0    0  0.22134387765E+02 -0.16951807301E+02 -0.15473396495E+02  0.59301938914E+02  0.49999990674E+02 0.  0.
         12    1    1    2    0    0 -0.22134387765E+02  0.16951807301E+02  0.15473396495E+02  0.31886061086E+02  0.00000000000E+00 0. -1.
         11    1    3    3    0    0 -0.10053031539E+02  0.60139881017E+01  0.18234001889E-01  0.11714598958E+02  0.51100000000E-03 0. -1.
        -11    1    3    3    0    0  0.29508168015E+02 -0.12623343821E+02 -0.47629558080E+01  0.32446364004E+02  0.51100000000E-03 0.  1.
        -12    1    3    3    0    0  0.26792512888E+01 -0.10342451582E+02 -0.10728674689E+02  0.15140975952E+02  0.00000000000E+00 0.  1.
</event>
<event>
 7    1  0.4237994E-013  0.5930196E+02  0.7816164E-02  0.1266605E+00
        -11   -1    0    0    0    0  0.00000000000E+00  0.00000000000E+00  0.45593999997E+02  0.45594000000E+02  0.51100000000E-03 0. -1.
         11   -1    0    0    0    0 -0.00000000000E+00 -0.00000000000E+00 -0.45593999997E+02  0.45594000000E+02  0.51100000000E-03 0.  1.
    9900012    2    1    2    0    0 -0.16945449735E+02 -0.23201190222E+02  0.13830260491E+02  0.59301959173E+02  0.50000027620E+02 0.  0.
         12    1    1    2    0    0  0.16945449735E+02  0.23201190222E+02 -0.13830260491E+02  0.31886040827E+02  0.00000000000E+00 0. -1.
         11    1    3    3    0    0 -0.90495618483E+01  0.26527446153E+01  0.11162312380E+02  0.14612626101E+02  0.51100000000E-03 0. -1.
        -11    1    3    3    0    0 -0.67457364786E+00  0.19258975567E+01 -0.12196259519E+02  0.12365794657E+02  0.51100000000E-03 0.  1.
        -12    1    3    3    0    0 -0.72213142384E+01 -0.27779832394E+02  0.14864207629E+02  0.32323538414E+02  0.00000000000E+00 0.  1.
</event>
<event>
 7    1  0.4237994E-013  0.5930230E+02  0.7816164E-02  0.1266604E+00
        -11   -1    0    0    0    0  0.00000000000E+00  0.00000000000E+00  0.45593999997E+02  0.45594000000E+02  0.51100000000E-03 0.  1.
         11   -1    0    0    0    0 -0.00000000000E+00 -0.00000000000E+00 -0.45593999997E+02  0.45594000000E+02  0.51100000000E-03 0. -1.
    9900012    2    1    2    0    0 -0.21295955575E+02 -0.17499400346E+02  0.16029686529E+02  0.59302304358E+02  0.50000657152E+02 0.  0.
         12    1    1    2    0    0  0.21295955575E+02  0.17499400346E+02 -0.16029686529E+02  0.31885695642E+02  0.00000000000E+00 0. -1.
         11    1    3    3    0    0 -0.92958368607E+01  0.48650260126E+00 -0.49625991491E+01  0.10548775204E+02  0.51100000000E-03 0. -1.
        -11    1    3    3    0    0 -0.22347949453E+02 -0.17837140988E+02  0.24675530379E+02  0.37768720433E+02  0.51100000000E-03 0.  1.
        -12    1    3    3    0    0  0.10347830739E+02 -0.14876195997E+00 -0.36832447008E+01  0.10984808722E+02  0.00000000000E+00 0.  1.
</event>
<event>
 7    1  0.4237994E-013  0.5930188E+02  0.7816164E-02  0.1266605E+00
        -11   -1    0    0    0    0  0.00000000000E+00  0.00000000000E+00  0.45593999997E+02  0.45594000000E+02  0.51100000000E-03 0. -1.
         11   -1    0    0    0    0 -0.00000000000E+00 -0.00000000000E+00 -0.45593999997E+02  0.45594000000E+02  0.51100000000E-03 0.  1.
    9900012    2    1    2    0    0 -0.12366102709E+02  0.27952093438E+02  0.90821084702E+01  0.59301878912E+02  0.49999881244E+02 0.  0.
         12    1    1    2    0    0  0.12366102709E+02 -0.27952093438E+02 -0.90821084702E+01  0.31886121088E+02  0.00000000000E+00 0. -1.
         11    1    3    3    0    0 -0.91061478857E+01  0.48037955653E+01  0.15705929924E+01  0.10414660040E+02  0.51100000000E-03 0. -1.
        -11    1    3    3    0    0  0.75466701138E+01 -0.31832553331E+01 -0.11892011866E+02  0.14439712283E+02  0.51100000000E-03 0.  1.
        -12    1    3    3    0    0 -0.10806624937E+02  0.26331553206E+02  0.19403527344E+02  0.34447506588E+02  0.00000000000E+00 0.  1.
</event>
<event>
 7    1  0.4237994E-013  0.5930195E+02  0.7816164E-02  0.1266605E+00
        -11   -1    0    0    0    0  0.00000000000E+00  0.00000000000E+00  0.45593999997E+02  0.45594000000E+02  0.51100000000E-03 0.  1.
         11   -1    0    0    0    0 -0.00000000000E+00 -0.00000000000E+00 -0.45593999997E+02  0.45594000000E+02  0.51100000000E-03 0. -1.
    9900012    2    1    2    0    0 -0.38954673703E+01  0.76760831952E+01  0.30702170642E+02  0.59301949737E+02  0.50000010412E+02 0.  0.
         12    1    1    2    0    0  0.38954673703E+01 -0.76760831952E+01 -0.30702170642E+02  0.31886050263E+02  0.00000000000E+00 0. -1.
         11    1    3    3    0    0  0.24586482303E+01  0.15135376749E+01 -0.15828555162E+00  0.28915051427E+01  0.51100000000E-03 0. -1.
        -11    1    3    3    0    0 -0.21803648687E+02  0.16579932562E+02  0.24416402852E+02  0.36694059306E+02  0.51100000000E-03 0.  1.
        -12    1    3    3    0    0  0.15449533087E+02 -0.10417387041E+02  0.64440533413E+01  0.19716385288E+02  0.00000000000E+00 0.  1.
</event>
<event>
 7    1  0.4237994E-013  0.5930192E+02  0.7816164E-02  0.1266605E+00
        -11   -1    0    0    0    0  0.00000000000E+00  0.00000000000E+00  0.45593999997E+02  0.45594000000E+02  0.51100000000E-03 0.  1.
         11   -1    0    0    0    0 -0.00000000000E+00 -0.00000000000E+00 -0.45593999997E+02  0.45594000000E+02  0.51100000000E-03 0. -1.
    9900012    2    1    2    0    0 -0.10453236810E+02 -0.30046422002E+02 -0.21597207355E+01  0.59301921085E+02  0.49999958158E+02 0.  0.
         12    1    1    2    0    0  0.10453236810E+02  0.30046422002E+02  0.21597207355E+01  0.31886078915E+02  0.00000000000E+00 0. -1.
         11    1    3    3    0    0 -0.23710777824E+01 -0.74514606703E+00  0.34865885294E+01  0.42817697680E+01  0.51100000000E-03 0. -1.
        -11    1    3    3    0    0  0.18737087000E+02 -0.75654683579E+01 -0.22882751772E+01  0.20335952013E+02  0.51100000000E-03 0.  1.
        -12    1    3    3    0    0 -0.26819246027E+02 -0.21735807577E+02 -0.33580340876E+01  0.34684199305E+02  0.00000000000E+00 0.  1.
</event>
<event>
 7    1  0.4237994E-013  0.5930194E+02  0.7816164E-02  0.1266605E+00
        -11   -1    0    0    0    0  0.00000000000E+00  0.00000000000E+00  0.45593999997E+02  0.45594000000E+02  0.51100000000E-03 0.  1.
         11   -1    0    0    0    0 -0.00000000000E+00 -0.00000000000E+00 -0.45593999997E+02  0.45594000000E+02  0.51100000000E-03 0. -1.
    9900012    2    1    2    0    0 -0.22065971204E+01  0.31776582236E+02 -0.14492914041E+01  0.59301941996E+02  0.49999996295E+02 0.  0.
         12    1    1    2    0    0  0.22065971204E+01 -0.31776582236E+02  0.14492914041E+01  0.31886058004E+02  0.00000000000E+00 0. -1.
         11    1    3    3    0    0 -0.43952891957E+01  0.23971810874E+02  0.61927068110E+01  0.25145892341E+02  0.51100000000E-03 0.  1.
        -11    1    3    3    0    0 -0.54140531301E+01 -0.97509425073E+01  0.38969237240E+01  0.11814349997E+02  0.51100000000E-03 0. -1.
        -12    1    3    3    0    0  0.76027452054E+01  0.17555713869E+02 -0.11538921939E+02  0.22341699659E+02  0.00000000000E+00 0.  1.
</event>
<event>
 7    1  0.4237994E-013  0.5930192E+02  0.7816164E-02  0.1266605E+00
        -11   -1    0    0    0    0  0.00000000000E+00  0.00000000000E+00  0.45593999997E+02  0.45594000000E+02  0.51100000000E-03 0.  1.
         11   -1    0    0    0    0 -0.00000000000E+00 -0.00000000000E+00 -0.45593999997E+02  0.45594000000E+02  0.51100000000E-03 0. -1.
    9900012    2    1    2    0    0  0.12627121022E+02  0.36279783953E+01  0.29053672894E+02  0.59301916496E+02  0.49999949789E+02 0.  0.
         12    1    1    2    0    0 -0.12627121022E+02 -0.36279783953E+01 -0.29053672894E+02  0.31886083504E+02  0.00000000000E+00 0. -1.
         11    1    3    3    0    0 -0.73853073014E+01  0.10237229142E+02  0.10754994832E+02  0.16583532149E+02  0.51100000000E-03 0. -1.
        -11    1    3    3    0    0  0.15403760463E+02  0.10582609372E+01  0.26442815563E+02  0.30620552702E+02  0.51100000000E-03 0.  1.
         12    1    3    3    0    0  0.46086678610E+01 -0.76675116841E+01 -0.81441375008E+01  0.12097831645E+02  0.00000000000E+00 0. -1.
</event>
<event>
 7    1  0.4237994E-013  0.5930196E+02  0.7816164E-02  0.1266605E+00
        -11   -1    0    0    0    0  0.00000000000E+00  0.00000000000E+00  0.45593999997E+02  0.45594000000E+02  0.51100000000E-03 0. -1.
         11   -1    0    0    0    0 -0.00000000000E+00 -0.00000000000E+00 -0.45593999997E+02  0.45594000000E+02  0.51100000000E-03 0.  1.
    9900012    2    1    2    0    0 -0.28674135980E+01 -0.31741677609E+02  0.98138102061E+00  0.59301964391E+02  0.50000037137E+02 0.  0.
         12    1    1    2    0    0  0.28674135980E+01  0.31741677609E+02 -0.98138102061E+00  0.31886035609E+02  0.00000000000E+00 0. -1.
         11    1    3    3    0    0  0.17680400823E+01 -0.91314472638E+01 -0.19314662298E+02  0.21437478276E+02  0.51100000000E-03 0. -1.
        -11    1    3    3    0    0 -0.14406483789E+01 -0.59985712533E+01  0.20017010119E+02  0.20946097947E+02  0.51100000000E-03 0.  1.
         12    1    3    3    0    0 -0.31948053014E+01 -0.16611659092E+02  0.27903319994E+00  0.16918388168E+02  0.00000000000E+00 0. -1.
</event>
<event>
 7    1  0.4237994E-013  0.5930191E+02  0.7816164E-02  0.1266605E+00
        -11   -1    0    0    0    0  0.00000000000E+00  0.00000000000E+00  0.45593999997E+02  0.45594000000E+02  0.51100000000E-03 0.  1.
         11   -1    0    0    0    0 -0.00000000000E+00 -0.00000000000E+00 -0.45593999997E+02  0.45594000000E+02  0.51100000000E-03 0. -1.
    9900012    2    1    2    0    0 -0.81418178731E+01 -0.29639710262E+02 -0.84806341854E+01  0.59301909319E+02  0.49999936700E+02 0.  0.
         12    1    1    2    0    0  0.81418178731E+01  0.29639710262E+02  0.84806341854E+01  0.31886090681E+02  0.00000000000E+00 0. -1.
         11    1    3    3    0    0 -0.87916895245E+00 -0.31932195689E+02 -0.90904550783E+00  0.31957228033E+02  0.51100000000E-03 0.  1.
        -11    1    3    3    0    0 -0.52117456034E+00  0.12946482146E+02 -0.67638698757E+00  0.12974610688E+02  0.51100000000E-03 0. -1.
        -12    1    3    3    0    0 -0.67414743604E+01 -0.10653996720E+02 -0.68952016899E+01  0.14370070599E+02  0.00000000000E+00 0.  1.
</event>
<event>
 7    1  0.4237994E-013  0.5930197E+02  0.7816164E-02  0.1266605E+00
        -11   -1    0    0    0    0  0.00000000000E+00  0.00000000000E+00  0.45593999997E+02  0.45594000000E+02  0.51100000000E-03 0. -1.
         11   -1    0    0    0    0 -0.00000000000E+00 -0.00000000000E+00 -0.45593999997E+02  0.45594000000E+02  0.51100000000E-03 0.  1.
    9900012    2    1    2    0    0  0.27694502410E+02 -0.13621660449E+02  0.80114761919E+01  0.59301970961E+02  0.50000049119E+02 0.  0.
         12    1    1    2    0    0 -0.27694502410E+02  0.13621660449E+02 -0.80114761919E+01  0.31886029039E+02  0.00000000000E+00 0. -1.
         11    1    3    3    0    0 -0.83585724856E+01 -0.65368289898E+01 -0.41421393530E+01  0.11390925595E+02  0.51100000000E-03 0. -1.
        -11    1    3    3    0    0  0.13928110052E+02 -0.15666344469E+02 -0.59815387755E+00  0.20971036860E+02  0.51100000000E-03 0.  1.
         12    1    3    3    0    0  0.22124964843E+02  0.85815130097E+01  0.12751769423E+02  0.26940008505E+02  0.00000000000E+00 0. -1.
</event>
<event>
 7    1  0.4237994E-013  0.5930200E+02  0.7816164E-02  0.1266605E+00
        -11   -1    0    0    0    0  0.00000000000E+00  0.00000000000E+00  0.45593999997E+02  0.45594000000E+02  0.51100000000E-03 0.  1.
         11   -1    0    0    0    0 -0.00000000000E+00 -0.00000000000E+00 -0.45593999997E+02  0.45594000000E+02  0.51100000000E-03 0. -1.
    9900012    2    1    2    0    0  0.20740391579E+02 -0.22599828643E+02  0.87063650957E+01  0.59302001650E+02  0.50000105089E+02 0.  0.
         12    1    1    2    0    0 -0.20740391579E+02  0.22599828643E+02 -0.87063650957E+01  0.31885998350E+02  0.00000000000E+00 0. -1.
         11    1    3    3    0    0 -0.23927574612E+01  0.18251698953E+01  0.22565881551E+01  0.37614789349E+01  0.51100000000E-03 0. -1.
        -11    1    3    3    0    0  0.31964400995E+02 -0.42842178329E+01  0.87841264544E+01  0.33425115277E+02  0.51100000000E-03 0.  1.
        -12    1    3    3    0    0 -0.88312519546E+01 -0.20140780706E+02 -0.23343495138E+01  0.22115407439E+02  0.00000000000E+00 0.  1.
</event>
<event>
 7    1  0.4237994E-013  0.5930193E+02  0.7816164E-02  0.1266605E+00
        -11   -1    0    0    0    0  0.00000000000E+00  0.00000000000E+00  0.45593999997E+02  0.45594000000E+02  0.51100000000E-03 0.  1.
         11   -1    0    0    0    0 -0.00000000000E+00 -0.00000000000E+00 -0.45593999997E+02  0.45594000000E+02  0.51100000000E-03 0. -1.
    9900012    2    1    2    0    0 -0.22168163633E+02 -0.20993273938E+02  0.91965608582E+01  0.59301925279E+02  0.49999965806E+02 0.  0.
         12    1    1    2    0    0  0.22168163633E+02  0.20993273938E+02 -0.91965608582E+01  0.31886074721E+02  0.00000000000E+00 0. -1.
         11    1    3    3    0    0 -0.71320706997E+01 -0.90414846009E+01 -0.12178846457E+02  0.16761240334E+02  0.51100000000E-03 0. -1.
        -11    1    3    3    0    0  0.88866119666E+01 -0.20374682937E+01  0.11843649929E+02  0.14946410713E+02  0.51100000000E-03 0.  1.
        -12    1    3    3    0    0 -0.23922704900E+02 -0.99143210433E+01  0.95317573865E+01  0.27594274232E+02  0.00000000000E+00 0.  1.
</event>
<event>
 7    1  0.4237994E-013  0.5930197E+02  0.7816164E-02  0.1266605E+00
        -11   -1    0    0    0    0  0.00000000000E+00  0.00000000000E+00  0.45593999997E+02  0.45594000000E+02  0.51100000000E-03 0.  1.
         11   -1    0    0    0    0 -0.00000000000E+00 -0.00000000000E+00 -0.45593999997E+02  0.45594000000E+02  0.51100000000E-03 0. -1.
    9900012    2    1    2    0    0 -0.23292415852E+02  0.85002572546E+01  0.20048140118E+02  0.59301969645E+02  0.50000046720E+02 0.  0.
         12    1    1    2    0    0  0.23292415852E+02 -0.85002572546E+01 -0.20048140118E+02  0.31886030355E+02  0.00000000000E+00 0. -1.
         11    1    3    3    0    0 -0.13523021146E+02 -0.15455003088E+02  0.13169427436E+02  0.24395963613E+02  0.51100000000E-03 0. -1.
        -11    1    3    3    0    0 -0.68406661411E+01  0.22849691397E+02 -0.34621881529E+01  0.24101656733E+02  0.51100000000E-03 0.  1.
        -12    1    3    3    0    0 -0.29287285646E+01  0.11055689449E+01  0.10340900835E+02  0.10804349299E+02  0.00000000000E+00 0.  1.
</event>
<event>
 7    1  0.4237994E-013  0.5930198E+02  0.7816164E-02  0.1266605E+00
        -11   -1    0    0    0    0  0.00000000000E+00  0.00000000000E+00  0.45593999997E+02  0.45594000000E+02  0.51100000000E-03 0.  1.
         11   -1    0    0    0    0 -0.00000000000E+00 -0.00000000000E+00 -0.45593999997E+02  0.45594000000E+02  0.51100000000E-03 0. -1.
    9900012    2    1    2    0    0  0.23146668698E+01  0.13739596048E+02  0.28680729461E+02  0.59301977597E+02  0.50000061222E+02 0.  0.
         12    1    1    2    0    0 -0.23146668698E+01 -0.13739596048E+02 -0.28680729461E+02  0.31886022403E+02  0.00000000000E+00 0. -1.
         11    1    3    3    0    0  0.51798728652E+01 -0.70895248997E+01 -0.88797190686E+01  0.12487668205E+02  0.51100000000E-03 0. -1.
        -11    1    3    3    0    0  0.73000631988E+01  0.41218389061E+01  0.11562712114E+02  0.14282044335E+02  0.51100000000E-03 0.  1.
         12    1    3    3    0    0 -0.10165269194E+02  0.16707282042E+02  0.25997736415E+02  0.32532265057E+02  0.00000000000E+00 0. -1.
</event>
<event>
 7    1  0.4237994E-013  0.5930195E+02  0.7816164E-02  0.1266605E+00
        -11   -1    0    0    0    0  0.00000000000E+00  0.00000000000E+00  0.45593999997E+02  0.45594000000E+02  0.51100000000E-03 0. -1.
         11   -1    0    0    0    0 -0.00000000000E+00 -0.00000000000E+00 -0.45593999997E+02  0.45594000000E+02  0.51100000000E-03 0.  1.
    9900012    2    1    2    0    0  0.31617800971E+02  0.22484198356E+01  0.34611105821E+01  0.59301952637E+02  0.50000015701E+02 0.  0.
         12    1    1    2    0    0 -0.31617800971E+02 -0.22484198356E+01 -0.34611105821E+01  0.31886047363E+02  0.00000000000E+00 0. -1.
         11    1    3    3    0    0  0.38624434381E+02 -0.88505210191E+01 -0.89942363539E+01  0.40633421483E+02  0.51100000000E-03 0. -1.
        -11    1    3    3    0    0 -0.49939187301E+01  0.44452225748E+01  0.42847785833E+01  0.79409417446E+01  0.51100000000E-03 0.  1.
         12    1    3    3    0    0 -0.20127146797E+01  0.66537182799E+01  0.81705683527E+01  0.10727589409E+02  0.00000000000E+00 0. -1.
</event>
<event>
 7    1  0.4237994E-013  0.5930169E+02  0.7816164E-02  0.1266606E+00
        -11   -1    0    0    0    0  0.00000000000E+00  0.00000000000E+00  0.45593999997E+02  0.45594000000E+02  0.51100000000E-03 0. -1.
         11   -1    0    0    0    0 -0.00000000000E+00 -0.00000000000E+00 -0.45593999997E+02  0.45594000000E+02  0.51100000000E-03 0.  1.
    9900012    2    1    2    0    0  0.17192752631E+01 -0.14059432105E+02 -0.28567691788E+02  0.59301693336E+02  0.49999542796E+02 0.  0.
         12    1    1    2    0    0 -0.17192752631E+01  0.14059432105E+02  0.28567691788E+02  0.31886306664E+02  0.00000000000E+00 0. -1.
         11    1    3    3    0    0 -0.15871351787E+02 -0.59220742151E+01 -0.14207992845E+02  0.22109677326E+02  0.51100000000E-03 0. -1.
        -11    1    3    3    0    0  0.22341506435E+02 -0.13213739713E+02 -0.15370523924E+02  0.30166186914E+02  0.51100000000E-03 0.  1.
        -12    1    3    3    0    0 -0.47508793852E+01  0.50763818223E+01  0.10108249798E+01  0.70258290954E+01  0.00000000000E+00 0.  1.
</event>
<event>
 7    1  0.4237994E-013  0.5930196E+02  0.7816164E-02  0.1266605E+00
        -11   -1    0    0    0    0  0.00000000000E+00  0.00000000000E+00  0.45593999997E+02  0.45594000000E+02  0.51100000000E-03 0. -1.
         11   -1    0    0    0    0 -0.00000000000E+00 -0.00000000000E+00 -0.45593999997E+02  0.45594000000E+02  0.51100000000E-03 0.  1.
    9900012    2    1    2    0    0  0.24019325193E+02 -0.97217503054E+01 -0.18581692476E+02  0.59301957489E+02  0.50000024551E+02 0.  0.
         12    1    1    2    0    0 -0.24019325193E+02  0.97217503054E+01  0.18581692476E+02  0.31886042511E+02  0.00000000000E+00 0. -1.
         11    1    3    3    0    0  0.15837851329E+00 -0.11670032364E+02  0.26468803726E+01  0.11967485747E+02  0.51100000000E-03 0. -1.
        -11    1    3    3    0    0  0.23823147051E+02  0.14460575391E+02 -0.77126090090E+01  0.28915997546E+02  0.51100000000E-03 0.  1.
        -12    1    3    3    0    0  0.37799628365E-01 -0.12512293332E+02 -0.13515963839E+02  0.18418474197E+02  0.00000000000E+00 0.  1.
</event>
<event>
 7    1  0.4237994E-013  0.5930195E+02  0.7816164E-02  0.1266605E+00
        -11   -1    0    0    0    0  0.00000000000E+00  0.00000000000E+00  0.45593999997E+02  0.45594000000E+02  0.51100000000E-03 0.  1.
         11   -1    0    0    0    0 -0.00000000000E+00 -0.00000000000E+00 -0.45593999997E+02  0.45594000000E+02  0.51100000000E-03 0. -1.
    9900012    2    1    2    0    0  0.18014722911E+02 -0.15013032057E+02  0.21605527192E+02  0.59301950098E+02  0.50000011071E+02 0.  0.
         12    1    1    2    0    0 -0.18014722911E+02  0.15013032057E+02 -0.21605527192E+02  0.31886049902E+02  0.00000000000E+00 0. -1.
         11    1    3    3    0    0  0.18933028828E+02  0.44946568740E+01  0.20029857226E+01  0.19562041639E+02  0.51100000000E-03 0. -1.
        -11    1    3    3    0    0  0.21143884293E+00 -0.24524357866E+02  0.22962596800E+02  0.33597167845E+02  0.51100000000E-03 0.  1.
        -12    1    3    3    0    0 -0.11297447602E+01  0.50166689353E+01 -0.33600553304E+01  0.61427406142E+01  0.00000000000E+00 0.  1.
</event>
<event>
 7    1  0.4237994E-013  0.5930192E+02  0.7816164E-02  0.1266605E+00
        -11   -1    0    0    0    0  0.00000000000E+00  0.00000000000E+00  0.45593999997E+02  0.45594000000E+02  0.51100000000E-03 0.  1.
         11   -1    0    0    0    0 -0.00000000000E+00 -0.00000000000E+00 -0.45593999997E+02  0.45594000000E+02  0.51100000000E-03 0. -1.
    9900012    2    1    2    0    0 -0.65529475288E+01  0.19798530767E+02  0.24120514935E+02  0.59301918670E+02  0.49999953754E+02 0.  0.
         12    1    1    2    0    0  0.65529475288E+01 -0.19798530767E+02 -0.24120514935E+02  0.31886081330E+02  0.00000000000E+00 0. -1.
         11    1    3    3    0    0 -0.22348299194E+02  0.21268869019E+02  0.26356146963E+02  0.40576566504E+02  0.51100000000E-03 0. -1.
        -11    1    3    3    0    0  0.11901293822E+02  0.32669124324E+01 -0.24797035383E+01  0.12588186580E+02  0.51100000000E-03 0.  1.
         12    1    3    3    0    0  0.38940578439E+01 -0.47372506841E+01  0.24407150997E+00  0.61371655866E+01  0.00000000000E+00 0. -1.
</event>
<event>
 7    1  0.4237994E-013  0.5930194E+02  0.7816164E-02  0.1266605E+00
        -11   -1    0    0    0    0  0.00000000000E+00  0.00000000000E+00  0.45593999997E+02  0.45594000000E+02  0.51100000000E-03 0.  1.
         11   -1    0    0    0    0 -0.00000000000E+00 -0.00000000000E+00 -0.45593999997E+02  0.45594000000E+02  0.51100000000E-03 0. -1.
    9900012    2    1    2    0    0  0.17810281535E+02  0.25806125907E+02  0.57929507797E+01  0.59301944405E+02  0.50000000689E+02 0.  0.
         12    1    1    2    0    0 -0.17810281535E+02 -0.25806125907E+02 -0.57929507797E+01  0.31886055595E+02  0.00000000000E+00 0. -1.
         11    1    3    3    0    0  0.11699747930E+02  0.17570556796E+02 -0.22622997076E+01  0.21230321900E+02  0.51100000000E-03 0. -1.
        -11    1    3    3    0    0 -0.14370664834E+02  0.99328107388E+00  0.77240587131E+01  0.16345142959E+02  0.51100000000E-03 0.  1.
        -12    1    3    3    0    0  0.20481198439E+02  0.72422880365E+01  0.33119177423E+00  0.21726479546E+02  0.00000000000E+00 0.  1.
</event>
<event>
 7    1  0.4237994E-013  0.5930195E+02  0.7816164E-02  0.1266605E+00
        -11   -1    0    0    0    0  0.00000000000E+00  0.00000000000E+00  0.45593999997E+02  0.45594000000E+02  0.51100000000E-03 0.  1.
         11   -1    0    0    0    0 -0.00000000000E+00 -0.00000000000E+00 -0.45593999997E+02  0.45594000000E+02  0.51100000000E-03 0. -1.
    9900012    2    1    2    0    0 -0.11418956121E+02  0.19364550136E+02  0.22612873379E+02  0.59301946570E+02  0.50000004637E+02 0.  0.
         12    1    1    2    0    0  0.11418956121E+02 -0.19364550136E+02 -0.22612873379E+02  0.31886053430E+02  0.00000000000E+00 0. -1.
         11    1    3    3    0    0 -0.85068229758E+01  0.21227494450E+02  0.19684803320E+02  0.30173896662E+02  0.51100000000E-03 0. -1.
        -11    1    3    3    0    0 -0.11990304645E+02 -0.75822037868E+01 -0.57707189609E+01  0.15315300106E+02  0.51100000000E-03 0.  1.
         12    1    3    3    0    0  0.90781714994E+01  0.57192594725E+01  0.86987890200E+01  0.13812749802E+02  0.00000000000E+00 0. -1.
</event>
<event>
 7    1  0.4237994E-013  0.5930194E+02  0.7816164E-02  0.1266605E+00
        -11   -1    0    0    0    0  0.00000000000E+00  0.00000000000E+00  0.45593999997E+02  0.45594000000E+02  0.51100000000E-03 0.  1.
         11   -1    0    0    0    0 -0.00000000000E+00 -0.00000000000E+00 -0.45593999997E+02  0.45594000000E+02  0.51100000000E-03 0. -1.
    9900012    2    1    2    0    0 -0.29629419324E+02 -0.88366100150E+01  0.77931291735E+01  0.59301936769E+02  0.49999986762E+02 0.  0.
         12    1    1    2    0    0  0.29629419324E+02  0.88366100150E+01 -0.77931291735E+01  0.31886063231E+02  0.00000000000E+00 0. -1.
         11    1    3    3    0    0 -0.18906918137E+01 -0.14335362809E+02  0.17049351549E+02  0.22355261817E+02  0.51100000000E-03 0. -1.
        -11    1    3    3    0    0 -0.27859796437E+02  0.10331387380E+02 -0.11174988400E+02  0.31745648343E+02  0.51100000000E-03 0.  1.
        -12    1    3    3    0    0  0.12106892671E+00 -0.48326345863E+01  0.19187660250E+01  0.52010266091E+01  0.00000000000E+00 0.  1.
</event>
<event>
 7    1  0.4237994E-013  0.5930195E+02  0.7816164E-02  0.1266605E+00
        -11   -1    0    0    0    0  0.00000000000E+00  0.00000000000E+00  0.45593999997E+02  0.45594000000E+02  0.51100000000E-03 0. -1.
         11   -1    0    0    0    0 -0.00000000000E+00 -0.00000000000E+00 -0.45593999997E+02  0.45594000000E+02  0.51100000000E-03 0.  1.
    9900012    2    1    2    0    0 -0.99635178826E+01 -0.67167311723E+00 -0.30281960487E+02  0.59301953454E+02  0.50000017191E+02 0.  0.
         12    1    1    2    0    0  0.99635178826E+01  0.67167311723E+00  0.30281960487E+02  0.31886046546E+02  0.00000000000E+00 0. -1.
         11    1    3    3    0    0  0.41341054741E+01 -0.13061558099E+02 -0.15880821143E+02  0.20973688480E+02  0.51100000000E-03 0. -1.
        -11    1    3    3    0    0 -0.10027209755E+02  0.52793810476E+01  0.83960079310E+01  0.14103536761E+02  0.51100000000E-03 0.  1.
        -12    1    3    3    0    0 -0.40704136015E+01  0.71105039340E+01 -0.22797147276E+02  0.24224728213E+02  0.00000000000E+00 0.  1.
</event>
<event>
 7    1  0.4237994E-013  0.5930193E+02  0.7816164E-02  0.1266605E+00
        -11   -1    0    0    0    0  0.00000000000E+00  0.00000000000E+00  0.45593999997E+02  0.45594000000E+02  0.51100000000E-03 0.  1.
         11   -1    0    0    0    0 -0.00000000000E+00 -0.00000000000E+00 -0.45593999997E+02  0.45594000000E+02  0.51100000000E-03 0. -1.
    9900012    2    1    2    0    0 -0.13104187663E+02 -0.20399677128E+02  0.20708807458E+02  0.59301933018E+02  0.49999979922E+02 0.  0.
         12    1    1    2    0    0  0.13104187663E+02  0.20399677128E+02 -0.20708807458E+02  0.31886066982E+02  0.00000000000E+00 0. -1.
         11    1    3    3    0    0  0.25120448090E+01 -0.12303480014E+02 -0.67026787254E+01  0.14234180409E+02  0.51100000000E-03 0. -1.
        -11    1    3    3    0    0 -0.89928338280E+01 -0.13741835108E+02  0.31445128399E+02  0.35475416737E+02  0.51100000000E-03 0.  1.
        -12    1    3    3    0    0 -0.66233986443E+01  0.56456379939E+01 -0.40336422156E+01  0.95923358721E+01  0.00000000000E+00 0.  1.
</event>
<event>
 7    1  0.4237994E-013  0.5930194E+02  0.7816164E-02  0.1266605E+00
        -11   -1    0    0    0    0  0.00000000000E+00  0.00000000000E+00  0.45593999997E+02  0.45594000000E+02  0.51100000000E-03 0. -1.
         11   -1    0    0    0    0 -0.00000000000E+00 -0.00000000000E+00 -0.45593999997E+02  0.45594000000E+02  0.51100000000E-03 0.  1.
    9900012    2    1    2    0    0  0.18751260644E+02 -0.13486935357E+02 -0.21982117472E+02  0.59301942081E+02  0.49999996450E+02 0.  0.
         12    1    1    2    0    0 -0.18751260644E+02  0.13486935357E+02  0.21982117472E+02  0.31886057919E+02  0.00000000000E+00 0. -1.
         11    1    3    3    0    0  0.14811435300E+01  0.85435384685E+01  0.25812168392E+01  0.90470169864E+01  0.51100000000E-03 0. -1.
        -11    1    3    3    0    0  0.10051636746E+02 -0.28296560075E+02 -0.27008901671E+02  0.40388259223E+02  0.51100000000E-03 0.  1.
        -12    1    3    3    0    0  0.72184803677E+01  0.62660862497E+01  0.24455673603E+01  0.98666658715E+01  0.00000000000E+00 0.  1.
</event>
<event>
 7    1  0.4237994E-013  0.5930195E+02  0.7816164E-02  0.1266605E+00
        -11   -1    0    0    0    0  0.00000000000E+00  0.00000000000E+00  0.45593999997E+02  0.45594000000E+02  0.51100000000E-03 0. -1.
         11   -1    0    0    0    0 -0.00000000000E+00 -0.00000000000E+00 -0.45593999997E+02  0.45594000000E+02  0.51100000000E-03 0.  1.
    9900012    2    1    2    0    0 -0.43655634301E+01  0.21403999774E+02 -0.23227803186E+02  0.59301949895E+02  0.50000010701E+02 0.  0.
         12    1    1    2    0    0  0.43655634301E+01 -0.21403999774E+02  0.23227803186E+02  0.31886050105E+02  0.00000000000E+00 0. -1.
         11    1    3    3    0    0  0.62608659542E+00 -0.12415957016E+02  0.36868623893E+01  0.12966916657E+02  0.51100000000E-03 0. -1.
        -11    1    3    3    0    0  0.54357284736E+01  0.13234333618E+02 -0.73666826767E+01  0.16092319418E+02  0.51100000000E-03 0.  1.
         12    1    3    3    0    0 -0.10427378499E+02  0.20585623173E+02 -0.19547982899E+02  0.30242713820E+02  0.00000000000E+00 0. -1.
</event>
<event>
 7    1  0.4237994E-013  0.5930194E+02  0.7816164E-02  0.1266605E+00
        -11   -1    0    0    0    0  0.00000000000E+00  0.00000000000E+00  0.45593999997E+02  0.45594000000E+02  0.51100000000E-03 0.  1.
         11   -1    0    0    0    0 -0.00000000000E+00 -0.00000000000E+00 -0.45593999997E+02  0.45594000000E+02  0.51100000000E-03 0. -1.
    9900012    2    1    2    0    0  0.76696685395E+01  0.23813312860E+02  0.19769253717E+02  0.59301936000E+02  0.49999985359E+02 0.  0.
         12    1    1    2    0    0 -0.76696685395E+01 -0.23813312860E+02 -0.19769253717E+02  0.31886064000E+02  0.00000000000E+00 0. -1.
         11    1    3    3    0    0 -0.87025438119E+01  0.10640788780E+02 -0.69354857150E+01  0.15396805416E+02  0.51100000000E-03 0. -1.
        -11    1    3    3    0    0  0.18029066001E+02 -0.21779843321E+01  0.20166514983E+02  0.27138149595E+02  0.51100000000E-03 0.  1.
        -12    1    3    3    0    0 -0.16568536496E+01  0.15350508413E+02  0.65382244492E+01  0.16766980989E+02  0.00000000000E+00 0.  1.
</event>
<event>
 7    1  0.4237994E-013  0.5930196E+02  0.7816164E-02  0.1266605E+00
        -11   -1    0    0    0    0  0.00000000000E+00  0.00000000000E+00  0.45593999997E+02  0.45594000000E+02  0.51100000000E-03 0.  1.
         11   -1    0    0    0    0 -0.00000000000E+00 -0.00000000000E+00 -0.45593999997E+02  0.45594000000E+02  0.51100000000E-03 0. -1.
    9900012    2    1    2    0    0 -0.37779640813E+01  0.10299125726E+02  0.29939515641E+02  0.59301959165E+02  0.50000027606E+02 0.  0.
         12    1    1    2    0    0  0.37779640813E+01 -0.10299125726E+02 -0.29939515641E+02  0.31886040835E+02  0.00000000000E+00 0. -1.
         11    1    3    3    0    0  0.12203014105E+02  0.44169608348E+01  0.34723826879E+02  0.37069761932E+02  0.51100000000E-03 0. -1.
        -11    1    3    3    0    0 -0.10565642041E+02  0.18097637834E+01  0.37308230292E+01  0.11350201647E+02  0.51100000000E-03 0.  1.
         12    1    3    3    0    0 -0.54153361451E+01  0.40724011075E+01 -0.85151342674E+01  0.10881995586E+02  0.00000000000E+00 0. -1.
</event>
<event>
 7    1  0.4237994E-013  0.5930196E+02  0.7816164E-02  0.1266605E+00
        -11   -1    0    0    0    0  0.00000000000E+00  0.00000000000E+00  0.45593999997E+02  0.45594000000E+02  0.51100000000E-03 0. -1.
         11   -1    0    0    0    0 -0.00000000000E+00 -0.00000000000E+00 -0.45593999997E+02  0.45594000000E+02  0.51100000000E-03 0.  1.
    9900012    2    1    2    0    0 -0.19833106346E+02 -0.18572629260E+01 -0.24898154493E+02  0.59301958695E+02  0.50000026750E+02 0.  0.
         12    1    1    2    0    0  0.19833106346E+02  0.18572629260E+01  0.24898154493E+02  0.31886041305E+02  0.00000000000E+00 0. -1.
         11    1    3    3    0    0 -0.53954379610E+01 -0.14599918997E+02  0.68335647170E+01  0.16998999750E+02  0.51100000000E-03 0. -1.
        -11    1    3    3    0    0 -0.18796716391E+02  0.84580676735E+01 -0.18371622102E+02  0.27611083911E+02  0.51100000000E-03 0.  1.
         12    1    3    3    0    0  0.43590480058E+01  0.42845883976E+01 -0.13360097109E+02  0.14691875034E+02  0.00000000000E+00 0. -1.
</event>
<event>
 7    1  0.4237994E-013  0.5930198E+02  0.7816164E-02  0.1266605E+00
        -11   -1    0    0    0    0  0.00000000000E+00  0.00000000000E+00  0.45593999997E+02  0.45594000000E+02  0.51100000000E-03 0.  1.
         11   -1    0    0    0    0 -0.00000000000E+00 -0.00000000000E+00 -0.45593999997E+02  0.45594000000E+02  0.51100000000E-03 0. -1.
    9900012    2    1    2    0    0  0.22385877475E+02 -0.16917877962E+02  0.15145169673E+02  0.59301980030E+02  0.50000065660E+02 0.  0.
         12    1    1    2    0    0 -0.22385877475E+02  0.16917877962E+02 -0.15145169673E+02  0.31886019970E+02  0.00000000000E+00 0. -1.
         11    1    3    3    0    0  0.51038928772E+01 -0.12780328036E+02 -0.56394605660E+01  0.14872458537E+02  0.51100000000E-03 0. -1.
        -11    1    3    3    0    0  0.22653783540E+02  0.73216704661E+01  0.52274842537E+01  0.24374727875E+02  0.51100000000E-03 0.  1.
        -12    1    3    3    0    0 -0.53717989416E+01 -0.11459220393E+02  0.15557145985E+02  0.20054793619E+02  0.00000000000E+00 0.  1.
</event>
<event>
 7    1  0.4237994E-013  0.5930161E+02  0.7816164E-02  0.1266606E+00
        -11   -1    0    0    0    0  0.00000000000E+00  0.00000000000E+00  0.45593999997E+02  0.45594000000E+02  0.51100000000E-03 0.  1.
         11   -1    0    0    0    0 -0.00000000000E+00 -0.00000000000E+00 -0.45593999997E+02  0.45594000000E+02  0.51100000000E-03 0. -1.
    9900012    2    1    2    0    0  0.14525426517E+02  0.28376361046E+02 -0.73194456088E+00  0.59301613805E+02  0.49999397750E+02 0.  0.
         12    1    1    2    0    0 -0.14525426517E+02 -0.28376361046E+02  0.73194456088E+00  0.31886386195E+02  0.00000000000E+00 0. -1.
         11    1    3    3    0    0  0.86181077299E+01  0.46312597841E+01 -0.14200020331E+01  0.98861900683E+01  0.51100000000E-03 0. -1.
        -11    1    3    3    0    0 -0.27271135256E+01 -0.11338735667E+02  0.56271042950E+01  0.12948682471E+02  0.51100000000E-03 0.  1.
        -12    1    3    3    0    0  0.86344323123E+01  0.35083836930E+02 -0.49390468228E+01  0.36466741266E+02  0.00000000000E+00 0.  1.
</event>
<event>
 7    1  0.4237994E-013  0.5930196E+02  0.7816164E-02  0.1266605E+00
        -11   -1    0    0    0    0  0.00000000000E+00  0.00000000000E+00  0.45593999997E+02  0.45594000000E+02  0.51100000000E-03 0.  1.
         11   -1    0    0    0    0 -0.00000000000E+00 -0.00000000000E+00 -0.45593999997E+02  0.45594000000E+02  0.51100000000E-03 0. -1.
    9900012    2    1    2    0    0 -0.49762470614E+00  0.42767365999E+01  0.31594008531E+02  0.59301961028E+02  0.50000031004E+02 0.  0.
         12    1    1    2    0    0  0.49762470614E+00 -0.42767365999E+01 -0.31594008531E+02  0.31886038972E+02  0.00000000000E+00 0. -1.
         11    1    3    3    0    0  0.32464422602E+01  0.78373728985E+01  0.80754103256E+01  0.11712218128E+02  0.51100000000E-03 0. -1.
        -11    1    3    3    0    0 -0.10337411559E+02  0.59588778739E+01 -0.77620793272E+01  0.14234471504E+02  0.51100000000E-03 0.  1.
        -12    1    3    3    0    0  0.65933445924E+01 -0.95195141725E+01  0.31280677532E+02  0.33355271396E+02  0.00000000000E+00 0.  1.
</event>
<event>
 7    1  0.4237994E-013  0.5930196E+02  0.7816164E-02  0.1266605E+00
        -11   -1    0    0    0    0  0.00000000000E+00  0.00000000000E+00  0.45593999997E+02  0.45594000000E+02  0.51100000000E-03 0.  1.
         11   -1    0    0    0    0 -0.00000000000E+00 -0.00000000000E+00 -0.45593999997E+02  0.45594000000E+02  0.51100000000E-03 0. -1.
    9900012    2    1    2    0    0 -0.18276272372E+01 -0.22476304143E+02  0.22543183318E+02  0.59301959429E+02  0.50000028087E+02 0.  0.
         12    1    1    2    0    0  0.18276272372E+01  0.22476304143E+02 -0.22543183318E+02  0.31886040571E+02  0.00000000000E+00 0. -1.
         11    1    3    3    0    0 -0.43203610348E+01 -0.49823815138E+01 -0.55204097942E+00  0.66177333373E+01  0.51100000000E-03 0. -1.
        -11    1    3    3    0    0  0.87551977165E+01 -0.26700095763E+01  0.32690835425E+02  0.33948095075E+02  0.51100000000E-03 0.  1.
        -12    1    3    3    0    0 -0.62624639189E+01 -0.14823913052E+02 -0.95956111280E+01  0.18736131016E+02  0.00000000000E+00 0.  1.
</event>
<event>
 7    1  0.4237994E-013  0.5930196E+02  0.7816164E-02  0.1266605E+00
        -11   -1    0    0    0    0  0.00000000000E+00  0.00000000000E+00  0.45593999997E+02  0.45594000000E+02  0.51100000000E-03 0.  1.
         11   -1    0    0    0    0 -0.00000000000E+00 -0.00000000000E+00 -0.45593999997E+02  0.45594000000E+02  0.51100000000E-03 0. -1.
    9900012    2    1    2    0    0 -0.33605625071E+01  0.35685237089E+01  0.31507008337E+02  0.59301963618E+02  0.50000035727E+02 0.  0.
         12    1    1    2    0    0  0.33605625071E+01 -0.35685237089E+01 -0.31507008337E+02  0.31886036382E+02  0.00000000000E+00 0. -1.
         11    1    3    3    0    0 -0.23449876075E+02  0.11289407527E+02  0.12564241611E+02  0.28899958093E+02  0.51100000000E-03 0. -1.
        -11    1    3    3    0    0  0.75696681704E+01 -0.37222762254E+01  0.14031057747E+02  0.16371493465E+02  0.51100000000E-03 0.  1.
         12    1    3    3    0    0  0.12519645398E+02 -0.39986075924E+01  0.49117089794E+01  0.14030512060E+02  0.00000000000E+00 0. -1.
</event>
<event>
 7    1  0.4237994E-013  0.5930161E+02  0.7816164E-02  0.1266606E+00
        -11   -1    0    0    0    0  0.00000000000E+00  0.00000000000E+00  0.45593999997E+02  0.45594000000E+02  0.51100000000E-03 0. -1.
         11   -1    0    0    0    0 -0.00000000000E+00 -0.00000000000E+00 -0.45593999997E+02  0.45594000000E+02  0.51100000000E-03 0.  1.
    9900012    2    1    2    0    0  0.30508894161E+02  0.79018431614E+01  0.48487499858E+01  0.59301605963E+02  0.49999383447E+02 0.  0.
         12    1    1    2    0    0 -0.30508894161E+02 -0.79018431614E+01 -0.48487499858E+01  0.31886394037E+02  0.00000000000E+00 0. -1.
         11    1    3    3    0    0  0.10800764195E+02  0.20755025471E+02  0.32337959426E+01  0.23619589877E+02  0.51100000000E-03 0. -1.
        -11    1    3    3    0    0  0.15576787165E+02 -0.15006098556E+02 -0.95050978731E+01  0.23625540800E+02  0.51100000000E-03 0.  1.
         12    1    3    3    0    0  0.41313428014E+01  0.21529162466E+01  0.11120051916E+02  0.12056475286E+02  0.00000000000E+00 0. -1.
</event>
<event>
 7    1  0.4237994E-013  0.5930192E+02  0.7816164E-02  0.1266605E+00
        -11   -1    0    0    0    0  0.00000000000E+00  0.00000000000E+00  0.45593999997E+02  0.45594000000E+02  0.51100000000E-03 0.  1.
         11   -1    0    0    0    0 -0.00000000000E+00 -0.00000000000E+00 -0.45593999997E+02  0.45594000000E+02  0.51100000000E-03 0. -1.
    9900012    2    1    2    0    0 -0.70567654907E+01  0.24846653398E+02  0.18696735092E+02  0.59301921104E+02  0.49999958193E+02 0.  0.
         12    1    1    2    0    0  0.70567654907E+01 -0.24846653398E+02 -0.18696735092E+02  0.31886078896E+02  0.00000000000E+00 0. -1.
         11    1    3    3    0    0 -0.31069172998E+01  0.51924078506E+01 -0.10418010043E+02  0.12047778547E+02  0.51100000000E-03 0. -1.
        -11    1    3    3    0    0  0.24983653667E+01  0.11287343418E+02  0.33782245443E+02  0.35705546605E+02  0.51100000000E-03 0.  1.
        -12    1    3    3    0    0 -0.64482135576E+01  0.83669021295E+01 -0.46675003086E+01  0.11548595952E+02  0.00000000000E+00 0.  1.
</event>
<event>
 7    1  0.4237994E-013  0.5930196E+02  0.7816164E-02  0.1266605E+00
        -11   -1    0    0    0    0  0.00000000000E+00  0.00000000000E+00  0.45593999997E+02  0.45594000000E+02  0.51100000000E-03 0. -1.
         11   -1    0    0    0    0 -0.00000000000E+00 -0.00000000000E+00 -0.45593999997E+02  0.45594000000E+02  0.51100000000E-03 0.  1.
    9900012    2    1    2    0    0  0.19043122275E+01 -0.30230310955E+02 -0.99609969497E+01  0.59301959704E+02  0.50000028590E+02 0.  0.
         12    1    1    2    0    0 -0.19043122275E+01  0.30230310955E+02  0.99609969497E+01  0.31886040296E+02  0.00000000000E+00 0. -1.
         11    1    3    3    0    0  0.38030998076E+01  0.64659172802E+01  0.72026547201E+01  0.10399513916E+02  0.51100000000E-03 0. -1.
        -11    1    3    3    0    0  0.10415262625E+01 -0.23338141709E+02 -0.24101705467E+02  0.33565545461E+02  0.51100000000E-03 0.  1.
        -12    1    3    3    0    0 -0.29403138427E+01 -0.13358086526E+02  0.69380537973E+01  0.15336900327E+02  0.00000000000E+00 0.  1.
</event>
<event>
 7    1  0.4237994E-013  0.5930195E+02  0.7816164E-02  0.1266605E+00
        -11   -1    0    0    0    0  0.00000000000E+00  0.00000000000E+00  0.45593999997E+02  0.45594000000E+02  0.51100000000E-03 0. -1.
         11   -1    0    0    0    0 -0.00000000000E+00 -0.00000000000E+00 -0.45593999997E+02  0.45594000000E+02  0.51100000000E-03 0.  1.
    9900012    2    1    2    0    0 -0.13378576951E+02  0.20523032216E+02 -0.20409292792E+02  0.59301946546E+02  0.50000004593E+02 0.  0.
         12    1    1    2    0    0  0.13378576951E+02 -0.20523032216E+02  0.20409292792E+02  0.31886053454E+02  0.00000000000E+00 0. -1.
         11    1    3    3    0    0 -0.74897846549E+01  0.29838136695E+02 -0.19505059917E+02  0.36426070859E+02  0.51100000000E-03 0. -1.
        -11    1    3    3    0    0  0.60801456920E+01 -0.51427042204E+01  0.44427855445E+01  0.91188772329E+01  0.51100000000E-03 0.  1.
         12    1    3    3    0    0 -0.11968937988E+02 -0.41724002586E+01 -0.53470184197E+01  0.13756998454E+02  0.00000000000E+00 0. -1.
</event>
<event>
 7    1  0.4237994E-013  0.5930196E+02  0.7816164E-02  0.1266605E+00
        -11   -1    0    0    0    0  0.00000000000E+00  0.00000000000E+00  0.45593999997E+02  0.45594000000E+02  0.51100000000E-03 0.  1.
         11   -1    0    0    0    0 -0.00000000000E+00 -0.00000000000E+00 -0.45593999997E+02  0.45594000000E+02  0.51100000000E-03 0. -1.
    9900012    2    1    2    0    0 -0.36314559194E+01  0.19868064923E+02  0.24673711049E+02  0.59301960848E+02  0.50000030676E+02 0.  0.
         12    1    1    2    0    0  0.36314559194E+01 -0.19868064923E+02 -0.24673711049E+02  0.31886039152E+02  0.00000000000E+00 0. -1.
         11    1    3    3    0    0 -0.55406185615E+00  0.11628136822E+02 -0.51540692374E+01  0.12731259971E+02  0.51100000000E-03 0. -1.
        -11    1    3    3    0    0 -0.18233062548E+02  0.94196954303E+01  0.18231195756E+02  0.27450896722E+02  0.51100000000E-03 0.  1.
        -12    1    3    3    0    0  0.15155668484E+02 -0.11797673291E+01  0.11596584530E+02  0.19119804155E+02  0.00000000000E+00 0.  1.
</event>
<event>
 7    1  0.4237994E-013  0.5930187E+02  0.7816164E-02  0.1266605E+00
        -11   -1    0    0    0    0  0.00000000000E+00  0.00000000000E+00  0.45593999997E+02  0.45594000000E+02  0.51100000000E-03 0.  1.
         11   -1    0    0    0    0 -0.00000000000E+00 -0.00000000000E+00 -0.45593999997E+02  0.45594000000E+02  0.51100000000E-03 0. -1.
    9900012    2    1    2    0    0 -0.14669373121E+02  0.15180946604E+02  0.23897145827E+02  0.59301870943E+02  0.49999866711E+02 0.  0.
         12    1    1    2    0    0  0.14669373121E+02 -0.15180946604E+02 -0.23897145827E+02  0.31886129057E+02  0.00000000000E+00 0. -1.
         11    1    3    3    0    0  0.56338797209E+01  0.19651522938E+02 -0.71214229461E+01  0.21648039623E+02  0.51100000000E-03 0. -1.
        -11    1    3    3    0    0 -0.99161397084E+01  0.16631862914E+00  0.13123375875E+02  0.16449330784E+02  0.51100000000E-03 0.  1.
         12    1    3    3    0    0 -0.10387113134E+02 -0.46368949628E+01  0.17895192897E+02  0.21204500536E+02  0.00000000000E+00 0. -1.
</event>
<event>
 7    1  0.4237994E-013  0.5930199E+02  0.7816164E-02  0.1266605E+00
        -11   -1    0    0    0    0  0.00000000000E+00  0.00000000000E+00  0.45593999997E+02  0.45594000000E+02  0.51100000000E-03 0.  1.
         11   -1    0    0    0    0 -0.00000000000E+00 -0.00000000000E+00 -0.45593999997E+02  0.45594000000E+02  0.51100000000E-03 0. -1.
    9900012    2    1    2    0    0 -0.14550004403E+02 -0.27916400571E+02  0.50684967845E+01  0.59301988825E+02  0.50000081700E+02 0.  0.
         12    1    1    2    0    0  0.14550004403E+02  0.27916400571E+02 -0.50684967845E+01  0.31886011175E+02  0.00000000000E+00 0. -1.
         11    1    3    3    0    0 -0.11317335318E+01  0.54877657974E+00 -0.55484988493E+01  0.56892720328E+01  0.51100000000E-03 0. -1.
        -11    1    3    3    0    0 -0.22215925933E+02  0.11813414545E+00  0.79159617175E+01  0.23584396768E+02  0.51100000000E-03 0.  1.
        -12    1    3    3    0    0  0.87976550619E+01 -0.28583311296E+02  0.27010339162E+01  0.30028320024E+02  0.00000000000E+00 0.  1.
</event>
<event>
 7    1  0.4237994E-013  0.5930195E+02  0.7816164E-02  0.1266605E+00
        -11   -1    0    0    0    0  0.00000000000E+00  0.00000000000E+00  0.45593999997E+02  0.45594000000E+02  0.51100000000E-03 0.  1.
         11   -1    0    0    0    0 -0.00000000000E+00 -0.00000000000E+00 -0.45593999997E+02  0.45594000000E+02  0.51100000000E-03 0. -1.
    9900012    2    1    2    0    0  0.13143772457E+02 -0.23887863103E+02 -0.16532744779E+02  0.59301946498E+02  0.50000004505E+02 0.  0.
         12    1    1    2    0    0 -0.13143772457E+02  0.23887863103E+02  0.16532744779E+02  0.31886053502E+02  0.00000000000E+00 0. -1.
         11    1    3    3    0    0 -0.15756835999E+02 -0.48221202578E+01 -0.16710266240E+02  0.23468355771E+02  0.51100000000E-03 0. -1.
        -11    1    3    3    0    0  0.19218934793E+02 -0.74156424373E+01 -0.11185039517E+01  0.20630323766E+02  0.51100000000E-03 0.  1.
         12    1    3    3    0    0  0.96816736628E+01 -0.11650100408E+02  0.12960254134E+01  0.15203266961E+02  0.00000000000E+00 0. -1.
</event>
<event>
 7    1  0.4237994E-013  0.5930192E+02  0.7816164E-02  0.1266605E+00
        -11   -1    0    0    0    0  0.00000000000E+00  0.00000000000E+00  0.45593999997E+02  0.45594000000E+02  0.51100000000E-03 0.  1.
         11   -1    0    0    0    0 -0.00000000000E+00 -0.00000000000E+00 -0.45593999997E+02  0.45594000000E+02  0.51100000000E-03 0. -1.
    9900012    2    1    2    0    0 -0.88905634849E+01 -0.13546250775E+02  0.27462315387E+02  0.59301924739E+02  0.49999964823E+02 0.  0.
         12    1    1    2    0    0  0.88905634849E+01  0.13546250775E+02 -0.27462315387E+02  0.31886075261E+02  0.00000000000E+00 0. -1.
         11    1    3    3    0    0 -0.16007635430E+02  0.12844067794E+02  0.24880466144E+01  0.20673771929E+02  0.51100000000E-03 0. -1.
        -11    1    3    3    0    0 -0.21703561976E+01 -0.10580089041E+02  0.65338834645E+01  0.12623009290E+02  0.51100000000E-03 0.  1.
         12    1    3    3    0    0  0.92874281426E+01 -0.15810229528E+02  0.18440385308E+02  0.26005143521E+02  0.00000000000E+00 0. -1.
</event>
<event>
 7    1  0.4237994E-013  0.5930192E+02  0.7816164E-02  0.1266605E+00
        -11   -1    0    0    0    0  0.00000000000E+00  0.00000000000E+00  0.45593999997E+02  0.45594000000E+02  0.51100000000E-03 0.  1.
         11   -1    0    0    0    0 -0.00000000000E+00 -0.00000000000E+00 -0.45593999997E+02  0.45594000000E+02  0.51100000000E-03 0. -1.
    9900012    2    1    2    0    0 -0.15786522527E+02 -0.13998937457E+02  0.23906851713E+02  0.59301919929E+02  0.49999956050E+02 0.  0.
         12    1    1    2    0    0  0.15786522527E+02  0.13998937457E+02 -0.23906851713E+02  0.31886080071E+02  0.00000000000E+00 0. -1.
         11    1    3    3    0    0 -0.22186791241E+01  0.16548888429E+02  0.80708887318E+01  0.18545282162E+02  0.51100000000E-03 0. -1.
        -11    1    3    3    0    0 -0.16818064569E+02 -0.25964588805E+02  0.96632799353E+01  0.32409661322E+02  0.51100000000E-03 0.  1.
        -12    1    3    3    0    0  0.32502211655E+01 -0.45832370814E+01  0.61726830463E+01  0.83469764441E+01  0.00000000000E+00 0.  1.
</event>
<event>
 7    1  0.4237994E-013  0.5930193E+02  0.7816164E-02  0.1266605E+00
        -11   -1    0    0    0    0  0.00000000000E+00  0.00000000000E+00  0.45593999997E+02  0.45594000000E+02  0.51100000000E-03 0. -1.
         11   -1    0    0    0    0 -0.00000000000E+00 -0.00000000000E+00 -0.45593999997E+02  0.45594000000E+02  0.51100000000E-03 0.  1.
    9900012    2    1    2    0    0  0.27580781590E+02 -0.11816002263E+02 -0.10789065429E+02  0.59301931640E+02  0.49999977408E+02 0.  0.
         12    1    1    2    0    0 -0.27580781590E+02  0.11816002263E+02  0.10789065429E+02  0.31886068360E+02  0.00000000000E+00 0. -1.
         11    1    3    3    0    0  0.63301184919E+01 -0.12856890114E+02 -0.13362577085E+02  0.19594093246E+02  0.51100000000E-03 0. -1.
        -11    1    3    3    0    0 -0.90362111009E+01  0.50107308940E+00  0.25999138932E+01  0.94161424062E+01  0.51100000000E-03 0.  1.
        -12    1    3    3    0    0  0.30286874199E+02  0.53981476134E+00 -0.26402237049E-01  0.30291695988E+02  0.00000000000E+00 0.  1.
</event>
<event>
 7    1  0.4237994E-013  0.5930197E+02  0.7816164E-02  0.1266605E+00
        -11   -1    0    0    0    0  0.00000000000E+00  0.00000000000E+00  0.45593999997E+02  0.45594000000E+02  0.51100000000E-03 0. -1.
         11   -1    0    0    0    0 -0.00000000000E+00 -0.00000000000E+00 -0.45593999997E+02  0.45594000000E+02  0.51100000000E-03 0.  1.
    9900012    2    1    2    0    0 -0.11871936922E+02  0.18271677680E+02 -0.23279214659E+02  0.59301969726E+02  0.50000046867E+02 0.  0.
         12    1    1    2    0    0  0.11871936922E+02 -0.18271677680E+02  0.23279214659E+02  0.31886030274E+02  0.00000000000E+00 0. -1.
         11    1    3    3    0    0  0.67362636573E+01  0.81694788851E+01 -0.93287247698E+01  0.14111794337E+02  0.51100000000E-03 0. -1.
        -11    1    3    3    0    0 -0.83860714482E+01 -0.14106954559E+02 -0.28222192474E+01  0.16652245584E+02  0.51100000000E-03 0.  1.
        -12    1    3    3    0    0 -0.10222129131E+02  0.24209153353E+02 -0.11128270642E+02  0.28537929805E+02  0.00000000000E+00 0.  1.
</event>
<event>
 7    1  0.4237994E-013  0.5930195E+02  0.7816164E-02  0.1266605E+00
        -11   -1    0    0    0    0  0.00000000000E+00  0.00000000000E+00  0.45593999997E+02  0.45594000000E+02  0.51100000000E-03 0.  1.
         11   -1    0    0    0    0 -0.00000000000E+00 -0.00000000000E+00 -0.45593999997E+02  0.45594000000E+02  0.51100000000E-03 0. -1.
    9900012    2    1    2    0    0 -0.86097213404E+01 -0.29338105489E+02  0.90481344588E+01  0.59301945487E+02  0.50000002661E+02 0.  0.
         12    1    1    2    0    0  0.86097213404E+01  0.29338105489E+02 -0.90481344588E+01  0.31886054513E+02  0.00000000000E+00 0. -1.
         11    1    3    3    0    0  0.91891935417E+01  0.43535580981E+01  0.81283032738E+00  0.10200756808E+02  0.51100000000E-03 0. -1.
        -11    1    3    3    0    0 -0.25178038837E+02 -0.17673374641E+02  0.56557168277E+01  0.31277291187E+02  0.51100000000E-03 0.  1.
        -12    1    3    3    0    0  0.73791239553E+01 -0.16018288947E+02  0.25795873037E+01  0.17823897492E+02  0.00000000000E+00 0.  1.
</event>
<event>
 7    1  0.4237994E-013  0.5930193E+02  0.7816164E-02  0.1266605E+00
        -11   -1    0    0    0    0  0.00000000000E+00  0.00000000000E+00  0.45593999997E+02  0.45594000000E+02  0.51100000000E-03 0. -1.
         11   -1    0    0    0    0 -0.00000000000E+00 -0.00000000000E+00 -0.45593999997E+02  0.45594000000E+02  0.51100000000E-03 0.  1.
    9900012    2    1    2    0    0 -0.30372867596E+02  0.73972471935E+01  0.62842093220E+01  0.59301927196E+02  0.49999969303E+02 0.  0.
         12    1    1    2    0    0  0.30372867596E+02 -0.73972471935E+01 -0.62842093220E+01  0.31886072804E+02  0.00000000000E+00 0. -1.
         11    1    3    3    0    0 -0.16058226381E+02 -0.12727604949E+02 -0.66536169247E+01  0.21543657551E+02  0.51100000000E-03 0.  1.
        -11    1    3    3    0    0  0.27937497801E+01  0.17454673960E+02  0.34382741253E+01  0.18008120671E+02  0.51100000000E-03 0. -1.
        -12    1    3    3    0    0 -0.17108390996E+02  0.26701781817E+01  0.94995521214E+01  0.19750148974E+02  0.00000000000E+00 0.  1.
</event>
<event>
 7    1  0.4237994E-013  0.5930195E+02  0.7816164E-02  0.1266605E+00
        -11   -1    0    0    0    0  0.00000000000E+00  0.00000000000E+00  0.45593999997E+02  0.45594000000E+02  0.51100000000E-03 0.  1.
         11   -1    0    0    0    0 -0.00000000000E+00 -0.00000000000E+00 -0.45593999997E+02  0.45594000000E+02  0.51100000000E-03 0. -1.
    9900012    2    1    2    0    0 -0.65606234801E+01 -0.30212705726E+02  0.78019903099E+01  0.59301946301E+02  0.50000004146E+02 0.  0.
         12    1    1    2    0    0  0.65606234801E+01  0.30212705726E+02 -0.78019903099E+01  0.31886053699E+02  0.00000000000E+00 0. -1.
         11    1    3    3    0    0  0.20601893679E+01 -0.10117122188E+02 -0.10610393471E+02  0.14804762459E+02  0.51100000000E-03 0. -1.
        -11    1    3    3    0    0 -0.11971439859E+01 -0.27865019905E+02  0.18980078731E+02  0.33736269457E+02  0.51100000000E-03 0.  1.
        -12    1    3    3    0    0 -0.74236688621E+01  0.77694363669E+01 -0.56769494942E+00  0.10760914384E+02  0.00000000000E+00 0.  1.
</event>
<event>
 7    1  0.4237994E-013  0.5930174E+02  0.7816164E-02  0.1266605E+00
        -11   -1    0    0    0    0  0.00000000000E+00  0.00000000000E+00  0.45593999997E+02  0.45594000000E+02  0.51100000000E-03 0.  1.
         11   -1    0    0    0    0 -0.00000000000E+00 -0.00000000000E+00 -0.45593999997E+02  0.45594000000E+02  0.51100000000E-03 0. -1.
    9900012    2    1    2    0    0 -0.46709386893E+01 -0.13863803725E+02  0.28332157608E+02  0.59301735297E+02  0.49999619324E+02 0.  0.
         12    1    1    2    0    0  0.46709386893E+01  0.13863803725E+02 -0.28332157608E+02  0.31886264703E+02  0.00000000000E+00 0. -1.
         11    1    3    3    0    0 -0.20179258423E+02  0.81024849695E+01  0.73254296559E+01  0.22945907110E+02  0.51100000000E-03 0. -1.
        -11    1    3    3    0    0  0.20115364553E+01 -0.12054050130E+02  0.50434860555E+01  0.13220558056E+02  0.51100000000E-03 0.  1.
         12    1    3    3    0    0  0.13496783278E+02 -0.99122385648E+01  0.15963241897E+02  0.23135270132E+02  0.00000000000E+00 0. -1.
</event>
<event>
 7    1  0.4237994E-013  0.5930168E+02  0.7816164E-02  0.1266606E+00
        -11   -1    0    0    0    0  0.00000000000E+00  0.00000000000E+00  0.45593999997E+02  0.45594000000E+02  0.51100000000E-03 0. -1.
         11   -1    0    0    0    0 -0.00000000000E+00 -0.00000000000E+00 -0.45593999997E+02  0.45594000000E+02  0.51100000000E-03 0.  1.
    9900012    2    1    2    0    0 -0.32922879205E+01 -0.55373250809E+01 -0.31228769433E+02  0.59301683670E+02  0.49999525168E+02 0.  0.
         12    1    1    2    0    0  0.32922879205E+01  0.55373250809E+01  0.31228769433E+02  0.31886316330E+02  0.00000000000E+00 0. -1.
         11    1    3    3    0    0  0.14065126946E+02  0.23855561125E-02  0.50880626805E+01  0.14957144908E+02  0.51100000000E-03 0. -1.
        -11    1    3    3    0    0 -0.53096780937E+01  0.23099219608E+01 -0.26025551948E+02  0.26661916199E+02  0.51100000000E-03 0.  1.
         12    1    3    3    0    0 -0.12047736773E+02 -0.78496325977E+01 -0.10291280165E+02  0.17682622563E+02  0.00000000000E+00 0. -1.
</event>
<event>
 7    1  0.4237994E-013  0.5930195E+02  0.7816164E-02  0.1266605E+00
        -11   -1    0    0    0    0  0.00000000000E+00  0.00000000000E+00  0.45593999997E+02  0.45594000000E+02  0.51100000000E-03 0.  1.
         11   -1    0    0    0    0 -0.00000000000E+00 -0.00000000000E+00 -0.45593999997E+02  0.45594000000E+02  0.51100000000E-03 0. -1.
    9900012    2    1    2    0    0  0.17130488025E+02  0.18027477394E+02  0.19956868886E+02  0.59301950121E+02  0.50000011112E+02 0.  0.
         12    1    1    2    0    0 -0.17130488025E+02 -0.18027477394E+02 -0.19956868886E+02  0.31886049879E+02  0.00000000000E+00 0. -1.
         11    1    3    3    0    0 -0.96975389717E+01 -0.85568531598E+01  0.15028820836E+00  0.12933854217E+02  0.51100000000E-03 0. -1.
        -11    1    3    3    0    0  0.21046211738E+02  0.13428994885E+02  0.20012817661E+02  0.31996778011E+02  0.51100000000E-03 0.  1.
         12    1    3    3    0    0  0.57818152591E+01  0.13155335669E+02 -0.20623698298E+00  0.14371317892E+02  0.00000000000E+00 0. -1.
</event>
<event>
 7    1  0.4237994E-013  0.5930194E+02  0.7816164E-02  0.1266605E+00
        -11   -1    0    0    0    0  0.00000000000E+00  0.00000000000E+00  0.45593999997E+02  0.45594000000E+02  0.51100000000E-03 0.  1.
         11   -1    0    0    0    0 -0.00000000000E+00 -0.00000000000E+00 -0.45593999997E+02  0.45594000000E+02  0.51100000000E-03 0. -1.
    9900012    2    1    2    0    0  0.29555647631E+02 -0.16202520561E+01  0.11855778115E+02  0.59301937240E+02  0.49999987621E+02 0.  0.
         12    1    1    2    0    0 -0.29555647631E+02  0.16202520561E+01 -0.11855778115E+02  0.31886062760E+02  0.00000000000E+00 0. -1.
         11    1    3    3    0    0  0.14396734407E+02 -0.14184489101E+02 -0.87067627963E+01  0.22006213016E+02  0.51100000000E-03 0. -1.
        -11    1    3    3    0    0 -0.10715629880E+01  0.14251064398E+02  0.12964642441E+02  0.19295674065E+02  0.51100000000E-03 0.  1.
         12    1    3    3    0    0  0.16230476212E+02 -0.16868273529E+01  0.75978984701E+01  0.18000050160E+02  0.00000000000E+00 0. -1.
</event>
<event>
 7    1  0.4237994E-013  0.5930194E+02  0.7816164E-02  0.1266605E+00
        -11   -1    0    0    0    0  0.00000000000E+00  0.00000000000E+00  0.45593999997E+02  0.45594000000E+02  0.51100000000E-03 0.  1.
         11   -1    0    0    0    0 -0.00000000000E+00 -0.00000000000E+00 -0.45593999997E+02  0.45594000000E+02  0.51100000000E-03 0. -1.
    9900012    2    1    2    0    0  0.27856326255E+02  0.81612953266E+01  0.13196187629E+02  0.59301936873E+02  0.49999986951E+02 0.  0.
         12    1    1    2    0    0 -0.27856326255E+02 -0.81612953266E+01 -0.13196187629E+02  0.31886063127E+02  0.00000000000E+00 0. -1.
         11    1    3    3    0    0 -0.63544287448E+01 -0.10073344737E+02  0.94105379075E+01  0.15179237887E+02  0.51100000000E-03 0. -1.
        -11    1    3    3    0    0  0.19776775184E+02  0.21250958969E+02  0.59567771502E+00  0.29035821428E+02  0.51100000000E-03 0.  1.
        -12    1    3    3    0    0  0.14433979815E+02 -0.30163189059E+01  0.31899720068E+01  0.15086877558E+02  0.00000000000E+00 0.  1.
</event>
<event>
 7    1  0.4237994E-013  0.5930195E+02  0.7816164E-02  0.1266605E+00
        -11   -1    0    0    0    0  0.00000000000E+00  0.00000000000E+00  0.45593999997E+02  0.45594000000E+02  0.51100000000E-03 0.  1.
         11   -1    0    0    0    0 -0.00000000000E+00 -0.00000000000E+00 -0.45593999997E+02  0.45594000000E+02  0.51100000000E-03 0. -1.
    9900012    2    1    2    0    0  0.16107374250E+02  0.19505305560E+02  0.19411737414E+02  0.59301952901E+02  0.50000016183E+02 0.  0.
         12    1    1    2    0    0 -0.16107374250E+02 -0.19505305560E+02 -0.19411737414E+02  0.31886047099E+02  0.00000000000E+00 0. -1.
         11    1    3    3    0    0 -0.88185499212E+01  0.10598223912E+02  0.27904955314E+01  0.14066841805E+02  0.51100000000E-03 0. -1.
        -11    1    3    3    0    0  0.13632523185E+02 -0.10432903822E+02 -0.29400751291E+00  0.17169088829E+02  0.51100000000E-03 0.  1.
        -12    1    3    3    0    0  0.11293400985E+02  0.19339985469E+02  0.16915249395E+02  0.28066022267E+02  0.00000000000E+00 0.  1.
</event>
<event>
 7    1  0.4237994E-013  0.5930191E+02  0.7816164E-02  0.1266605E+00
        -11   -1    0    0    0    0  0.00000000000E+00  0.00000000000E+00  0.45593999997E+02  0.45594000000E+02  0.51100000000E-03 0.  1.
         11   -1    0    0    0    0 -0.00000000000E+00 -0.00000000000E+00 -0.45593999997E+02  0.45594000000E+02  0.51100000000E-03 0. -1.
    9900012    2    1    2    0    0 -0.26010495626E+02 -0.13041175584E+02  0.13042421747E+02  0.59301907289E+02  0.49999932998E+02 0.  0.
         12    1    1    2    0    0  0.26010495626E+02  0.13041175584E+02 -0.13042421747E+02  0.31886092711E+02  0.00000000000E+00 0. -1.
         11    1    3    3    0    0 -0.56076766797E+01  0.15096152434E+02  0.85932858303E+01  0.18253339905E+02  0.51100000000E-03 0. -1.
        -11    1    3    3    0    0 -0.17668626461E+02 -0.16605211945E+02  0.11940595733E+02  0.27027601660E+02  0.51100000000E-03 0.  1.
         12    1    3    3    0    0 -0.27341924852E+01 -0.11532116073E+02 -0.74914598160E+01  0.14020965724E+02  0.00000000000E+00 0. -1.
</event>
<event>
 7    1  0.4237994E-013  0.5930197E+02  0.7816164E-02  0.1266605E+00
        -11   -1    0    0    0    0  0.00000000000E+00  0.00000000000E+00  0.45593999997E+02  0.45594000000E+02  0.51100000000E-03 0.  1.
         11   -1    0    0    0    0 -0.00000000000E+00 -0.00000000000E+00 -0.45593999997E+02  0.45594000000E+02  0.51100000000E-03 0. -1.
    9900012    2    1    2    0    0  0.12915942271E+02 -0.27104204929E+01  0.29026730306E+02  0.59301968321E+02  0.50000044304E+02 0.  0.
         12    1    1    2    0    0 -0.12915942271E+02  0.27104204929E+01 -0.29026730306E+02  0.31886031679E+02  0.00000000000E+00 0. -1.
         11    1    3    3    0    0  0.24052793025E+01  0.80183367489E+01 -0.76728185200E+01  0.11355669819E+02  0.51100000000E-03 0. -1.
        -11    1    3    3    0    0  0.21886778350E+01  0.13031200867E+01  0.32673918272E+02  0.32773058571E+02  0.51100000000E-03 0.  1.
        -12    1    3    3    0    0  0.83219851336E+01 -0.12031877329E+02  0.40256305542E+01  0.15173239930E+02  0.00000000000E+00 0.  1.
</event>
<event>
 7    1  0.4237994E-013  0.5930172E+02  0.7816164E-02  0.1266606E+00
        -11   -1    0    0    0    0  0.00000000000E+00  0.00000000000E+00  0.45593999997E+02  0.45594000000E+02  0.51100000000E-03 0.  1.
         11   -1    0    0    0    0 -0.00000000000E+00 -0.00000000000E+00 -0.45593999997E+02  0.45594000000E+02  0.51100000000E-03 0. -1.
    9900012    2    1    2    0    0  0.16259358710E+02 -0.19089147502E+02  0.19697025340E+02  0.59301716032E+02  0.49999584190E+02 0.  0.
         12    1    1    2    0    0 -0.16259358710E+02  0.19089147502E+02 -0.19697025340E+02  0.31886283968E+02  0.00000000000E+00 0. -1.
         11    1    3    3    0    0  0.12005398226E+02  0.52267416384E+00 -0.13208225982E+02  0.17856651665E+02  0.51100000000E-03 0. -1.
        -11    1    3    3    0    0  0.88014419547E+01 -0.16502640908E+02  0.29621204393E+02  0.35031675486E+02  0.51100000000E-03 0.  1.
         12    1    3    3    0    0 -0.45474814706E+01 -0.31091807573E+01  0.32840469290E+01  0.64133888810E+01  0.00000000000E+00 0. -1.
</event>
<event>
 7    1  0.4237994E-013  0.5930184E+02  0.7816164E-02  0.1266605E+00
        -11   -1    0    0    0    0  0.00000000000E+00  0.00000000000E+00  0.45593999997E+02  0.45594000000E+02  0.51100000000E-03 0.  1.
         11   -1    0    0    0    0 -0.00000000000E+00 -0.00000000000E+00 -0.45593999997E+02  0.45594000000E+02  0.51100000000E-03 0. -1.
    9900012    2    1    2    0    0 -0.29515491255E+02 -0.10341142834E+02 -0.62147904813E+01  0.59301841876E+02  0.49999813700E+02 0.  0.
         12    1    1    2    0    0  0.29515491255E+02  0.10341142834E+02  0.62147904813E+01  0.31886158124E+02  0.00000000000E+00 0. -1.
         11    1    3    3    0    0 -0.12229437268E+02  0.12527412189E+02 -0.73477050761E+01  0.18986415201E+02  0.51100000000E-03 0. -1.
        -11    1    3    3    0    0 -0.19801543901E+02 -0.21807745434E+02 -0.82121940279E+01  0.30579716035E+02  0.51100000000E-03 0.  1.
         12    1    3    3    0    0  0.25154899136E+01 -0.10608095891E+01  0.93451086227E+01  0.97357106397E+01  0.00000000000E+00 0. -1.
</event>
<event>
 7    1  0.4237994E-013  0.5930195E+02  0.7816164E-02  0.1266605E+00
        -11   -1    0    0    0    0  0.00000000000E+00  0.00000000000E+00  0.45593999997E+02  0.45594000000E+02  0.51100000000E-03 0.  1.
         11   -1    0    0    0    0 -0.00000000000E+00 -0.00000000000E+00 -0.45593999997E+02  0.45594000000E+02  0.51100000000E-03 0. -1.
    9900012    2    1    2    0    0 -0.16316439640E+01 -0.31770923779E+02  0.21602120016E+01  0.59301947004E+02  0.50000005428E+02 0.  0.
         12    1    1    2    0    0  0.16316439640E+01  0.31770923779E+02 -0.21602120016E+01  0.31886052996E+02  0.00000000000E+00 0. -1.
         11    1    3    3    0    0 -0.13119702380E+01 -0.31164696963E+02 -0.16302116053E+02  0.35195434232E+02  0.51100000000E-03 0. -1.
        -11    1    3    3    0    0  0.56877761583E+00  0.71340754195E+01  0.56795612852E+01  0.91365177568E+01  0.51100000000E-03 0.  1.
        -12    1    3    3    0    0 -0.88845134188E+00 -0.77403022354E+01  0.12782766769E+02  0.14969995015E+02  0.00000000000E+00 0.  1.
</event>
<event>
 7    1  0.4237994E-013  0.5930193E+02  0.7816164E-02  0.1266605E+00
        -11   -1    0    0    0    0  0.00000000000E+00  0.00000000000E+00  0.45593999997E+02  0.45594000000E+02  0.51100000000E-03 0.  1.
         11   -1    0    0    0    0 -0.00000000000E+00 -0.00000000000E+00 -0.45593999997E+02  0.45594000000E+02  0.51100000000E-03 0. -1.
    9900012    2    1    2    0    0  0.28484735024E+02 -0.80337924293E+01  0.11865888024E+02  0.59301933312E+02  0.49999980458E+02 0.  0.
         12    1    1    2    0    0 -0.28484735024E+02  0.80337924293E+01 -0.11865888024E+02  0.31886066688E+02  0.00000000000E+00 0. -1.
         11    1    3    3    0    0 -0.10691193276E+02 -0.71964820619E+01  0.96132807152E+01  0.16078125951E+02  0.51100000000E-03 0. -1.
        -11    1    3    3    0    0  0.34809820519E+02 -0.36175930965E+01  0.75661380172E+01  0.35805823956E+02  0.51100000000E-03 0.  1.
         12    1    3    3    0    0  0.43661077811E+01  0.27802827292E+01 -0.53135307082E+01  0.74179834050E+01  0.00000000000E+00 0. -1.
</event>
<event>
 7    1  0.4237994E-013  0.5930195E+02  0.7816164E-02  0.1266605E+00
        -11   -1    0    0    0    0  0.00000000000E+00  0.00000000000E+00  0.45593999997E+02  0.45594000000E+02  0.51100000000E-03 0.  1.
         11   -1    0    0    0    0 -0.00000000000E+00 -0.00000000000E+00 -0.45593999997E+02  0.45594000000E+02  0.51100000000E-03 0. -1.
    9900012    2    1    2    0    0 -0.92375965875E+01 -0.29529840321E+02 -0.77055717488E+01  0.59301945116E+02  0.50000001985E+02 0.  0.
         12    1    1    2    0    0  0.92375965875E+01  0.29529840321E+02  0.77055717488E+01  0.31886054884E+02  0.00000000000E+00 0. -1.
         11    1    3    3    0    0  0.28705314569E+01 -0.22385092215E+02 -0.21624231066E+02  0.31256034198E+02  0.51100000000E-03 0. -1.
        -11    1    3    3    0    0 -0.54756948861E+01  0.61196839466E+01  0.95301278715E+01  0.12580027965E+02  0.51100000000E-03 0.  1.
        -12    1    3    3    0    0 -0.66324331584E+01 -0.13264432053E+02  0.43885314459E+01  0.15465882954E+02  0.00000000000E+00 0.  1.
</event>
<event>
 7    1  0.4237994E-013  0.5930192E+02  0.7816164E-02  0.1266605E+00
        -11   -1    0    0    0    0  0.00000000000E+00  0.00000000000E+00  0.45593999997E+02  0.45594000000E+02  0.51100000000E-03 0.  1.
         11   -1    0    0    0    0 -0.00000000000E+00 -0.00000000000E+00 -0.45593999997E+02  0.45594000000E+02  0.51100000000E-03 0. -1.
    9900012    2    1    2    0    0 -0.10339277392E+02 -0.44952687786E+01  0.29826394079E+02  0.59301923382E+02  0.49999962347E+02 0.  0.
         12    1    1    2    0    0  0.10339277392E+02  0.44952687786E+01 -0.29826394079E+02  0.31886076618E+02  0.00000000000E+00 0. -1.
         11    1    3    3    0    0  0.57720472872E+01 -0.21555284012E+02  0.14797360949E+01  0.22363729963E+02  0.51100000000E-03 0. -1.
        -11    1    3    3    0    0 -0.10164548801E+02  0.88786036427E+01  0.17622497288E+02  0.22196848108E+02  0.51100000000E-03 0.  1.
         12    1    3    3    0    0 -0.59467758777E+01  0.81814115902E+01  0.10724160696E+02  0.14741345311E+02  0.00000000000E+00 0. -1.
</event>
<event>
 7    1  0.4237994E-013  0.5930194E+02  0.7816164E-02  0.1266605E+00
        -11   -1    0    0    0    0  0.00000000000E+00  0.00000000000E+00  0.45593999997E+02  0.45594000000E+02  0.51100000000E-03 0. -1.
         11   -1    0    0    0    0 -0.00000000000E+00 -0.00000000000E+00 -0.45593999997E+02  0.45594000000E+02  0.51100000000E-03 0.  1.
    9900012    2    1    2    0    0 -0.75504489415E+01 -0.76009736367E+01 -0.30032262671E+02  0.59301939087E+02  0.49999990989E+02 0.  0.
         12    1    1    2    0    0  0.75504489415E+01  0.76009736367E+01  0.30032262671E+02  0.31886060913E+02  0.00000000000E+00 0. -1.
         11    1    3    3    0    0 -0.21148964953E+02  0.54938286103E+01 -0.26657221350E+02  0.34468366972E+02  0.51100000000E-03 0. -1.
        -11    1    3    3    0    0  0.98600972843E+01 -0.16663740288E+02 -0.18812180889E+01  0.19453553418E+02  0.51100000000E-03 0.  1.
         12    1    3    3    0    0  0.37384187274E+01  0.35689380410E+01 -0.14938232319E+01  0.53800186961E+01  0.00000000000E+00 0. -1.
</event>
<event>
 7    1  0.4237994E-013  0.5930189E+02  0.7816164E-02  0.1266605E+00
        -11   -1    0    0    0    0  0.00000000000E+00  0.00000000000E+00  0.45593999997E+02  0.45594000000E+02  0.51100000000E-03 0.  1.
         11   -1    0    0    0    0 -0.00000000000E+00 -0.00000000000E+00 -0.45593999997E+02  0.45594000000E+02  0.51100000000E-03 0. -1.
    9900012    2    1    2    0    0 -0.31707804174E+02 -0.29495202711E+01 -0.16246781813E+01  0.59301888689E+02  0.49999899075E+02 0.  0.
         12    1    1    2    0    0  0.31707804174E+02  0.29495202711E+01  0.16246781813E+01  0.31886111311E+02  0.00000000000E+00 0. -1.
         11    1    3    3    0    0  0.64387886618E+01 -0.79691069527E+01 -0.56543985083E+00  0.10260818074E+02  0.51100000000E-03 0. -1.
        -11    1    3    3    0    0 -0.26750194152E+02 -0.10667340131E+02 -0.50683936335E+01  0.29241300364E+02  0.51100000000E-03 0.  1.
         12    1    3    3    0    0 -0.11396398683E+02  0.15686926813E+02  0.40091553031E+01  0.19799770252E+02  0.00000000000E+00 0. -1.
</event>
<event>
 7    1  0.4237994E-013  0.5930207E+02  0.7816164E-02  0.1266604E+00
        -11   -1    0    0    0    0  0.00000000000E+00  0.00000000000E+00  0.45593999997E+02  0.45594000000E+02  0.51100000000E-03 0. -1.
         11   -1    0    0    0    0 -0.00000000000E+00 -0.00000000000E+00 -0.45593999997E+02  0.45594000000E+02  0.51100000000E-03 0.  1.
    9900012    2    1    2    0    0  0.18473206758E+02 -0.11478593883E+02 -0.23317269309E+02  0.59302069976E+02  0.50000229699E+02 0.  0.
         12    1    1    2    0    0 -0.18473206758E+02  0.11478593883E+02  0.23317269309E+02  0.31885930024E+02  0.00000000000E+00 0. -1.
         11    1    3    3    0    0 -0.22694171048E+01  0.99280335337E+01  0.31001800578E+01  0.10645525844E+02  0.51100000000E-03 0. -1.
        -11    1    3    3    0    0  0.11700071671E+02 -0.73254502534E+00 -0.23025366100E+02  0.25837874983E+02  0.51100000000E-03 0.  1.
        -12    1    3    3    0    0  0.90425521917E+01 -0.20674082392E+02 -0.33920832668E+01  0.22818669150E+02  0.00000000000E+00 0.  1.
</event>
<event>
 7    1  0.4237994E-013  0.5930194E+02  0.7816164E-02  0.1266605E+00
        -11   -1    0    0    0    0  0.00000000000E+00  0.00000000000E+00  0.45593999997E+02  0.45594000000E+02  0.51100000000E-03 0.  1.
         11   -1    0    0    0    0 -0.00000000000E+00 -0.00000000000E+00 -0.45593999997E+02  0.45594000000E+02  0.51100000000E-03 0. -1.
    9900012    2    1    2    0    0 -0.88414559251E+01  0.94460369871E+01  0.29143124994E+02  0.59301942042E+02  0.49999996379E+02 0.  0.
         12    1    1    2    0    0  0.88414559251E+01 -0.94460369871E+01 -0.29143124994E+02  0.31886057958E+02  0.00000000000E+00 0. -1.
         11    1    3    3    0    0 -0.85804959616E+01 -0.10392335714E+02  0.17186117219E+02  0.21840059017E+02  0.51100000000E-03 0. -1.
        -11    1    3    3    0    0 -0.96710030223E-01  0.19769655669E+02  0.20753954765E+02  0.28663134455E+02  0.51100000000E-03 0.  1.
         12    1    3    3    0    0 -0.16424993324E+00  0.68717032049E-01 -0.87969469895E+01  0.87987485705E+01  0.00000000000E+00 0. -1.
</event>
<event>
 7    1  0.4237994E-013  0.5930196E+02  0.7816164E-02  0.1266605E+00
        -11   -1    0    0    0    0  0.00000000000E+00  0.00000000000E+00  0.45593999997E+02  0.45594000000E+02  0.51100000000E-03 0.  1.
         11   -1    0    0    0    0 -0.00000000000E+00 -0.00000000000E+00 -0.45593999997E+02  0.45594000000E+02  0.51100000000E-03 0. -1.
    9900012    2    1    2    0    0  0.21536577893E+02  0.77670275787E+01  0.22193884402E+02  0.59301962153E+02  0.50000033056E+02 0.  0.
         12    1    1    2    0    0 -0.21536577893E+02 -0.77670275787E+01 -0.22193884402E+02  0.31886037847E+02  0.00000000000E+00 0. -1.
         11    1    3    3    0    0 -0.15069022796E+02  0.23071727417E+01  0.32108473272E+01  0.15579089668E+02  0.51100000000E-03 0. -1.
        -11    1    3    3    0    0  0.78709108721E+01  0.60610271701E+01  0.14059503892E+01  0.10033144326E+02  0.51100000000E-03 0.  1.
         12    1    3    3    0    0  0.28734689817E+02 -0.60117233318E+00  0.17577086685E+02  0.33689728158E+02  0.00000000000E+00 0. -1.
</event>
<event>
 7    1  0.4237994E-013  0.5930194E+02  0.7816164E-02  0.1266605E+00
        -11   -1    0    0    0    0  0.00000000000E+00  0.00000000000E+00  0.45593999997E+02  0.45594000000E+02  0.51100000000E-03 0.  1.
         11   -1    0    0    0    0 -0.00000000000E+00 -0.00000000000E+00 -0.45593999997E+02  0.45594000000E+02  0.51100000000E-03 0. -1.
    9900012    2    1    2    0    0  0.28287616461E+02 -0.11434401552E+01  0.14670523114E+02  0.59301938016E+02  0.49999989036E+02 0.  0.
         12    1    1    2    0    0 -0.28287616461E+02  0.11434401552E+01 -0.14670523114E+02  0.31886061984E+02  0.00000000000E+00 0. -1.
         11    1    3    3    0    0  0.13154279228E+02 -0.71418179830E+00  0.10447147966E+02  0.16813328598E+02  0.51100000000E-03 0.  1.
        -11    1    3    3    0    0  0.21817657592E+02 -0.53793357252E+01 -0.11092625021E+02  0.25059803785E+02  0.51100000000E-03 0. -1.
        -12    1    3    3    0    0 -0.66843203588E+01  0.49500773683E+01  0.15316000169E+02  0.17428805633E+02  0.00000000000E+00 0.  1.
</event>
<event>
 7    1  0.4237994E-013  0.5930197E+02  0.7816164E-02  0.1266605E+00
        -11   -1    0    0    0    0  0.00000000000E+00  0.00000000000E+00  0.45593999997E+02  0.45594000000E+02  0.51100000000E-03 0.  1.
         11   -1    0    0    0    0 -0.00000000000E+00 -0.00000000000E+00 -0.45593999997E+02  0.45594000000E+02  0.51100000000E-03 0. -1.
    9900012    2    1    2    0    0 -0.46216590469E+01 -0.22860790072E+02 -0.21742671483E+02  0.59301965153E+02  0.50000038527E+02 0.  0.
         12    1    1    2    0    0  0.46216590469E+01  0.22860790072E+02  0.21742671483E+02  0.31886034847E+02  0.00000000000E+00 0. -1.
         11    1    3    3    0    0  0.56549192844E+01 -0.30058089336E+02 -0.14669993040E+02  0.33921608787E+02  0.51100000000E-03 0. -1.
        -11    1    3    3    0    0 -0.15511201311E+02  0.55891912428E+01 -0.65972963093E-01  0.16487594656E+02  0.51100000000E-03 0.  1.
        -12    1    3    3    0    0  0.52346229794E+01  0.16081080208E+01 -0.70067054803E+01  0.88927617100E+01  0.00000000000E+00 0.  1.
</event>
<event>
 7    1  0.4237994E-013  0.5930193E+02  0.7816164E-02  0.1266605E+00
        -11   -1    0    0    0    0  0.00000000000E+00  0.00000000000E+00  0.45593999997E+02  0.45594000000E+02  0.51100000000E-03 0. -1.
         11   -1    0    0    0    0 -0.00000000000E+00 -0.00000000000E+00 -0.45593999997E+02  0.45594000000E+02  0.51100000000E-03 0.  1.
    9900012    2    1    2    0    0 -0.25527101457E+02 -0.18864174143E+02  0.30383377418E+01  0.59301929826E+02  0.49999974099E+02 0.  0.
         12    1    1    2    0    0  0.25527101457E+02  0.18864174143E+02 -0.30383377418E+01  0.31886070174E+02  0.00000000000E+00 0. -1.
         11    1    3    3    0    0  0.12119588893E+02  0.24158687335E+01 -0.95062360486E+00  0.12394536787E+02  0.51100000000E-03 0. -1.
        -11    1    3    3    0    0 -0.34544596977E+02 -0.22489350519E+02  0.76876302522E+01  0.41930892266E+02  0.51100000000E-03 0.  1.
         12    1    3    3    0    0 -0.31020933734E+01  0.12093076418E+01 -0.36986689056E+01  0.49765007730E+01  0.00000000000E+00 0. -1.
</event>
<event>
 7    1  0.4237994E-013  0.5930193E+02  0.7816164E-02  0.1266605E+00
        -11   -1    0    0    0    0  0.00000000000E+00  0.00000000000E+00  0.45593999997E+02  0.45594000000E+02  0.51100000000E-03 0.  1.
         11   -1    0    0    0    0 -0.00000000000E+00 -0.00000000000E+00 -0.45593999997E+02  0.45594000000E+02  0.51100000000E-03 0. -1.
    9900012    2    1    2    0    0  0.12821957942E+02 -0.10625507882E+02  0.27192227097E+02  0.59301933486E+02  0.49999980775E+02 0.  0.
         12    1    1    2    0    0 -0.12821957942E+02  0.10625507882E+02 -0.27192227097E+02  0.31886066514E+02  0.00000000000E+00 0. -1.
         11    1    3    3    0    0 -0.58755090030E+01  0.10094277614E+02 -0.62042103522E+01  0.13225289144E+02  0.51100000000E-03 0. -1.
        -11    1    3    3    0    0  0.20698509150E+02 -0.14770745507E+02  0.25838926405E+02  0.36252631930E+02  0.51100000000E-03 0.  1.
        -12    1    3    3    0    0 -0.20010422046E+01 -0.59490399887E+01  0.75575110440E+01  0.98240124121E+01  0.00000000000E+00 0.  1.
</event>
<event>
 7    1  0.4237994E-013  0.5930195E+02  0.7816164E-02  0.1266605E+00
        -11   -1    0    0    0    0  0.00000000000E+00  0.00000000000E+00  0.45593999997E+02  0.45594000000E+02  0.51100000000E-03 0.  1.
         11   -1    0    0    0    0 -0.00000000000E+00 -0.00000000000E+00 -0.45593999997E+02  0.45594000000E+02  0.51100000000E-03 0. -1.
    9900012    2    1    2    0    0  0.75413099027E+00  0.21530789382E+02  0.23506942987E+02  0.59301953310E+02  0.50000016928E+02 0.  0.
         12    1    1    2    0    0 -0.75413099027E+00 -0.21530789382E+02 -0.23506942987E+02  0.31886046690E+02  0.00000000000E+00 0. -1.
         11    1    3    3    0    0 -0.27972998471E+01  0.30910145064E+02  0.27778028657E+02  0.41651900684E+02  0.51100000000E-03 0. -1.
        -11    1    3    3    0    0  0.54444440730E+01 -0.52228300196E+01  0.37459420370E+01  0.84233014123E+01  0.51100000000E-03 0.  1.
         12    1    3    3    0    0 -0.18930132355E+01 -0.41565256625E+01 -0.80170277068E+01  0.92267512129E+01  0.00000000000E+00 0. -1.
</event>
<event>
 7    1  0.4237994E-013  0.5930194E+02  0.7816164E-02  0.1266605E+00
        -11   -1    0    0    0    0  0.00000000000E+00  0.00000000000E+00  0.45593999997E+02  0.45594000000E+02  0.51100000000E-03 0.  1.
         11   -1    0    0    0    0 -0.00000000000E+00 -0.00000000000E+00 -0.45593999997E+02  0.45594000000E+02  0.51100000000E-03 0. -1.
    9900012    2    1    2    0    0  0.41054416841E+01  0.32215892331E+01  0.31456115995E+02  0.59301944708E+02  0.50000001240E+02 0.  0.
         12    1    1    2    0    0 -0.41054416841E+01 -0.32215892331E+01 -0.31456115995E+02  0.31886055292E+02  0.00000000000E+00 0. -1.
         11    1    3    3    0    0 -0.92659835676E+01 -0.90049863815E+01 -0.51341063612E+01  0.13903498826E+02  0.51100000000E-03 0. -1.
        -11    1    3    3    0    0  0.64493357331E+01  0.67260800712E+01  0.35244035408E+02  0.36455124696E+02  0.51100000000E-03 0.  1.
        -12    1    3    3    0    0  0.69220895186E+01  0.55004955434E+01  0.13461869482E+01  0.89433211854E+01  0.00000000000E+00 0.  1.
</event>
<event>
 7    1  0.4237994E-013  0.5930194E+02  0.7816164E-02  0.1266605E+00
        -11   -1    0    0    0    0  0.00000000000E+00  0.00000000000E+00  0.45593999997E+02  0.45594000000E+02  0.51100000000E-03 0.  1.
         11   -1    0    0    0    0 -0.00000000000E+00 -0.00000000000E+00 -0.45593999997E+02  0.45594000000E+02  0.51100000000E-03 0. -1.
    9900012    2    1    2    0    0  0.15429003719E+02 -0.20178559950E+02  0.19274138432E+02  0.59301939570E+02  0.49999991871E+02 0.  0.
         12    1    1    2    0    0 -0.15429003719E+02  0.20178559950E+02 -0.19274138432E+02  0.31886060430E+02  0.00000000000E+00 0. -1.
         11    1    3    3    0    0  0.23203468879E+02 -0.13059334843E+02  0.88265009167E+01  0.28050923572E+02  0.51100000000E-03 0.  1.
        -11    1    3    3    0    0 -0.57843451361E+01  0.95430552811E+01 -0.57476141267E+00  0.11174028087E+02  0.51100000000E-03 0. -1.
         12    1    3    3    0    0 -0.19901200239E+01 -0.16662280389E+02  0.11022398928E+02  0.20076987911E+02  0.00000000000E+00 0. -1.
</event>
<event>
 7    1  0.4237994E-013  0.5930203E+02  0.7816164E-02  0.1266604E+00
        -11   -1    0    0    0    0  0.00000000000E+00  0.00000000000E+00  0.45593999997E+02  0.45594000000E+02  0.51100000000E-03 0.  1.
         11   -1    0    0    0    0 -0.00000000000E+00 -0.00000000000E+00 -0.45593999997E+02  0.45594000000E+02  0.51100000000E-03 0. -1.
    9900012    2    1    2    0    0 -0.31321208738E+01 -0.21186337819E+02  0.23622953205E+02  0.59302031151E+02  0.50000158891E+02 0.  0.
         12    1    1    2    0    0  0.31321208738E+01  0.21186337819E+02 -0.23622953205E+02  0.31885968849E+02  0.00000000000E+00 0. -1.
         11    1    3    3    0    0 -0.87745437190E+01 -0.17660187633E+02 -0.45950178593E+01  0.20248185946E+02  0.51100000000E-03 0. -1.
        -11    1    3    3    0    0  0.71306002993E+01  0.10242998840E+02  0.17726328434E+02  0.21679188313E+02  0.51100000000E-03 0.  1.
         12    1    3    3    0    0 -0.14881774541E+01 -0.13769149026E+02  0.10491642629E+02  0.17374656892E+02  0.00000000000E+00 0. -1.
</event>
<event>
 7    1  0.4237994E-013  0.5930195E+02  0.7816164E-02  0.1266605E+00
        -11   -1    0    0    0    0  0.00000000000E+00  0.00000000000E+00  0.45593999997E+02  0.45594000000E+02  0.51100000000E-03 0. -1.
         11   -1    0    0    0    0 -0.00000000000E+00 -0.00000000000E+00 -0.45593999997E+02  0.45594000000E+02  0.51100000000E-03 0.  1.
    9900012    2    1    2    0    0  0.26597281844E+02  0.12260292916E+02  0.12609124081E+02  0.59301949853E+02  0.50000010624E+02 0.  0.
         12    1    1    2    0    0 -0.26597281844E+02 -0.12260292916E+02 -0.12609124081E+02  0.31886050147E+02  0.00000000000E+00 0. -1.
         11    1    3    3    0    0  0.80239564579E+01 -0.96547391321E+01  0.22946156613E+02  0.26155763582E+02  0.51100000000E-03 0. -1.
        -11    1    3    3    0    0  0.82458074409E+01  0.18928574709E+02 -0.80139075452E+01  0.22147392517E+02  0.51100000000E-03 0.  1.
         12    1    3    3    0    0  0.10327517946E+02  0.29864573385E+01 -0.23231249877E+01  0.10998793755E+02  0.00000000000E+00 0. -1.
</event>
<event>
 7    1  0.4433226E-013  0.5930195E+02  0.7816164E-02  0.1266605E+00
        -11   -1    0    0    0    0  0.00000000000E+00  0.00000000000E+00  0.45593999997E+02  0.45594000000E+02  0.51100000000E-03 0. -1.
         11   -1    0    0    0    0 -0.00000000000E+00 -0.00000000000E+00 -0.45593999997E+02  0.45594000000E+02  0.51100000000E-03 0.  1.
    9900012    2    1    2    0    0  0.31629067904E+00  0.21863228367E+02 -0.23208173926E+02  0.59301950834E+02  0.50000012413E+02 0.  0.
         12    1    1    2    0    0 -0.31629067904E+00 -0.21863228367E+02  0.23208173926E+02  0.31886049166E+02  0.00000000000E+00 0. -1.
         11    1    3    3    0    0 -0.55555796738E+01 -0.67941241486E+01  0.70955781907E+01  0.11285912395E+02  0.51100000000E-03 0. -1.
        -11    1    3    3    0    0 -0.70812856640E+01  0.10951513432E+02 -0.19760067600E+02  0.23675737051E+02  0.51100000000E-03 0.  1.
         12    1    3    3    0    0  0.12953156017E+02  0.17705839084E+02 -0.10543684517E+02  0.24340301388E+02  0.00000000000E+00 0. -1.
</event>
<event>
 7    1  0.4237994E-013  0.5930195E+02  0.7816164E-02  0.1266605E+00
        -11   -1    0    0    0    0  0.00000000000E+00  0.00000000000E+00  0.45593999997E+02  0.45594000000E+02  0.51100000000E-03 0. -1.
         11   -1    0    0    0    0 -0.00000000000E+00 -0.00000000000E+00 -0.45593999997E+02  0.45594000000E+02  0.51100000000E-03 0.  1.
    9900012    2    1    2    0    0  0.28809713300E+02 -0.82991978655E+01 -0.10855608534E+02  0.59301945018E+02  0.50000001807E+02 0.  0.
         12    1    1    2    0    0 -0.28809713300E+02  0.82991978655E+01  0.10855608534E+02  0.31886054982E+02  0.00000000000E+00 0. -1.
         11    1    3    3    0    0  0.21365743223E+02 -0.16764032998E+02  0.11610392794E+02  0.29535216385E+02  0.51100000000E-03 0. -1.
        -11    1    3    3    0    0 -0.50168025564E+00 -0.77901538000E+00 -0.15889259863E+02  0.15916253557E+02  0.51100000000E-03 0.  1.
         12    1    3    3    0    0  0.79456503332E+01  0.92438505130E+01 -0.65767414653E+01  0.13850475076E+02  0.00000000000E+00 0. -1.
</event>
<event>
 7    1  0.4237994E-013  0.5930196E+02  0.7816164E-02  0.1266605E+00
        -11   -1    0    0    0    0  0.00000000000E+00  0.00000000000E+00  0.45593999997E+02  0.45594000000E+02  0.51100000000E-03 0.  1.
         11   -1    0    0    0    0 -0.00000000000E+00 -0.00000000000E+00 -0.45593999997E+02  0.45594000000E+02  0.51100000000E-03 0. -1.
    9900012    2    1    2    0    0  0.10771592823E+01 -0.85282737013E+01  0.30705502584E+02  0.59301958957E+02  0.50000027228E+02 0.  0.
         12    1    1    2    0    0 -0.10771592823E+01  0.85282737013E+01 -0.30705502584E+02  0.31886041043E+02  0.00000000000E+00 0. -1.
         11    1    3    3    0    0  0.32770176203E+01 -0.88648039658E+01 -0.76546136737E+01  0.12162101159E+02  0.51100000000E-03 0. -1.
        -11    1    3    3    0    0 -0.59522227401E+01 -0.30719582866E+01  0.40917403298E+02  0.41462028124E+02  0.51100000000E-03 0.  1.
         12    1    3    3    0    0  0.37523644021E+01  0.34084885511E+01 -0.25572870400E+01  0.56778296746E+01  0.00000000000E+00 0. -1.
</event>
<event>
 7    1  0.4237994E-013  0.5930195E+02  0.7816164E-02  0.1266605E+00
        -11   -1    0    0    0    0  0.00000000000E+00  0.00000000000E+00  0.45593999997E+02  0.45594000000E+02  0.51100000000E-03 0.  1.
         11   -1    0    0    0    0 -0.00000000000E+00 -0.00000000000E+00 -0.45593999997E+02  0.45594000000E+02  0.51100000000E-03 0. -1.
    9900012    2    1    2    0    0 -0.14049318297E-01 -0.22378478962E+02  0.22713946542E+02  0.59301954690E+02  0.50000019445E+02 0.  0.
         12    1    1    2    0    0  0.14049318297E-01  0.22378478962E+02 -0.22713946542E+02  0.31886045310E+02  0.00000000000E+00 0. -1.
         11    1    3    3    0    0 -0.41593016248E+01  0.14425852921E+00  0.10882530499E+01  0.43017316851E+01  0.51100000000E-03 0. -1.
        -11    1    3    3    0    0  0.14652379056E+02  0.38113565972E+01 -0.51605018552E+01  0.15995294019E+02  0.51100000000E-03 0.  1.
        -12    1    3    3    0    0 -0.10507126749E+02 -0.26334094088E+02  0.26786195347E+02  0.39004928985E+02  0.00000000000E+00 0.  1.
</event>
<event>
 7    1  0.4237994E-013  0.5930200E+02  0.7816164E-02  0.1266605E+00
        -11   -1    0    0    0    0  0.00000000000E+00  0.00000000000E+00  0.45593999997E+02  0.45594000000E+02  0.51100000000E-03 0.  1.
         11   -1    0    0    0    0 -0.00000000000E+00 -0.00000000000E+00 -0.45593999997E+02  0.45594000000E+02  0.51100000000E-03 0. -1.
    9900012    2    1    2    0    0  0.27573562685E+02  0.14915847703E+02 -0.58252064934E+01  0.59302001466E+02  0.50000104754E+02 0.  0.
         12    1    1    2    0    0 -0.27573562685E+02 -0.14915847703E+02  0.58252064934E+01  0.31885998534E+02  0.00000000000E+00 0. -1.
         11    1    3    3    0    0 -0.71796930058E+01 -0.29353259923E+01 -0.10542019863E+02  0.13088098158E+02  0.51100000000E-03 0. -1.
        -11    1    3    3    0    0  0.37646002488E+02  0.13229384971E+02  0.66008713825E+01  0.40445143507E+02  0.51100000000E-03 0.  1.
        -12    1    3    3    0    0 -0.28927467975E+01  0.46217887245E+01 -0.18840580128E+01  0.57687598012E+01  0.00000000000E+00 0.  1.
</event>
<event>
 7    1  0.4237994E-013  0.5930193E+02  0.7816164E-02  0.1266605E+00
        -11   -1    0    0    0    0  0.00000000000E+00  0.00000000000E+00  0.45593999997E+02  0.45594000000E+02  0.51100000000E-03 0.  1.
         11   -1    0    0    0    0 -0.00000000000E+00 -0.00000000000E+00 -0.45593999997E+02  0.45594000000E+02  0.51100000000E-03 0. -1.
    9900012    2    1    2    0    0 -0.14768402631E+02  0.27892755806E+02  0.45398210058E+01  0.59301929099E+02  0.49999972773E+02 0.  0.
         12    1    1    2    0    0  0.14768402631E+02 -0.27892755806E+02 -0.45398210058E+01  0.31886070901E+02  0.00000000000E+00 0. -1.
         11    1    3    3    0    0  0.31322507253E+01  0.89292635123E+01 -0.20597979859E+02  0.22667587344E+02  0.51100000000E-03 0. -1.
        -11    1    3    3    0    0 -0.11403438862E+02  0.10173961074E+02  0.11330722310E+02  0.19024541260E+02  0.51100000000E-03 0.  1.
         12    1    3    3    0    0 -0.64972144939E+01  0.87895312204E+01  0.13807078554E+02  0.17609800495E+02  0.00000000000E+00 0. -1.
</event>
<event>
 7    1  0.4237994E-013  0.5930194E+02  0.7816164E-02  0.1266605E+00
        -11   -1    0    0    0    0  0.00000000000E+00  0.00000000000E+00  0.45593999997E+02  0.45594000000E+02  0.51100000000E-03 0.  1.
         11   -1    0    0    0    0 -0.00000000000E+00 -0.00000000000E+00 -0.45593999997E+02  0.45594000000E+02  0.51100000000E-03 0. -1.
    9900012    2    1    2    0    0  0.11328104649E+02 -0.23369473145E+02  0.18500346634E+02  0.59301936342E+02  0.49999985983E+02 0.  0.
         12    1    1    2    0    0 -0.11328104649E+02  0.23369473145E+02 -0.18500346634E+02  0.31886063658E+02  0.00000000000E+00 0. -1.
         11    1    3    3    0    0 -0.23935128962E+01  0.98831971403E+01  0.19070630423E+02  0.21612390768E+02  0.51100000000E-03 0. -1.
        -11    1    3    3    0    0  0.66815678400E+01 -0.22602281213E+02 -0.51515052932E+01  0.24125597855E+02  0.51100000000E-03 0.  1.
         12    1    3    3    0    0  0.70400497053E+01 -0.10650389073E+02  0.45812215038E+01  0.13563947719E+02  0.00000000000E+00 0. -1.
</event>
<event>
 7    1  0.4237994E-013  0.5930193E+02  0.7816164E-02  0.1266605E+00
        -11   -1    0    0    0    0  0.00000000000E+00  0.00000000000E+00  0.45593999997E+02  0.45594000000E+02  0.51100000000E-03 0. -1.
         11   -1    0    0    0    0 -0.00000000000E+00 -0.00000000000E+00 -0.45593999997E+02  0.45594000000E+02  0.51100000000E-03 0.  1.
    9900012    2    1    2    0    0 -0.28109233376E+02  0.18032994356E+01 -0.14944575263E+02  0.59301933770E+02  0.49999981292E+02 0.  0.
         12    1    1    2    0    0  0.28109233376E+02 -0.18032994356E+01  0.14944575263E+02  0.31886066230E+02  0.00000000000E+00 0. -1.
         11    1    3    3    0    0 -0.12497179117E+02  0.20049200513E+02 -0.11124174360E+02  0.26113161098E+02  0.51100000000E-03 0. -1.
        -11    1    3    3    0    0 -0.52893902573E+01 -0.96606760865E+01 -0.12913977968E+02  0.16972835325E+02  0.51100000000E-03 0.  1.
        -12    1    3    3    0    0 -0.10322664002E+02 -0.85852249907E+01  0.90935770641E+01  0.16215937347E+02  0.00000000000E+00 0.  1.
</event>
<event>
 7    1  0.4237994E-013  0.5930194E+02  0.7816164E-02  0.1266605E+00
        -11   -1    0    0    0    0  0.00000000000E+00  0.00000000000E+00  0.45593999997E+02  0.45594000000E+02  0.51100000000E-03 0.  1.
         11   -1    0    0    0    0 -0.00000000000E+00 -0.00000000000E+00 -0.45593999997E+02  0.45594000000E+02  0.51100000000E-03 0. -1.
    9900012    2    1    2    0    0  0.16713164674E+02 -0.17502604557E+02  0.20761743605E+02  0.59301936630E+02  0.49999986508E+02 0.  0.
         12    1    1    2    0    0 -0.16713164674E+02  0.17502604557E+02 -0.20761743605E+02  0.31886063370E+02  0.00000000000E+00 0. -1.
         11    1    3    3    0    0  0.20113503675E+02 -0.15053262505E+02 -0.32222887794E+01  0.25328578471E+02  0.51100000000E-03 0. -1.
        -11    1    3    3    0    0  0.66444171775E+01  0.36714210222E+01  0.20259569489E+02  0.21635104994E+02  0.51100000000E-03 0.  1.
         12    1    3    3    0    0 -0.10044756178E+02 -0.61207630745E+01  0.37244628951E+01  0.12338253165E+02  0.00000000000E+00 0. -1.
</event>
<event>
 7    1  0.4237994E-013  0.5930194E+02  0.7816164E-02  0.1266605E+00
        -11   -1    0    0    0    0  0.00000000000E+00  0.00000000000E+00  0.45593999997E+02  0.45594000000E+02  0.51100000000E-03 0.  1.
         11   -1    0    0    0    0 -0.00000000000E+00 -0.00000000000E+00 -0.45593999997E+02  0.45594000000E+02  0.51100000000E-03 0. -1.
    9900012    2    1    2    0    0 -0.30015145054E+02 -0.74365837041E+01  0.77787712585E+01  0.59301937338E+02  0.49999987799E+02 0.  0.
         12    1    1    2    0    0  0.30015145054E+02  0.74365837041E+01 -0.77787712585E+01  0.31886062662E+02  0.00000000000E+00 0. -1.
         11    1    3    3    0    0 -0.22713752159E+01 -0.82512231416E+01  0.19634507205E+02  0.21418583104E+02  0.51100000000E-03 0. -1.
        -11    1    3    3    0    0 -0.25782749458E+02  0.26292985384E+01 -0.17749737614E+02  0.31412044920E+02  0.51100000000E-03 0.  1.
        -12    1    3    3    0    0 -0.19610203802E+01 -0.18146591009E+01  0.58940016675E+01  0.64713093143E+01  0.00000000000E+00 0.  1.
</event>
<event>
 7    1  0.4237994E-013  0.5930217E+02  0.7816164E-02  0.1266604E+00
        -11   -1    0    0    0    0  0.00000000000E+00  0.00000000000E+00  0.45593999997E+02  0.45594000000E+02  0.51100000000E-03 0.  1.
         11   -1    0    0    0    0 -0.00000000000E+00 -0.00000000000E+00 -0.45593999997E+02  0.45594000000E+02  0.51100000000E-03 0. -1.
    9900012    2    1    2    0    0  0.93210642556E+01 -0.65492476375E+01  0.29781391796E+02  0.59302169592E+02  0.50000411374E+02 0.  0.
         12    1    1    2    0    0 -0.93210642556E+01  0.65492476375E+01 -0.29781391796E+02  0.31885830408E+02  0.00000000000E+00 0. -1.
         11    1    3    3    0    0 -0.17605236587E+02 -0.55877410677E+01  0.86465509590E+01  0.20394363174E+02  0.51100000000E-03 0. -1.
        -11    1    3    3    0    0  0.14124195693E+02 -0.64303690693E+01  0.26129973642E+01  0.15737544467E+02  0.51100000000E-03 0.  1.
         12    1    3    3    0    0  0.12802105149E+02  0.54688624994E+01  0.18521843473E+02  0.23170261952E+02  0.00000000000E+00 0. -1.
</event>
<event>
 7    1  0.4237994E-013  0.5930196E+02  0.7816164E-02  0.1266605E+00
        -11   -1    0    0    0    0  0.00000000000E+00  0.00000000000E+00  0.45593999997E+02  0.45594000000E+02  0.51100000000E-03 0. -1.
         11   -1    0    0    0    0 -0.00000000000E+00 -0.00000000000E+00 -0.45593999997E+02  0.45594000000E+02  0.51100000000E-03 0.  1.
    9900012    2    1    2    0    0  0.18337371716E+02 -0.23216890806E+02 -0.11892712351E+02  0.59301955605E+02  0.50000021113E+02 0.  0.
         12    1    1    2    0    0 -0.18337371716E+02  0.23216890806E+02  0.11892712351E+02  0.31886044395E+02  0.00000000000E+00 0. -1.
         11    1    3    3    0    0  0.14055187560E+02  0.21457584581E+01  0.70599464005E+01  0.15874363614E+02  0.51100000000E-03 0. -1.
        -11    1    3    3    0    0 -0.80831423463E+01 -0.25214498191E+02 -0.15067888314E+02  0.30465543943E+02  0.51100000000E-03 0.  1.
        -12    1    3    3    0    0  0.12365326502E+02 -0.14815107238E+00 -0.38847704377E+01  0.12962048048E+02  0.00000000000E+00 0.  1.
</event>
<event>
 7    1  0.4237994E-013  0.5930195E+02  0.7816164E-02  0.1266605E+00
        -11   -1    0    0    0    0  0.00000000000E+00  0.00000000000E+00  0.45593999997E+02  0.45594000000E+02  0.51100000000E-03 0. -1.
         11   -1    0    0    0    0 -0.00000000000E+00 -0.00000000000E+00 -0.45593999997E+02  0.45594000000E+02  0.51100000000E-03 0.  1.
    9900012    2    1    2    0    0  0.29840404333E+02 -0.65246925959E+01  0.91487169185E+01  0.59301947163E+02  0.50000005718E+02 0.  0.
         12    1    1    2    0    0 -0.29840404333E+02  0.65246925959E+01 -0.91487169185E+01  0.31886052837E+02  0.00000000000E+00 0. -1.
         11    1    3    3    0    0  0.19471885680E+02  0.85926426222E+01  0.17938163819E+02  0.27834610840E+02  0.51100000000E-03 0. -1.
        -11    1    3    3    0    0  0.13927608233E+02 -0.19580537731E+02 -0.48012044043E+01  0.24503617956E+02  0.51100000000E-03 0.  1.
         12    1    3    3    0    0 -0.35590895793E+01  0.44632025127E+01 -0.39882424957E+01  0.69637183679E+01  0.00000000000E+00 0. -1.
</event>
<event>
 7    1  0.4237994E-013  0.5930193E+02  0.7816164E-02  0.1266605E+00
        -11   -1    0    0    0    0  0.00000000000E+00  0.00000000000E+00  0.45593999997E+02  0.45594000000E+02  0.51100000000E-03 0.  1.
         11   -1    0    0    0    0 -0.00000000000E+00 -0.00000000000E+00 -0.45593999997E+02  0.45594000000E+02  0.51100000000E-03 0. -1.
    9900012    2    1    2    0    0  0.24330740096E+02  0.10448343745E+02  0.17764248663E+02  0.59301932020E+02  0.49999978101E+02 0.  0.
         12    1    1    2    0    0 -0.24330740096E+02 -0.10448343745E+02 -0.17764248663E+02  0.31886067980E+02  0.00000000000E+00 0. -1.
         11    1    3    3    0    0  0.30691815983E+02 -0.46124690578E+01  0.16601333797E-01  0.31036473947E+02  0.51100000000E-03 0. -1.
        -11    1    3    3    0    0 -0.60828103386E+01  0.11266122730E+02  0.20071260634E+02  0.23807175529E+02  0.51100000000E-03 0.  1.
        -12    1    3    3    0    0 -0.27826554858E+00  0.37946900719E+01 -0.23236133045E+01  0.44582825444E+01  0.00000000000E+00 0.  1.
</event>
<event>
 7    1  0.4237994E-013  0.5930191E+02  0.7816164E-02  0.1266605E+00
        -11   -1    0    0    0    0  0.00000000000E+00  0.00000000000E+00  0.45593999997E+02  0.45594000000E+02  0.51100000000E-03 0. -1.
         11   -1    0    0    0    0 -0.00000000000E+00 -0.00000000000E+00 -0.45593999997E+02  0.45594000000E+02  0.51100000000E-03 0.  1.
    9900012    2    1    2    0    0 -0.11866179287E+02 -0.20687865066E+02 -0.21164334248E+02  0.59301905601E+02  0.49999929919E+02 0.  0.
         12    1    1    2    0    0  0.11866179287E+02  0.20687865066E+02  0.21164334248E+02  0.31886094399E+02  0.00000000000E+00 0. -1.
         11    1    3    3    0    0 -0.14297249678E+02 -0.86313120045E+01  0.68601521951E+01  0.18054710844E+02  0.51100000000E-03 0.  1.
        -11    1    3    3    0    0  0.71021813712E+01 -0.18338091979E+02 -0.11056130004E+02  0.22560243983E+02  0.51100000000E-03 0. -1.
        -12    1    3    3    0    0 -0.46711109802E+01  0.62815389173E+01 -0.16968356439E+02  0.18686950774E+02  0.00000000000E+00 0.  1.
</event>
<event>
 7    1  0.4237994E-013  0.5930197E+02  0.7816164E-02  0.1266605E+00
        -11   -1    0    0    0    0  0.00000000000E+00  0.00000000000E+00  0.45593999997E+02  0.45594000000E+02  0.51100000000E-03 0.  1.
         11   -1    0    0    0    0 -0.00000000000E+00 -0.00000000000E+00 -0.45593999997E+02  0.45594000000E+02  0.51100000000E-03 0. -1.
    9900012    2    1    2    0    0 -0.28062282259E+02 -0.14844782502E+02  0.29765330693E+01  0.59301968541E+02  0.50000044706E+02 0.  0.
         12    1    1    2    0    0  0.28062282259E+02  0.14844782502E+02 -0.29765330693E+01  0.31886031459E+02  0.00000000000E+00 0. -1.
         11    1    3    3    0    0  0.24402473670E+01  0.29859423139E+01  0.26801216775E+01  0.46961379007E+01  0.51100000000E-03 0. -1.
        -11    1    3    3    0    0 -0.32161621198E+02 -0.28687791463E+02  0.32887647030E+01  0.43222392699E+02  0.51100000000E-03 0.  1.
        -12    1    3    3    0    0  0.16590915726E+01  0.10857066646E+02 -0.29923533113E+01  0.11383437941E+02  0.00000000000E+00 0.  1.
</event>
<event>
 7    1  0.4237994E-013  0.5930195E+02  0.7816164E-02  0.1266605E+00
        -11   -1    0    0    0    0  0.00000000000E+00  0.00000000000E+00  0.45593999997E+02  0.45594000000E+02  0.51100000000E-03 0. -1.
         11   -1    0    0    0    0 -0.00000000000E+00 -0.00000000000E+00 -0.45593999997E+02  0.45594000000E+02  0.51100000000E-03 0.  1.
    9900012    2    1    2    0    0 -0.91734652690E+01  0.29573095221E+02 -0.76157519440E+01  0.59301951269E+02  0.50000013207E+02 0.  0.
         12    1    1    2    0    0  0.91734652690E+01 -0.29573095221E+02  0.76157519440E+01  0.31886048731E+02  0.00000000000E+00 0. -1.
         11    1    3    3    0    0 -0.10272500694E+02 -0.94391210695E+01 -0.83986529693E+01  0.16283692733E+02  0.51100000000E-03 0. -1.
        -11    1    3    3    0    0 -0.72091169254E+01  0.82518101817E+01 -0.15681131666E+01  0.11068998025E+02  0.51100000000E-03 0.  1.
         12    1    3    3    0    0  0.83081523503E+01  0.30760406109E+02  0.23510141919E+01  0.31949260511E+02  0.00000000000E+00 0. -1.
</event>
<event>
 7    1  0.4237994E-013  0.5930195E+02  0.7816164E-02  0.1266605E+00
        -11   -1    0    0    0    0  0.00000000000E+00  0.00000000000E+00  0.45593999997E+02  0.45594000000E+02  0.51100000000E-03 0.  1.
         11   -1    0    0    0    0 -0.00000000000E+00 -0.00000000000E+00 -0.45593999997E+02  0.45594000000E+02  0.51100000000E-03 0. -1.
    9900012    2    1    2    0    0  0.15890810928E+02 -0.12101349139E+02  0.24854775332E+02  0.59301946940E+02  0.50000005312E+02 0.  0.
         12    1    1    2    0    0 -0.15890810928E+02  0.12101349139E+02 -0.24854775332E+02  0.31886053060E+02  0.00000000000E+00 0. -1.
         11    1    3    3    0    0 -0.50160353973E+01  0.17165728401E+01 -0.15684170292E+01  0.55287580577E+01  0.51100000000E-03 0. -1.
        -11    1    3    3    0    0  0.26569173703E+02 -0.14642728811E+02  0.39619799627E+01  0.30594571149E+02  0.51100000000E-03 0.  1.
        -12    1    3    3    0    0 -0.56623273776E+01  0.82480683247E+00  0.22461212398E+02  0.23178617734E+02  0.00000000000E+00 0.  1.
</event>
<event>
 7    1  0.4237994E-013  0.5930194E+02  0.7816164E-02  0.1266605E+00
        -11   -1    0    0    0    0  0.00000000000E+00  0.00000000000E+00  0.45593999997E+02  0.45594000000E+02  0.51100000000E-03 0. -1.
         11   -1    0    0    0    0 -0.00000000000E+00 -0.00000000000E+00 -0.45593999997E+02  0.45594000000E+02  0.51100000000E-03 0.  1.
    9900012    2    1    2    0    0  0.26266334949E+02  0.54114903226E+01 -0.17248666711E+02  0.59301935921E+02  0.49999985215E+02 0.  0.
         12    1    1    2    0    0 -0.26266334949E+02 -0.54114903226E+01  0.17248666711E+02  0.31886064079E+02  0.00000000000E+00 0. -1.
         11    1    3    3    0    0  0.63570637820E+01 -0.13547437902E+02  0.28731716606E+01  0.15238124861E+02  0.51100000000E-03 0. -1.
        -11    1    3    3    0    0  0.16639589408E+02  0.19385492634E+02 -0.26546256507E+02  0.36842597562E+02  0.51100000000E-03 0.  1.
        -12    1    3    3    0    0  0.32696817588E+01 -0.42656440967E+00  0.64244181354E+01  0.72212134976E+01  0.00000000000E+00 0.  1.
</event>
<event>
 7    1  0.4237994E-013  0.5930193E+02  0.7816164E-02  0.1266605E+00
        -11   -1    0    0    0    0  0.00000000000E+00  0.00000000000E+00  0.45593999997E+02  0.45594000000E+02  0.51100000000E-03 0.  1.
         11   -1    0    0    0    0 -0.00000000000E+00 -0.00000000000E+00 -0.45593999997E+02  0.45594000000E+02  0.51100000000E-03 0. -1.
    9900012    2    1    2    0    0  0.25015619394E+02 -0.96225083286E+01  0.17272740713E+02  0.59301930128E+02  0.49999974649E+02 0.  0.
         12    1    1    2    0    0 -0.25015619394E+02  0.96225083286E+01 -0.17272740713E+02  0.31886069872E+02  0.00000000000E+00 0. -1.
         11    1    3    3    0    0 -0.29312998451E+01 -0.55041186923E+00 -0.27423934236E+01  0.40516902595E+01  0.51100000000E-03 0. -1.
        -11    1    3    3    0    0  0.20770738915E+02  0.14078362435E+02  0.22368367770E+01  0.25191810633E+02  0.51100000000E-03 0.  1.
        -12    1    3    3    0    0  0.71761803236E+01 -0.23150458895E+02  0.17778297360E+02  0.30058429235E+02  0.00000000000E+00 0.  1.
</event>
<event>
 7    1  0.4237994E-013  0.5930194E+02  0.7816164E-02  0.1266605E+00
        -11   -1    0    0    0    0  0.00000000000E+00  0.00000000000E+00  0.45593999997E+02  0.45594000000E+02  0.51100000000E-03 0.  1.
         11   -1    0    0    0    0 -0.00000000000E+00 -0.00000000000E+00 -0.45593999997E+02  0.45594000000E+02  0.51100000000E-03 0. -1.
    9900012    2    1    2    0    0  0.33018772932E+01 -0.22271177724E+01  0.31636350304E+02  0.59301935523E+02  0.49999984490E+02 0.  0.
         12    1    1    2    0    0 -0.33018772932E+01  0.22271177724E+01 -0.31636350304E+02  0.31886064477E+02  0.00000000000E+00 0. -1.
         11    1    3    3    0    0  0.53355971482E+01  0.13034215381E+02  0.19810229421E+02  0.24306471515E+02  0.51100000000E-03 0. -1.
        -11    1    3    3    0    0  0.97139991851E+01 -0.15066128763E+02  0.14368765968E+02  0.22974147465E+02  0.51100000000E-03 0.  1.
        -12    1    3    3    0    0 -0.11747719040E+02 -0.19520439093E+00 -0.25426450847E+01  0.12021316543E+02  0.00000000000E+00 0.  1.
</event>
<event>
 7    1  0.4237994E-013  0.5930196E+02  0.7816164E-02  0.1266605E+00
        -11   -1    0    0    0    0  0.00000000000E+00  0.00000000000E+00  0.45593999997E+02  0.45594000000E+02  0.51100000000E-03 0. -1.
         11   -1    0    0    0    0 -0.00000000000E+00 -0.00000000000E+00 -0.45593999997E+02  0.45594000000E+02  0.51100000000E-03 0.  1.
    9900012    2    1    2    0    0 -0.16313429894E+02  0.39920591427E+01 -0.27104523587E+02  0.59301957129E+02  0.50000023893E+02 0.  0.
         12    1    1    2    0    0  0.16313429894E+02 -0.39920591427E+01  0.27104523587E+02  0.31886042871E+02  0.00000000000E+00 0. -1.
         11    1    3    3    0    0  0.98639412619E+01 -0.54989007940E+01 -0.12341629019E+02  0.16728749333E+02  0.51100000000E-03 0. -1.
        -11    1    3    3    0    0 -0.24539788823E+02 -0.50572684041E+01 -0.11526456202E+02  0.27579637272E+02  0.51100000000E-03 0.  1.
         12    1    3    3    0    0 -0.16375823323E+01  0.14548228341E+02 -0.32364383660E+01  0.14993570524E+02  0.00000000000E+00 0. -1.
</event>
<event>
 7    1  0.4237994E-013  0.5930188E+02  0.7816164E-02  0.1266605E+00
        -11   -1    0    0    0    0  0.00000000000E+00  0.00000000000E+00  0.45593999997E+02  0.45594000000E+02  0.51100000000E-03 0. -1.
         11   -1    0    0    0    0 -0.00000000000E+00 -0.00000000000E+00 -0.45593999997E+02  0.45594000000E+02  0.51100000000E-03 0.  1.
    9900012    2    1    2    0    0 -0.31387931855E+02 -0.55672571505E+01 -0.72669729689E+00  0.59301879080E+02  0.49999881552E+02 0.  0.
         12    1    1    2    0    0  0.31387931855E+02  0.55672571505E+01  0.72669729689E+00  0.31886120920E+02  0.00000000000E+00 0. -1.
         11    1    3    3    0    0 -0.12465974201E+02 -0.15687174047E+02  0.11888071857E+02  0.23298373229E+02  0.51100000000E-03 0. -1.
        -11    1    3    3    0    0 -0.44420593796E+01 -0.11144385321E+01 -0.16623849814E+02  0.17243150746E+02  0.51100000000E-03 0.  1.
         12    1    3    3    0    0 -0.14479898275E+02  0.11234355429E+02  0.40090806600E+01  0.18760355105E+02  0.00000000000E+00 0. -1.
</event>
<event>
 7    1  0.4237994E-013  0.5930194E+02  0.7816164E-02  0.1266605E+00
        -11   -1    0    0    0    0  0.00000000000E+00  0.00000000000E+00  0.45593999997E+02  0.45594000000E+02  0.51100000000E-03 0.  1.
         11   -1    0    0    0    0 -0.00000000000E+00 -0.00000000000E+00 -0.45593999997E+02  0.45594000000E+02  0.51100000000E-03 0. -1.
    9900012    2    1    2    0    0  0.29173000450E+02 -0.20855086679E+01 -0.12700687334E+02  0.59301940971E+02  0.49999994425E+02 0.  0.
         12    1    1    2    0    0 -0.29173000450E+02  0.20855086679E+01  0.12700687334E+02  0.31886059029E+02  0.00000000000E+00 0. -1.
         11    1    3    3    0    0  0.10468427836E+02  0.83000657264E+01 -0.21174812948E+02  0.25037008129E+02  0.51100000000E-03 0. -1.
        -11    1    3    3    0    0  0.18510809456E+01 -0.15029317944E+02  0.77394685496E+00  0.15162647939E+02  0.51100000000E-03 0.  1.
         12    1    3    3    0    0  0.16853491668E+02  0.46437435493E+01  0.77001787596E+01  0.19102284903E+02  0.00000000000E+00 0. -1.
</event>
<event>
 7    1  0.4237994E-013  0.5930197E+02  0.7816164E-02  0.1266605E+00
        -11   -1    0    0    0    0  0.00000000000E+00  0.00000000000E+00  0.45593999997E+02  0.45594000000E+02  0.51100000000E-03 0. -1.
         11   -1    0    0    0    0 -0.00000000000E+00 -0.00000000000E+00 -0.45593999997E+02  0.45594000000E+02  0.51100000000E-03 0.  1.
    9900012    2    1    2    0    0 -0.15913325019E+02 -0.64409965687E+01 -0.26870033407E+02  0.59301967866E+02  0.50000043475E+02 0.  0.
         12    1    1    2    0    0  0.15913325019E+02  0.64409965687E+01  0.26870033407E+02  0.31886032134E+02  0.00000000000E+00 0. -1.
         11    1    3    3    0    0 -0.13855298171E+02  0.96890895014E+01  0.39367078161E+01  0.17359303311E+02  0.51100000000E-03 0. -1.
        -11    1    3    3    0    0  0.27124328093E+01 -0.11536607668E+02 -0.15575196389E+01  0.11953094826E+02  0.51100000000E-03 0.  1.
        -12    1    3    3    0    0 -0.47704596572E+01 -0.45934784018E+01 -0.29249221585E+02  0.29989569728E+02  0.00000000000E+00 0.  1.
</event>
<event>
 7    1  0.4287778E-013  0.5930194E+02  0.7816164E-02  0.1266605E+00
        -11   -1    0    0    0    0  0.00000000000E+00  0.00000000000E+00  0.45593999997E+02  0.45594000000E+02  0.51100000000E-03 0. -1.
         11   -1    0    0    0    0 -0.00000000000E+00 -0.00000000000E+00 -0.45593999997E+02  0.45594000000E+02  0.51100000000E-03 0.  1.
    9900012    2    1    2    0    0 -0.16199056626E+02  0.43471447074E+00 -0.27461285669E+02  0.59301943128E+02  0.49999998359E+02 0.  0.
         12    1    1    2    0    0  0.16199056626E+02 -0.43471447074E+00  0.27461285669E+02  0.31886056872E+02  0.00000000000E+00 0. -1.
         11    1    3    3    0    0  0.80122174452E+01  0.81552550954E+01  0.42432830449E+01  0.12194640844E+02  0.51100000000E-03 0. -1.
        -11    1    3    3    0    0 -0.13190858307E+02 -0.24156863556E+01 -0.32185121212E+02  0.34867123643E+02  0.51100000000E-03 0.  1.
         12    1    3    3    0    0 -0.11020415765E+02 -0.53048542690E+01  0.48055249855E+00  0.12240178641E+02  0.00000000000E+00 0. -1.
</event>
<event>
 7    1  0.4237994E-013  0.5930194E+02  0.7816164E-02  0.1266605E+00
        -11   -1    0    0    0    0  0.00000000000E+00  0.00000000000E+00  0.45593999997E+02  0.45594000000E+02  0.51100000000E-03 0.  1.
         11   -1    0    0    0    0 -0.00000000000E+00 -0.00000000000E+00 -0.45593999997E+02  0.45594000000E+02  0.51100000000E-03 0. -1.
    9900012    2    1    2    0    0 -0.11614267995E+02  0.28585393164E+02  0.80439436583E+01  0.59301937951E+02  0.49999988918E+02 0.  0.
         12    1    1    2    0    0  0.11614267995E+02 -0.28585393164E+02 -0.80439436583E+01  0.31886062049E+02  0.00000000000E+00 0. -1.
         11    1    3    3    0    0  0.13476727102E+02  0.11136186496E+02 -0.59764890169E+01  0.18475801587E+02  0.51100000000E-03 0. -1.
        -11    1    3    3    0    0 -0.39087038417E+01  0.11196963848E+02  0.14503598714E+02  0.18735109849E+02  0.51100000000E-03 0.  1.
         12    1    3    3    0    0 -0.21182291255E+02  0.62522428197E+01 -0.48316603851E+00  0.22091026516E+02  0.00000000000E+00 0. -1.
</event>
<event>
 7    1  0.4237994E-013  0.5930194E+02  0.7816164E-02  0.1266605E+00
        -11   -1    0    0    0    0  0.00000000000E+00  0.00000000000E+00  0.45593999997E+02  0.45594000000E+02  0.51100000000E-03 0.  1.
         11   -1    0    0    0    0 -0.00000000000E+00 -0.00000000000E+00 -0.45593999997E+02  0.45594000000E+02  0.51100000000E-03 0. -1.
    9900012    2    1    2    0    0  0.17804022357E+02  0.26280565483E+02  0.30115072039E+01  0.59301944900E+02  0.50000001591E+02 0.  0.
         12    1    1    2    0    0 -0.17804022357E+02 -0.26280565483E+02 -0.30115072039E+01  0.31886055100E+02  0.00000000000E+00 0. -1.
         11    1    3    3    0    0  0.34730313659E+01  0.15954036332E+02 -0.21944403584E+01  0.16474489094E+02  0.51100000000E-03 0. -1.
        -11    1    3    3    0    0 -0.83463949541E+01 -0.32404310137E+01  0.12534907402E+02  0.15404110027E+02  0.51100000000E-03 0.  1.
        -12    1    3    3    0    0  0.22677385945E+02  0.13566960165E+02 -0.73289598393E+01  0.27423345779E+02  0.00000000000E+00 0.  1.
</event>
<event>
 7    1  0.4237994E-013  0.5930193E+02  0.7816164E-02  0.1266605E+00
        -11   -1    0    0    0    0  0.00000000000E+00  0.00000000000E+00  0.45593999997E+02  0.45594000000E+02  0.51100000000E-03 0. -1.
         11   -1    0    0    0    0 -0.00000000000E+00 -0.00000000000E+00 -0.45593999997E+02  0.45594000000E+02  0.51100000000E-03 0.  1.
    9900012    2    1    2    0    0 -0.14634160369E+00  0.31306029530E+02 -0.60524601378E+01  0.59301934477E+02  0.49999982583E+02 0.  0.
         12    1    1    2    0    0  0.14634160369E+00 -0.31306029530E+02  0.60524601378E+01  0.31886065523E+02  0.00000000000E+00 0. -1.
         11    1    3    3    0    0 -0.32094754686E+00 -0.10814248950E+01 -0.22194457847E+02  0.22223106140E+02  0.51100000000E-03 0. -1.
        -11    1    3    3    0    0  0.12878652430E+00  0.17034093540E+02  0.12947463322E+02  0.21396582330E+02  0.51100000000E-03 0.  1.
         12    1    3    3    0    0  0.45819418866E-01  0.15353360885E+02  0.31945343873E+01  0.15682246007E+02  0.00000000000E+00 0. -1.
</event>
<event>
 7    1  0.4237994E-013  0.5930193E+02  0.7816164E-02  0.1266605E+00
        -11   -1    0    0    0    0  0.00000000000E+00  0.00000000000E+00  0.45593999997E+02  0.45594000000E+02  0.51100000000E-03 0.  1.
         11   -1    0    0    0    0 -0.00000000000E+00 -0.00000000000E+00 -0.45593999997E+02  0.45594000000E+02  0.51100000000E-03 0. -1.
    9900012    2    1    2    0    0 -0.26946962324E+02  0.13990429804E+02  0.97391313066E+01  0.59301928069E+02  0.49999970895E+02 0.  0.
         12    1    1    2    0    0  0.26946962324E+02 -0.13990429804E+02 -0.97391313066E+01  0.31886071931E+02  0.00000000000E+00 0. -1.
         11    1    3    3    0    0 -0.77883343375E+00  0.84643719921E+01  0.10612383826E+02  0.13596869694E+02  0.51100000000E-03 0. -1.
        -11    1    3    3    0    0 -0.22791284612E+02  0.13660284228E+02 -0.13894428572E+02  0.29985015676E+02  0.51100000000E-03 0.  1.
        -12    1    3    3    0    0 -0.33768442779E+01 -0.81342264166E+01  0.13021176053E+02  0.15720042699E+02  0.00000000000E+00 0.  1.
</event>
<event>
 7    1  0.4237994E-013  0.5930195E+02  0.7816164E-02  0.1266605E+00
        -11   -1    0    0    0    0  0.00000000000E+00  0.00000000000E+00  0.45593999997E+02  0.45594000000E+02  0.51100000000E-03 0.  1.
         11   -1    0    0    0    0 -0.00000000000E+00 -0.00000000000E+00 -0.45593999997E+02  0.45594000000E+02  0.51100000000E-03 0. -1.
    9900012    2    1    2    0    0  0.65410246460E+00  0.24552992470E+01  0.31784647192E+02  0.59301950675E+02  0.50000012123E+02 0.  0.
         12    1    1    2    0    0 -0.65410246460E+00 -0.24552992470E+01 -0.31784647192E+02  0.31886049325E+02  0.00000000000E+00 0. -1.
         11    1    3    3    0    0  0.43161430890E+01 -0.72512468443E+01  0.22236256036E+00  0.84415115549E+01  0.51100000000E-03 0. -1.
        -11    1    3    3    0    0 -0.16660292094E+02  0.15375058805E+02  0.28387024151E+02  0.36328788946E+02  0.51100000000E-03 0.  1.
        -12    1    3    3    0    0  0.12998251470E+02 -0.56685127132E+01  0.31752604809E+01  0.14531650174E+02  0.00000000000E+00 0.  1.
</event>
<event>
 7    1  0.4237994E-013  0.5930208E+02  0.7816164E-02  0.1266604E+00
        -11   -1    0    0    0    0  0.00000000000E+00  0.00000000000E+00  0.45593999997E+02  0.45594000000E+02  0.51100000000E-03 0.  1.
         11   -1    0    0    0    0 -0.00000000000E+00 -0.00000000000E+00 -0.45593999997E+02  0.45594000000E+02  0.51100000000E-03 0. -1.
    9900012    2    1    2    0    0 -0.31278637840E+02 -0.61144745740E+01  0.98597655555E+00  0.59302076237E+02  0.50000241117E+02 0.  0.
         12    1    1    2    0    0  0.31278637840E+02  0.61144745740E+01 -0.98597655555E+00  0.31885923763E+02  0.00000000000E+00 0. -1.
         11    1    3    3    0    0 -0.24224005086E+02 -0.55209496861E+01 -0.15043830096E+02  0.29044795266E+02  0.51100000000E-03 0. -1.
        -11    1    3    3    0    0 -0.35100543240E+01 -0.38901853731E+01  0.21974778740E+02  0.22590815048E+02  0.51100000000E-03 0.  1.
         12    1    3    3    0    0 -0.35445784306E+01  0.32966604851E+01 -0.59449720885E+01  0.76664659223E+01  0.00000000000E+00 0. -1.
</event>
<event>
 7    1  0.4237994E-013  0.5930172E+02  0.7816164E-02  0.1266606E+00
        -11   -1    0    0    0    0  0.00000000000E+00  0.00000000000E+00  0.45593999997E+02  0.45594000000E+02  0.51100000000E-03 0.  1.
         11   -1    0    0    0    0 -0.00000000000E+00 -0.00000000000E+00 -0.45593999997E+02  0.45594000000E+02  0.51100000000E-03 0. -1.
    9900012    2    1    2    0    0 -0.53456944741E+01  0.79352108172E+01  0.30416949743E+02  0.59301720007E+02  0.49999591438E+02 0.  0.
         12    1    1    2    0    0  0.53456944741E+01 -0.79352108172E+01 -0.30416949743E+02  0.31886279993E+02  0.00000000000E+00 0. -1.
         11    1    3    3    0    0  0.28875737548E+01  0.13600088369E+02  0.15191194780E+00  0.13904084412E+02  0.51100000000E-03 0. -1.
        -11    1    3    3    0    0 -0.15680890751E+02  0.47312793605E-01  0.32199133515E+02  0.35814477137E+02  0.51100000000E-03 0.  1.
        -12    1    3    3    0    0  0.74476225218E+01 -0.57121903455E+01 -0.19340957199E+01  0.95831584576E+01  0.00000000000E+00 0.  1.
</event>
<event>
 7    1  0.4237994E-013  0.5930192E+02  0.7816164E-02  0.1266605E+00
        -11   -1    0    0    0    0  0.00000000000E+00  0.00000000000E+00  0.45593999997E+02  0.45594000000E+02  0.51100000000E-03 0.  1.
         11   -1    0    0    0    0 -0.00000000000E+00 -0.00000000000E+00 -0.45593999997E+02  0.45594000000E+02  0.51100000000E-03 0. -1.
    9900012    2    1    2    0    0 -0.53370350267E+01 -0.27349609368E+02  0.15499590670E+02  0.59301915474E+02  0.49999947924E+02 0.  0.
         12    1    1    2    0    0  0.53370350267E+01  0.27349609368E+02 -0.15499590670E+02  0.31886084526E+02  0.00000000000E+00 0. -1.
         11    1    3    3    0    0 -0.31433544451E+01 -0.69037480439E+01 -0.96328797102E+01  0.12261108677E+02  0.51100000000E-03 0. -1.
        -11    1    3    3    0    0  0.13760872236E+02 -0.15424172487E+02  0.21693875046E+02  0.29964827989E+02  0.51100000000E-03 0.  1.
        -12    1    3    3    0    0 -0.15954552817E+02 -0.50216888371E+01  0.34385953341E+01  0.17075978808E+02  0.00000000000E+00 0.  1.
</event>
<event>
 7    1  0.4237994E-013  0.5930196E+02  0.7816164E-02  0.1266605E+00
        -11   -1    0    0    0    0  0.00000000000E+00  0.00000000000E+00  0.45593999997E+02  0.45594000000E+02  0.51100000000E-03 0.  1.
         11   -1    0    0    0    0 -0.00000000000E+00 -0.00000000000E+00 -0.45593999997E+02  0.45594000000E+02  0.51100000000E-03 0. -1.
    9900012    2    1    2    0    0 -0.24617978524E+02 -0.49526006170E+01  0.19650612948E+02  0.59301957463E+02  0.50000024502E+02 0.  0.
         12    1    1    2    0    0  0.24617978524E+02  0.49526006170E+01 -0.19650612948E+02  0.31886042537E+02  0.00000000000E+00 0. -1.
         11    1    3    3    0    0 -0.48814907864E+01 -0.86007215778E+01  0.26173332634E+02  0.27979362133E+02  0.51100000000E-03 0.  1.
        -11    1    3    3    0    0 -0.13709423025E+01 -0.12782133812E+01 -0.11512437280E+02  0.11664026947E+02  0.51100000000E-03 0. -1.
         12    1    3    3    0    0 -0.18365545435E+02  0.49263343421E+01  0.49897175937E+01  0.19658568382E+02  0.00000000000E+00 0. -1.
</event>
<event>
 7    1  0.4237994E-013  0.5930195E+02  0.7816164E-02  0.1266605E+00
        -11   -1    0    0    0    0  0.00000000000E+00  0.00000000000E+00  0.45593999997E+02  0.45594000000E+02  0.51100000000E-03 0.  1.
         11   -1    0    0    0    0 -0.00000000000E+00 -0.00000000000E+00 -0.45593999997E+02  0.45594000000E+02  0.51100000000E-03 0. -1.
    9900012    2    1    2    0    0 -0.23240010858E+02  0.20981329369E+02 -0.60337293161E+01  0.59301950132E+02  0.50000011133E+02 0.  0.
         12    1    1    2    0    0  0.23240010858E+02 -0.20981329369E+02  0.60337293161E+01  0.31886049868E+02  0.00000000000E+00 0. -1.
         11    1    3    3    0    0 -0.22136871694E+02  0.84264480237E+01  0.24788465563E+01  0.23815767785E+02  0.51100000000E-03 0.  1.
        -11    1    3    3    0    0  0.12578674215E+02  0.11625117707E+02 -0.12500811204E+02  0.21204638354E+02  0.51100000000E-03 0. -1.
         12    1    3    3    0    0 -0.13681813379E+02  0.92976363802E+00  0.39882353312E+01  0.14281543993E+02  0.00000000000E+00 0. -1.
</event>
<event>
 7    1  0.4237994E-013  0.5930195E+02  0.7816164E-02  0.1266605E+00
        -11   -1    0    0    0    0  0.00000000000E+00  0.00000000000E+00  0.45593999997E+02  0.45594000000E+02  0.51100000000E-03 0.  1.
         11   -1    0    0    0    0 -0.00000000000E+00 -0.00000000000E+00 -0.45593999997E+02  0.45594000000E+02  0.51100000000E-03 0. -1.
    9900012    2    1    2    0    0  0.19421506588E+02  0.24898828737E+02 -0.44242061397E+01  0.59301949906E+02  0.50000010721E+02 0.  0.
         12    1    1    2    0    0 -0.19421506588E+02 -0.24898828737E+02  0.44242061397E+01  0.31886050094E+02  0.00000000000E+00 0. -1.
         11    1    3    3    0    0  0.21126895415E+02 -0.37870732575E+01 -0.10318549455E+02  0.23815123280E+02  0.51100000000E-03 0. -1.
        -11    1    3    3    0    0  0.21402975576E+01  0.11464389693E+02 -0.70271646615E+01  0.13615951972E+02  0.51100000000E-03 0.  1.
         12    1    3    3    0    0 -0.38456863844E+01  0.17221512301E+02  0.12921507977E+02  0.21870874653E+02  0.00000000000E+00 0. -1.
</event>
<event>
 7    1  0.4237994E-013  0.5930195E+02  0.7816164E-02  0.1266605E+00
        -11   -1    0    0    0    0  0.00000000000E+00  0.00000000000E+00  0.45593999997E+02  0.45594000000E+02  0.51100000000E-03 0.  1.
         11   -1    0    0    0    0 -0.00000000000E+00 -0.00000000000E+00 -0.45593999997E+02  0.45594000000E+02  0.51100000000E-03 0. -1.
    9900012    2    1    2    0    0  0.29400526454E+02 -0.10822129164E+02  0.59338899101E+01  0.59301945292E+02  0.50000002305E+02 0.  0.
         12    1    1    2    0    0 -0.29400526454E+02  0.10822129164E+02 -0.59338899101E+01  0.31886054708E+02  0.00000000000E+00 0. -1.
         11    1    3    3    0    0  0.14615223724E+01  0.39272042307E+01 -0.10984757499E+02  0.11756865156E+02  0.51100000000E-03 0. -1.
        -11    1    3    3    0    0  0.12062098815E+02 -0.18728455803E+02  0.21066042748E+02  0.30659866958E+02  0.51100000000E-03 0.  1.
        -12    1    3    3    0    0  0.15876905266E+02  0.39791224080E+01 -0.41473953387E+01  0.16885213178E+02  0.00000000000E+00 0.  1.
</event>
<event>
 7    1  0.4237994E-013  0.5930195E+02  0.7816164E-02  0.1266605E+00
        -11   -1    0    0    0    0  0.00000000000E+00  0.00000000000E+00  0.45593999997E+02  0.45594000000E+02  0.51100000000E-03 0.  1.
         11   -1    0    0    0    0 -0.00000000000E+00 -0.00000000000E+00 -0.45593999997E+02  0.45594000000E+02  0.51100000000E-03 0. -1.
    9900012    2    1    2    0    0  0.15147351177E+02 -0.10293487278E+02  0.26102144480E+02  0.59301951727E+02  0.50000014041E+02 0.  0.
         12    1    1    2    0    0 -0.15147351177E+02  0.10293487278E+02 -0.26102144480E+02  0.31886048273E+02  0.00000000000E+00 0. -1.
         11    1    3    3    0    0  0.11501151507E+02  0.15026967670E+02 -0.41909679947E+01  0.19381704166E+02  0.51100000000E-03 0. -1.
        -11    1    3    3    0    0  0.46323973580E+01 -0.18619100342E+02  0.23325946911E+02  0.30203142260E+02  0.51100000000E-03 0.  1.
         12    1    3    3    0    0 -0.98619768796E+00 -0.67013546067E+01  0.69671655641E+01  0.97171053016E+01  0.00000000000E+00 0. -1.
</event>
<event>
 7    1  0.4237994E-013  0.5930197E+02  0.7816164E-02  0.1266605E+00
        -11   -1    0    0    0    0  0.00000000000E+00  0.00000000000E+00  0.45593999997E+02  0.45594000000E+02  0.51100000000E-03 0. -1.
         11   -1    0    0    0    0 -0.00000000000E+00 -0.00000000000E+00 -0.45593999997E+02  0.45594000000E+02  0.51100000000E-03 0.  1.
    9900012    2    1    2    0    0  0.31388960053E+01 -0.29284626878E+02 -0.12217890279E+02  0.59301970420E+02  0.50000048133E+02 0.  0.
         12    1    1    2    0    0 -0.31388960053E+01  0.29284626878E+02  0.12217890279E+02  0.31886029580E+02  0.00000000000E+00 0. -1.
         11    1    3    3    0    0  0.80939261035E+01  0.94647703498E+01  0.27403540882E+01  0.12751590424E+02  0.51100000000E-03 0. -1.
        -11    1    3    3    0    0 -0.11437395475E+02 -0.17460216668E+02 -0.24346071271E+01  0.21014292600E+02  0.51100000000E-03 0.  1.
        -12    1    3    3    0    0  0.64823653772E+01 -0.21289180559E+02 -0.12523637241E+02  0.25536087396E+02  0.00000000000E+00 0.  1.
</event>
<event>
 7    1  0.4237994E-013  0.5930194E+02  0.7816164E-02  0.1266605E+00
        -11   -1    0    0    0    0  0.00000000000E+00  0.00000000000E+00  0.45593999997E+02  0.45594000000E+02  0.51100000000E-03 0.  1.
         11   -1    0    0    0    0 -0.00000000000E+00 -0.00000000000E+00 -0.45593999997E+02  0.45594000000E+02  0.51100000000E-03 0. -1.
    9900012    2    1    2    0    0 -0.62535610221E+01  0.18596366211E+02  0.25135412487E+02  0.59301939996E+02  0.49999992647E+02 0.  0.
         12    1    1    2    0    0  0.62535610221E+01 -0.18596366211E+02 -0.25135412487E+02  0.31886060004E+02  0.00000000000E+00 0. -1.
         11    1    3    3    0    0  0.36379424737E+01 -0.43862801155E+01 -0.44917043049E+00  0.57162779000E+01  0.51100000000E-03 0. -1.
        -11    1    3    3    0    0 -0.93188122737E+01  0.22808064815E+02 -0.31552808682E+01  0.24839562806E+02  0.51100000000E-03 0.  1.
        -12    1    3    3    0    0 -0.57269122211E+00  0.17458151129E+00  0.28739863786E+02  0.28746099290E+02  0.00000000000E+00 0.  1.
</event>
<event>
 7    1  0.4237994E-013  0.5930197E+02  0.7816164E-02  0.1266605E+00
        -11   -1    0    0    0    0  0.00000000000E+00  0.00000000000E+00  0.45593999997E+02  0.45594000000E+02  0.51100000000E-03 0. -1.
         11   -1    0    0    0    0 -0.00000000000E+00 -0.00000000000E+00 -0.45593999997E+02  0.45594000000E+02  0.51100000000E-03 0.  1.
    9900012    2    1    2    0    0 -0.78958949840E+01  0.30852233462E+02 -0.15852966485E+01  0.59301974336E+02  0.50000055274E+02 0.  0.
         12    1    1    2    0    0  0.78958949840E+01 -0.30852233462E+02  0.15852966485E+01  0.31886025664E+02  0.00000000000E+00 0. -1.
         11    1    3    3    0    0 -0.87488140919E+01 -0.92934999342E+01  0.43545392914E+01  0.13486026166E+02  0.51100000000E-03 0. -1.
        -11    1    3    3    0    0  0.72231182891E+01  0.25105810384E+02 -0.11525808356E+02  0.28553798545E+02  0.51100000000E-03 0.  1.
        -12    1    3    3    0    0 -0.63701991812E+01  0.15039923013E+02  0.55859724157E+01  0.17262149625E+02  0.00000000000E+00 0.  1.
</event>
<event>
 7    1  0.4237994E-013  0.5930197E+02  0.7816164E-02  0.1266605E+00
        -11   -1    0    0    0    0  0.00000000000E+00  0.00000000000E+00  0.45593999997E+02  0.45594000000E+02  0.51100000000E-03 0.  1.
         11   -1    0    0    0    0 -0.00000000000E+00 -0.00000000000E+00 -0.45593999997E+02  0.45594000000E+02  0.51100000000E-03 0. -1.
    9900012    2    1    2    0    0 -0.17233511947E+02 -0.26439642151E+02  0.45464684417E+01  0.59301968789E+02  0.50000045159E+02 0.  0.
         12    1    1    2    0    0  0.17233511947E+02  0.26439642151E+02 -0.45464684417E+01  0.31886031211E+02  0.00000000000E+00 0. -1.
         11    1    3    3    0    0 -0.20185853598E+02 -0.99144534628E+01 -0.12956072605E+02  0.25954284628E+02  0.51100000000E-03 0. -1.
        -11    1    3    3    0    0  0.66026189446E+01  0.54351008734E+00  0.14079876802E+02  0.15560620527E+02  0.51100000000E-03 0.  1.
         12    1    3    3    0    0 -0.36502772934E+01 -0.17068698776E+02  0.34226642439E+01  0.17787063635E+02  0.00000000000E+00 0. -1.
</event>
<event>
 7    1  0.4237994E-013  0.5930225E+02  0.7816164E-02  0.1266604E+00
        -11   -1    0    0    0    0  0.00000000000E+00  0.00000000000E+00  0.45593999997E+02  0.45594000000E+02  0.51100000000E-03 0.  1.
         11   -1    0    0    0    0 -0.00000000000E+00 -0.00000000000E+00 -0.45593999997E+02  0.45594000000E+02  0.51100000000E-03 0. -1.
    9900012    2    1    2    0    0  0.44100458306E+01  0.25215507226E+02  0.19011325796E+02  0.59302253695E+02  0.50000564756E+02 0.  0.
         12    1    1    2    0    0 -0.44100458306E+01 -0.25215507226E+02 -0.19011325796E+02  0.31885746305E+02  0.00000000000E+00 0. -1.
         11    1    3    3    0    0 -0.11720100802E+02  0.25652370630E+02  0.29335733125E+01  0.28355083043E+02  0.51100000000E-03 0.  1.
        -11    1    3    3    0    0  0.93822020000E+01 -0.91010140116E+01  0.15024971444E+02  0.19914917463E+02  0.51100000000E-03 0. -1.
        -12    1    3    3    0    0  0.67479446325E+01  0.86641506075E+01  0.10527810404E+01  0.11032253189E+02  0.00000000000E+00 0.  1.
</event>
<event>
 7    1  0.4237994E-013  0.5930198E+02  0.7816164E-02  0.1266605E+00
        -11   -1    0    0    0    0  0.00000000000E+00  0.00000000000E+00  0.45593999997E+02  0.45594000000E+02  0.51100000000E-03 0. -1.
         11   -1    0    0    0    0 -0.00000000000E+00 -0.00000000000E+00 -0.45593999997E+02  0.45594000000E+02  0.51100000000E-03 0.  1.
    9900012    2    1    2    0    0  0.18573238567E+01 -0.22790447620E+02 -0.22223047562E+02  0.59301984294E+02  0.50000073437E+02 0.  0.
         12    1    1    2    0    0 -0.18573238567E+01  0.22790447620E+02  0.22223047562E+02  0.31886015706E+02  0.00000000000E+00 0. -1.
         11    1    3    3    0    0  0.82029458683E+01 -0.29985316479E+01 -0.30547677721E+02  0.31771687512E+02  0.51100000000E-03 0.  1.
        -11    1    3    3    0    0 -0.10745940565E+02 -0.15120504272E+02  0.97500655933E+01  0.20956351481E+02  0.51100000000E-03 0. -1.
        -12    1    3    3    0    0  0.44003185536E+01 -0.46714116996E+01 -0.14254354346E+01  0.65739453009E+01  0.00000000000E+00 0.  1.
</event>
<event>
 7    1  0.4237994E-013  0.5930193E+02  0.7816164E-02  0.1266605E+00
        -11   -1    0    0    0    0  0.00000000000E+00  0.00000000000E+00  0.45593999997E+02  0.45594000000E+02  0.51100000000E-03 0.  1.
         11   -1    0    0    0    0 -0.00000000000E+00 -0.00000000000E+00 -0.45593999997E+02  0.45594000000E+02  0.51100000000E-03 0. -1.
    9900012    2    1    2    0    0  0.27552527843E+02 -0.15563671640E+02 -0.39180967524E+01  0.59301934899E+02  0.49999983352E+02 0.  0.
         12    1    1    2    0    0 -0.27552527843E+02  0.15563671640E+02  0.39180967524E+01  0.31886065101E+02  0.00000000000E+00 0. -1.
         11    1    3    3    0    0  0.10579999967E+02  0.25472781082E+01  0.18616390944E+02  0.21563743578E+02  0.51100000000E-03 0. -1.
        -11    1    3    3    0    0  0.99474140957E+01  0.91208730071E+00 -0.71616518874E+01  0.12291143497E+02  0.51100000000E-03 0.  1.
         12    1    3    3    0    0  0.70251137803E+01 -0.19023037049E+02 -0.15372835809E+02  0.25447047825E+02  0.00000000000E+00 0. -1.
</event>
<event>
 7    1  0.4237994E-013  0.5930195E+02  0.7816164E-02  0.1266605E+00
        -11   -1    0    0    0    0  0.00000000000E+00  0.00000000000E+00  0.45593999997E+02  0.45594000000E+02  0.51100000000E-03 0. -1.
         11   -1    0    0    0    0 -0.00000000000E+00 -0.00000000000E+00 -0.45593999997E+02  0.45594000000E+02  0.51100000000E-03 0.  1.
    9900012    2    1    2    0    0 -0.11053693800E+02 -0.58218659290E+01 -0.29336699922E+02  0.59301949259E+02  0.50000009541E+02 0.  0.
         12    1    1    2    0    0  0.11053693800E+02  0.58218659290E+01  0.29336699922E+02  0.31886050741E+02  0.00000000000E+00 0. -1.
         11    1    3    3    0    0  0.78318490327E+01 -0.45754205172E+01 -0.55404881751E+01  0.10628703668E+02  0.51100000000E-03 0. -1.
        -11    1    3    3    0    0 -0.23338796318E+02 -0.15072031602E+02 -0.17555159435E+02  0.32864101589E+02  0.51100000000E-03 0.  1.
        -12    1    3    3    0    0  0.44532534859E+01  0.13825586191E+02 -0.62410523119E+01  0.15809144002E+02  0.00000000000E+00 0.  1.
</event>
<event>
 7    1  0.4237994E-013  0.5930196E+02  0.7816164E-02  0.1266605E+00
        -11   -1    0    0    0    0  0.00000000000E+00  0.00000000000E+00  0.45593999997E+02  0.45594000000E+02  0.51100000000E-03 0.  1.
         11   -1    0    0    0    0 -0.00000000000E+00 -0.00000000000E+00 -0.45593999997E+02  0.45594000000E+02  0.51100000000E-03 0. -1.
    9900012    2    1    2    0    0 -0.43879307328E+01 -0.10304251901E+02  0.29854447544E+02  0.59301959456E+02  0.50000028138E+02 0.  0.
         12    1    1    2    0    0  0.43879307328E+01  0.10304251901E+02 -0.29854447544E+02  0.31886040544E+02  0.00000000000E+00 0. -1.
         11    1    3    3    0    0 -0.11306667047E+02  0.12985377655E+02  0.86256564227E+01  0.19257795864E+02  0.51100000000E-03 0. -1.
        -11    1    3    3    0    0  0.58682291816E+01 -0.10894768294E+02  0.24266269800E+02  0.27239382155E+02  0.51100000000E-03 0.  1.
         12    1    3    3    0    0  0.10505071328E+01 -0.12394861263E+02 -0.30374786782E+01  0.12804781438E+02  0.00000000000E+00 0. -1.
</event>
<event>
 7    1  0.4237994E-013  0.5930187E+02  0.7816164E-02  0.1266605E+00
        -11   -1    0    0    0    0  0.00000000000E+00  0.00000000000E+00  0.45593999997E+02  0.45594000000E+02  0.51100000000E-03 0. -1.
         11   -1    0    0    0    0 -0.00000000000E+00 -0.00000000000E+00 -0.45593999997E+02  0.45594000000E+02  0.51100000000E-03 0.  1.
    9900012    2    1    2    0    0  0.55494546687E+01 -0.31051341121E+02  0.46629364811E+01  0.59301871211E+02  0.49999867199E+02 0.  0.
         12    1    1    2    0    0 -0.55494546687E+01  0.31051341121E+02 -0.46629364811E+01  0.31886128789E+02  0.00000000000E+00 0. -1.
         11    1    3    3    0    0 -0.60933584424E+01 -0.14633101580E+02  0.18663705498E+02  0.24486538794E+02  0.51100000000E-03 0. -1.
        -11    1    3    3    0    0  0.14378246206E+02 -0.20886007557E+02 -0.74519047802E+01  0.26428964428E+02  0.51100000000E-03 0.  1.
         12    1    3    3    0    0 -0.27354330951E+01  0.44677680151E+01 -0.65488642365E+01  0.83863679888E+01  0.00000000000E+00 0. -1.
</event>
<event>
 7    1  0.4237994E-013  0.5930198E+02  0.7816164E-02  0.1266605E+00
        -11   -1    0    0    0    0  0.00000000000E+00  0.00000000000E+00  0.45593999997E+02  0.45594000000E+02  0.51100000000E-03 0. -1.
         11   -1    0    0    0    0 -0.00000000000E+00 -0.00000000000E+00 -0.45593999997E+02  0.45594000000E+02  0.51100000000E-03 0.  1.
    9900012    2    1    2    0    0  0.79715835940E+01  0.20852985458E+02 -0.22766750792E+02  0.59301982858E+02  0.50000070818E+02 0.  0.
         12    1    1    2    0    0 -0.79715835940E+01 -0.20852985458E+02  0.22766750792E+02  0.31886017142E+02  0.00000000000E+00 0. -1.
         11    1    3    3    0    0 -0.10223782056E+02 -0.77186406824E+01 -0.98848105688E+01  0.16180624641E+02  0.51100000000E-03 0. -1.
        -11    1    3    3    0    0  0.23666955206E+02  0.25220470015E+02 -0.94936462867E+01  0.35865389954E+02  0.51100000000E-03 0.  1.
         12    1    3    3    0    0 -0.54715895554E+01  0.33511561253E+01 -0.33882939368E+01  0.72559682635E+01  0.00000000000E+00 0. -1.
</event>
<event>
 7    1  0.4237994E-013  0.5930194E+02  0.7816164E-02  0.1266605E+00
        -11   -1    0    0    0    0  0.00000000000E+00  0.00000000000E+00  0.45593999997E+02  0.45594000000E+02  0.51100000000E-03 0.  1.
         11   -1    0    0    0    0 -0.00000000000E+00 -0.00000000000E+00 -0.45593999997E+02  0.45594000000E+02  0.51100000000E-03 0. -1.
    9900012    2    1    2    0    0 -0.15831220628E+02  0.26126228507E+02  0.91385802831E+01  0.59301937023E+02  0.49999987226E+02 0.  0.
         12    1    1    2    0    0  0.15831220628E+02 -0.26126228507E+02 -0.91385802831E+01  0.31886062977E+02  0.00000000000E+00 0. -1.
         11    1    3    3    0    0  0.64056458640E+01  0.16296625736E+01 -0.20250221819E+01  0.69129454024E+01  0.51100000000E-03 0. -1.
        -11    1    3    3    0    0 -0.12219012492E+02 -0.84890123726E+01  0.99413324577E+01  0.17894068532E+02  0.51100000000E-03 0.  1.
        -12    1    3    3    0    0 -0.10017854000E+02  0.32985578306E+02  0.12222700073E+01  0.34494923089E+02  0.00000000000E+00 0.  1.
</event>
<event>
 7    1  0.4237994E-013  0.5930215E+02  0.7816164E-02  0.1266604E+00
        -11   -1    0    0    0    0  0.00000000000E+00  0.00000000000E+00  0.45593999997E+02  0.45594000000E+02  0.51100000000E-03 0.  1.
         11   -1    0    0    0    0 -0.00000000000E+00 -0.00000000000E+00 -0.45593999997E+02  0.45594000000E+02  0.51100000000E-03 0. -1.
    9900012    2    1    2    0    0 -0.11825747682E+02 -0.14213487975E+02  0.25977601130E+02  0.59302151899E+02  0.50000379107E+02 0.  0.
         12    1    1    2    0    0  0.11825747682E+02  0.14213487975E+02 -0.25977601130E+02  0.31885848101E+02  0.00000000000E+00 0. -1.
         11    1    3    3    0    0 -0.68334047651E+01 -0.27103614876E+02  0.69255540828E+01  0.28796955736E+02  0.51100000000E-03 0. -1.
        -11    1    3    3    0    0 -0.73591612470E+01  0.11572405151E+02  0.27595462053E+01  0.13989028228E+02  0.51100000000E-03 0.  1.
         12    1    3    3    0    0  0.23668183303E+01  0.13177217496E+01  0.16292500841E+02  0.16516167936E+02  0.00000000000E+00 0. -1.
</event>
<event>
 7    1  0.4237994E-013  0.5930195E+02  0.7816164E-02  0.1266605E+00
        -11   -1    0    0    0    0  0.00000000000E+00  0.00000000000E+00  0.45593999997E+02  0.45594000000E+02  0.51100000000E-03 0.  1.
         11   -1    0    0    0    0 -0.00000000000E+00 -0.00000000000E+00 -0.45593999997E+02  0.45594000000E+02  0.51100000000E-03 0. -1.
    9900012    2    1    2    0    0  0.73573667662E+01 -0.26507489179E+02 -0.16122730346E+02  0.59301948784E+02  0.50000008675E+02 0.  0.
         12    1    1    2    0    0 -0.73573667662E+01  0.26507489179E+02  0.16122730346E+02  0.31886051216E+02  0.00000000000E+00 0. -1.
         11    1    3    3    0    0 -0.16314995040E+01 -0.13725596142E+02 -0.12358442745E+02  0.18541437038E+02  0.51100000000E-03 0. -1.
        -11    1    3    3    0    0  0.10839196502E+02  0.11177720603E+02 -0.58644725042E+01  0.16637958309E+02  0.51100000000E-03 0.  1.
        -12    1    3    3    0    0 -0.18503302314E+01 -0.23959613640E+02  0.21001849028E+01  0.24122553438E+02  0.00000000000E+00 0.  1.
</event>
<event>
 7    1  0.4237994E-013  0.5930195E+02  0.7816164E-02  0.1266605E+00
        -11   -1    0    0    0    0  0.00000000000E+00  0.00000000000E+00  0.45593999997E+02  0.45594000000E+02  0.51100000000E-03 0.  1.
         11   -1    0    0    0    0 -0.00000000000E+00 -0.00000000000E+00 -0.45593999997E+02  0.45594000000E+02  0.51100000000E-03 0. -1.
    9900012    2    1    2    0    0 -0.73359628053E+01 -0.30334822091E+02  0.65346992394E+01  0.59301951707E+02  0.50000014005E+02 0.  0.
         12    1    1    2    0    0  0.73359628053E+01  0.30334822091E+02 -0.65346992394E+01  0.31886048293E+02  0.00000000000E+00 0. -1.
         11    1    3    3    0    0  0.42036312922E+00  0.23948022086E+01  0.81225887847E+00  0.25635029794E+01  0.51100000000E-03 0. -1.
        -11    1    3    3    0    0 -0.15306389412E+02 -0.41615781620E+02  0.15985527713E+01  0.44370195040E+02  0.51100000000E-03 0.  1.
        -12    1    3    3    0    0  0.75500634776E+01  0.88861573200E+01  0.41238875896E+01  0.12368253688E+02  0.00000000000E+00 0.  1.
</event>
<event>
 7    1  0.4237994E-013  0.5930194E+02  0.7816164E-02  0.1266605E+00
        -11   -1    0    0    0    0  0.00000000000E+00  0.00000000000E+00  0.45593999997E+02  0.45594000000E+02  0.51100000000E-03 0. -1.
         11   -1    0    0    0    0 -0.00000000000E+00 -0.00000000000E+00 -0.45593999997E+02  0.45594000000E+02  0.51100000000E-03 0.  1.
    9900012    2    1    2    0    0 -0.78475434842E+01  0.57798901755E+01 -0.30360001588E+02  0.59301940889E+02  0.49999994276E+02 0.  0.
         12    1    1    2    0    0  0.78475434842E+01 -0.57798901755E+01  0.30360001588E+02  0.31886059111E+02  0.00000000000E+00 0. -1.
         11    1    3    3    0    0 -0.10424525886E+02  0.10334994696E+02 -0.73027381091E+01  0.16395512784E+02  0.51100000000E-03 0. -1.
        -11    1    3    3    0    0  0.12782862536E+02 -0.99699147666E+01 -0.26310500831E+02  0.30903773707E+02  0.51100000000E-03 0.  1.
        -12    1    3    3    0    0 -0.10205880135E+02  0.54148102460E+01  0.32532373523E+01  0.12002654398E+02  0.00000000000E+00 0.  1.
</event>
<event>
 7    1  0.4237994E-013  0.5930186E+02  0.7816164E-02  0.1266605E+00
        -11   -1    0    0    0    0  0.00000000000E+00  0.00000000000E+00  0.45593999997E+02  0.45594000000E+02  0.51100000000E-03 0.  1.
         11   -1    0    0    0    0 -0.00000000000E+00 -0.00000000000E+00 -0.45593999997E+02  0.45594000000E+02  0.51100000000E-03 0. -1.
    9900012    2    1    2    0    0 -0.11821330933E+02  0.20748766703E+02  0.21129855960E+02  0.59301858847E+02  0.49999844651E+02 0.  0.
         12    1    1    2    0    0  0.11821330933E+02 -0.20748766703E+02 -0.21129855960E+02  0.31886141153E+02  0.00000000000E+00 0. -1.
         11    1    3    3    0    0 -0.14272625380E+02  0.25463584614E+02  0.28643123672E+01  0.29330977860E+02  0.51100000000E-03 0. -1.
        -11    1    3    3    0    0 -0.17634964680E+01 -0.37308450143E+01 -0.48990303505E+01  0.64054369834E+01  0.51100000000E-03 0.  1.
         12    1    3    3    0    0  0.42147909144E+01 -0.98397289673E+00  0.23164573943E+02  0.23565444003E+02  0.00000000000E+00 0. -1.
</event>
<event>
 7    1  0.4237994E-013  0.5930200E+02  0.7816164E-02  0.1266605E+00
        -11   -1    0    0    0    0  0.00000000000E+00  0.00000000000E+00  0.45593999997E+02  0.45594000000E+02  0.51100000000E-03 0.  1.
         11   -1    0    0    0    0 -0.00000000000E+00 -0.00000000000E+00 -0.45593999997E+02  0.45594000000E+02  0.51100000000E-03 0. -1.
    9900012    2    1    2    0    0 -0.37828915151E+01 -0.23400635780E+02  0.21326436081E+02  0.59302001521E+02  0.50000104853E+02 0.  0.
         12    1    1    2    0    0  0.37828915151E+01  0.23400635780E+02 -0.21326436081E+02  0.31885998479E+02  0.00000000000E+00 0. -1.
         11    1    3    3    0    0  0.76062777414E+01  0.28415358747E+01 -0.65441457658E+01  0.10428596803E+02  0.51100000000E-03 0. -1.
        -11    1    3    3    0    0 -0.15645788669E+02 -0.30313589077E+02  0.22223746426E+02  0.40713625376E+02  0.51100000000E-03 0.  1.
        -12    1    3    3    0    0  0.42566194126E+01  0.40714174221E+01  0.56468354205E+01  0.81597793423E+01  0.00000000000E+00 0.  1.
</event>
<event>
 7    1  0.4237994E-013  0.5930200E+02  0.7816164E-02  0.1266605E+00
        -11   -1    0    0    0    0  0.00000000000E+00  0.00000000000E+00  0.45593999997E+02  0.45594000000E+02  0.51100000000E-03 0. -1.
         11   -1    0    0    0    0 -0.00000000000E+00 -0.00000000000E+00 -0.45593999997E+02  0.45594000000E+02  0.51100000000E-03 0.  1.
    9900012    2    1    2    0    0  0.64038492493E+01  0.27554097763E+02 -0.14713247006E+02  0.59301996390E+02  0.50000095497E+02 0.  0.
         12    1    1    2    0    0 -0.64038492493E+01 -0.27554097763E+02  0.14713247006E+02  0.31886003610E+02  0.00000000000E+00 0. -1.
         11    1    3    3    0    0 -0.50010742604E+01 -0.42382434476E+01  0.77511448769E+01  0.10151536753E+02  0.51100000000E-03 0. -1.
        -11    1    3    3    0    0  0.57937306606E+01  0.25841536271E+02 -0.13615703774E+01  0.26518035108E+02  0.51100000000E-03 0.  1.
        -12    1    3    3    0    0  0.56111928491E+01  0.59508049393E+01 -0.21102821505E+02  0.22632424530E+02  0.00000000000E+00 0.  1.
</event>
<event>
 7    1  0.4237994E-013  0.5930196E+02  0.7816164E-02  0.1266605E+00
        -11   -1    0    0    0    0  0.00000000000E+00  0.00000000000E+00  0.45593999997E+02  0.45594000000E+02  0.51100000000E-03 0. -1.
         11   -1    0    0    0    0 -0.00000000000E+00 -0.00000000000E+00 -0.45593999997E+02  0.45594000000E+02  0.51100000000E-03 0.  1.
    9900012    2    1    2    0    0 -0.71470547715E+01 -0.29380831822E+02  0.10119573451E+02  0.59301961718E+02  0.50000032264E+02 0.  0.
         12    1    1    2    0    0  0.71470547715E+01  0.29380831822E+02 -0.10119573451E+02  0.31886038282E+02  0.00000000000E+00 0. -1.
         11    1    3    3    0    0  0.16069841210E+00 -0.10910722049E+02  0.83535672761E+01  0.13742334813E+02  0.51100000000E-03 0. -1.
        -11    1    3    3    0    0 -0.17421249946E+02 -0.22536434469E+02 -0.93604695927E+01  0.29983482444E+02  0.51100000000E-03 0.  1.
        -12    1    3    3    0    0  0.10113496762E+02  0.40663246951E+01  0.11126475767E+02  0.15576144462E+02  0.00000000000E+00 0.  1.
</event>
<event>
 7    1  0.4237994E-013  0.5930196E+02  0.7816164E-02  0.1266605E+00
        -11   -1    0    0    0    0  0.00000000000E+00  0.00000000000E+00  0.45593999997E+02  0.45594000000E+02  0.51100000000E-03 0.  1.
         11   -1    0    0    0    0 -0.00000000000E+00 -0.00000000000E+00 -0.45593999997E+02  0.45594000000E+02  0.51100000000E-03 0. -1.
    9900012    2    1    2    0    0 -0.76672367658E+01 -0.22417053776E+02  0.21340311053E+02  0.59301957670E+02  0.50000024881E+02 0.  0.
         12    1    1    2    0    0  0.76672367658E+01  0.22417053776E+02 -0.21340311053E+02  0.31886042330E+02  0.00000000000E+00 0. -1.
         11    1    3    3    0    0  0.11685146240E+02 -0.64073332859E+01 -0.43101286914E+01  0.14006204771E+02  0.51100000000E-03 0. -1.
        -11    1    3    3    0    0 -0.18383307841E+02 -0.16422121612E+02  0.31134589169E+02  0.39711392929E+02  0.51100000000E-03 0.  1.
         12    1    3    3    0    0 -0.96907516496E+00  0.41240112213E+00 -0.54841494244E+01  0.55843599696E+01  0.00000000000E+00 0. -1.
</event>
<event>
 7    1  0.4237994E-013  0.5930193E+02  0.7816164E-02  0.1266605E+00
        -11   -1    0    0    0    0  0.00000000000E+00  0.00000000000E+00  0.45593999997E+02  0.45594000000E+02  0.51100000000E-03 0.  1.
         11   -1    0    0    0    0 -0.00000000000E+00 -0.00000000000E+00 -0.45593999997E+02  0.45594000000E+02  0.51100000000E-03 0. -1.
    9900012    2    1    2    0    0 -0.87994452727E+01 -0.22864945769E+02  0.20407976398E+02  0.59301929644E+02  0.49999973767E+02 0.  0.
         12    1    1    2    0    0  0.87994452727E+01  0.22864945769E+02 -0.20407976398E+02  0.31886070356E+02  0.00000000000E+00 0. -1.
         11    1    3    3    0    0  0.21741891073E+00  0.23164944190E+01  0.50968124683E+01  0.56027595857E+01  0.51100000000E-03 0. -1.
        -11    1    3    3    0    0  0.14062243285E+02 -0.24078251518E+02  0.12005111763E+02  0.30358385844E+02  0.51100000000E-03 0.  1.
        -12    1    3    3    0    0 -0.23079107469E+02 -0.11031886698E+01  0.33060521670E+01  0.23340784214E+02  0.00000000000E+00 0.  1.
</event>
<event>
 7    1  0.4237994E-013  0.5930192E+02  0.7816164E-02  0.1266605E+00
        -11   -1    0    0    0    0  0.00000000000E+00  0.00000000000E+00  0.45593999997E+02  0.45594000000E+02  0.51100000000E-03 0. -1.
         11   -1    0    0    0    0 -0.00000000000E+00 -0.00000000000E+00 -0.45593999997E+02  0.45594000000E+02  0.51100000000E-03 0.  1.
    9900012    2    1    2    0    0 -0.17415082178E+02 -0.26710013466E+02  0.11148097610E+00  0.59301916286E+02  0.49999949406E+02 0.  0.
         12    1    1    2    0    0  0.17415082178E+02  0.26710013466E+02 -0.11148097610E+00  0.31886083714E+02  0.00000000000E+00 0. -1.
         11    1    3    3    0    0 -0.14501432808E+02 -0.25277236372E+02 -0.98633089577E+01  0.30765485466E+02  0.51100000000E-03 0. -1.
        -11    1    3    3    0    0 -0.68447622533E+00  0.11271063313E+02 -0.13500656626E+01  0.11372249271E+02  0.51100000000E-03 0.  1.
         12    1    3    3    0    0 -0.22291731441E+01 -0.12703840407E+02  0.11324855596E+02  0.17164181550E+02  0.00000000000E+00 0. -1.
</event>
<event>
 7    1  0.4237994E-013  0.5930195E+02  0.7816164E-02  0.1266605E+00
        -11   -1    0    0    0    0  0.00000000000E+00  0.00000000000E+00  0.45593999997E+02  0.45594000000E+02  0.51100000000E-03 0.  1.
         11   -1    0    0    0    0 -0.00000000000E+00 -0.00000000000E+00 -0.45593999997E+02  0.45594000000E+02  0.51100000000E-03 0. -1.
    9900012    2    1    2    0    0  0.99643388726E+01  0.28590616325E+01  0.30153908609E+02  0.59301945258E+02  0.50000002244E+02 0.  0.
         12    1    1    2    0    0 -0.99643388726E+01 -0.28590616325E+01 -0.30153908609E+02  0.31886054742E+02  0.00000000000E+00 0. -1.
         11    1    3    3    0    0  0.13786720540E+02 -0.14002483173E+02  0.15338175865E+02  0.24927952932E+02  0.51100000000E-03 0. -1.
        -11    1    3    3    0    0  0.80573910692E+00  0.22817231433E+02  0.14013183649E+02  0.26788889152E+02  0.51100000000E-03 0.  1.
         12    1    3    3    0    0 -0.46281207744E+01 -0.59556866277E+01  0.80254909560E+00  0.75851031740E+01  0.00000000000E+00 0. -1.
</event>
<event>
 7    1  0.4237994E-013  0.5930194E+02  0.7816164E-02  0.1266605E+00
        -11   -1    0    0    0    0  0.00000000000E+00  0.00000000000E+00  0.45593999997E+02  0.45594000000E+02  0.51100000000E-03 0.  1.
         11   -1    0    0    0    0 -0.00000000000E+00 -0.00000000000E+00 -0.45593999997E+02  0.45594000000E+02  0.51100000000E-03 0. -1.
    9900012    2    1    2    0    0 -0.11452573224E+02 -0.21686544950E+02  0.20377764452E+02  0.59301938007E+02  0.49999989020E+02 0.  0.
         12    1    1    2    0    0  0.11452573224E+02  0.21686544950E+02 -0.20377764452E+02  0.31886061993E+02  0.00000000000E+00 0. -1.
         11    1    3    3    0    0  0.60288534212E+01  0.74463328442E+01  0.23379974531E+01  0.98621082306E+01  0.51100000000E-03 0.  1.
        -11    1    3    3    0    0 -0.23215667430E+02 -0.31904755164E+02  0.13855722196E+02  0.41819393277E+02  0.51100000000E-03 0. -1.
         12    1    3    3    0    0  0.57342407844E+01  0.27718773693E+01  0.41840448033E+01  0.76204364994E+01  0.00000000000E+00 0. -1.
</event>
<event>
 7    1  0.4237994E-013  0.5930169E+02  0.7816164E-02  0.1266606E+00
        -11   -1    0    0    0    0  0.00000000000E+00  0.00000000000E+00  0.45593999997E+02  0.45594000000E+02  0.51100000000E-03 0. -1.
         11   -1    0    0    0    0 -0.00000000000E+00 -0.00000000000E+00 -0.45593999997E+02  0.45594000000E+02  0.51100000000E-03 0.  1.
    9900012    2    1    2    0    0  0.13392059886E+01 -0.23962096857E+02 -0.20994320539E+02  0.59301685485E+02  0.49999528479E+02 0.  0.
         12    1    1    2    0    0 -0.13392059886E+01  0.23962096857E+02  0.20994320539E+02  0.31886314515E+02  0.00000000000E+00 0. -1.
         11    1    3    3    0    0 -0.12157689942E+01 -0.39277318140E+01  0.28775480202E+01  0.50185111657E+01  0.51100000000E-03 0. -1.
        -11    1    3    3    0    0 -0.12457100684E+02  0.68677801941E+01 -0.17964931604E+02  0.22914722998E+02  0.51100000000E-03 0.  1.
        -12    1    3    3    0    0  0.15012075667E+02 -0.26902145237E+02 -0.59069369545E+01  0.31368451322E+02  0.00000000000E+00 0.  1.
</event>
<event>
 7    1  0.4237994E-013  0.5930194E+02  0.7816164E-02  0.1266605E+00
        -11   -1    0    0    0    0  0.00000000000E+00  0.00000000000E+00  0.45593999997E+02  0.45594000000E+02  0.51100000000E-03 0.  1.
         11   -1    0    0    0    0 -0.00000000000E+00 -0.00000000000E+00 -0.45593999997E+02  0.45594000000E+02  0.51100000000E-03 0. -1.
    9900012    2    1    2    0    0  0.22448834543E+02  0.98737795901E+01  0.20378392544E+02  0.59301943825E+02  0.49999999631E+02 0.  0.
         12    1    1    2    0    0 -0.22448834543E+02 -0.98737795901E+01 -0.20378392544E+02  0.31886056175E+02  0.00000000000E+00 0. -1.
         11    1    3    3    0    0 -0.13491382409E+01  0.13162384282E+02  0.34028263686E+00  0.13235721609E+02  0.51100000000E-03 0. -1.
        -11    1    3    3    0    0  0.32235791226E+02 -0.17094595163E+01  0.12416410103E+02  0.34586640888E+02  0.51100000000E-03 0.  1.
        -12    1    3    3    0    0 -0.84378184430E+01 -0.15791451757E+01  0.76216998037E+01  0.11479581328E+02  0.00000000000E+00 0.  1.
</event>
<event>
 7    1  0.4237994E-013  0.5930196E+02  0.7816164E-02  0.1266605E+00
        -11   -1    0    0    0    0  0.00000000000E+00  0.00000000000E+00  0.45593999997E+02  0.45594000000E+02  0.51100000000E-03 0.  1.
         11   -1    0    0    0    0 -0.00000000000E+00 -0.00000000000E+00 -0.45593999997E+02  0.45594000000E+02  0.51100000000E-03 0. -1.
    9900012    2    1    2    0    0 -0.17582490924E+02 -0.26140675448E+02 -0.49235102256E+01  0.59301955201E+02  0.50000020377E+02 0.  0.
         12    1    1    2    0    0  0.17582490924E+02  0.26140675448E+02  0.49235102256E+01  0.31886044799E+02  0.00000000000E+00 0. -1.
         11    1    3    3    0    0  0.12353246582E+02 -0.15741279545E+02 -0.12538933774E+02  0.23613882427E+02  0.51100000000E-03 0. -1.
        -11    1    3    3    0    0 -0.70426290754E+01 -0.34116713545E+01 -0.43230440328E+01  0.89401809655E+01  0.51100000000E-03 0.  1.
         12    1    3    3    0    0 -0.22893108431E+02 -0.69877245487E+01  0.11938467581E+02  0.26747891809E+02  0.00000000000E+00 0. -1.
</event>
<event>
 7    1  0.4237994E-013  0.5930195E+02  0.7816164E-02  0.1266605E+00
        -11   -1    0    0    0    0  0.00000000000E+00  0.00000000000E+00  0.45593999997E+02  0.45594000000E+02  0.51100000000E-03 0.  1.
         11   -1    0    0    0    0 -0.00000000000E+00 -0.00000000000E+00 -0.45593999997E+02  0.45594000000E+02  0.51100000000E-03 0. -1.
    9900012    2    1    2    0    0  0.16690924627E+02  0.25649153345E+02  0.89584679442E+01  0.59301950070E+02  0.50000011020E+02 0.  0.
         12    1    1    2    0    0 -0.16690924627E+02 -0.25649153345E+02 -0.89584679442E+01  0.31886049930E+02  0.00000000000E+00 0. -1.
         11    1    3    3    0    0  0.13143144363E+02  0.66566193090E+01 -0.12871520981E+02  0.19563457696E+02  0.51100000000E-03 0. -1.
        -11    1    3    3    0    0  0.42455332284E+01  0.67922080814E+01  0.25700618545E+02  0.26919889243E+02  0.51100000000E-03 0.  1.
        -12    1    3    3    0    0 -0.69775296477E+00  0.12200325954E+02 -0.38706296193E+01  0.12818603131E+02  0.00000000000E+00 0.  1.
</event>
<event>
 7    1  0.4237994E-013  0.5930196E+02  0.7816164E-02  0.1266605E+00
        -11   -1    0    0    0    0  0.00000000000E+00  0.00000000000E+00  0.45593999997E+02  0.45594000000E+02  0.51100000000E-03 0.  1.
         11   -1    0    0    0    0 -0.00000000000E+00 -0.00000000000E+00 -0.45593999997E+02  0.45594000000E+02  0.51100000000E-03 0. -1.
    9900012    2    1    2    0    0 -0.27876168362E+02  0.15424796743E+02  0.13092413009E+01  0.59301964971E+02  0.50000038195E+02 0.  0.
         12    1    1    2    0    0  0.27876168362E+02 -0.15424796743E+02 -0.13092413009E+01  0.31886035029E+02  0.00000000000E+00 0. -1.
         11    1    3    3    0    0 -0.81886464008E+00  0.15575750086E+02 -0.14563175864E+02  0.21339180433E+02  0.51100000000E-03 0. -1.
        -11    1    3    3    0    0 -0.30591384891E+02  0.10441221193E+01  0.13004583974E+02  0.33257213130E+02  0.51100000000E-03 0.  1.
        -12    1    3    3    0    0  0.35340811691E+01 -0.11950754622E+01  0.28678331908E+01  0.47055714085E+01  0.00000000000E+00 0.  1.
</event>
<event>
 7    1  0.4237994E-013  0.5930196E+02  0.7816164E-02  0.1266605E+00
        -11   -1    0    0    0    0  0.00000000000E+00  0.00000000000E+00  0.45593999997E+02  0.45594000000E+02  0.51100000000E-03 0.  1.
         11   -1    0    0    0    0 -0.00000000000E+00 -0.00000000000E+00 -0.45593999997E+02  0.45594000000E+02  0.51100000000E-03 0. -1.
    9900012    2    1    2    0    0 -0.21363709318E+02 -0.18245757134E+01  0.23600476102E+02  0.59301958781E+02  0.50000026907E+02 0.  0.
         12    1    1    2    0    0  0.21363709318E+02  0.18245757134E+01 -0.23600476102E+02  0.31886041219E+02  0.00000000000E+00 0. -1.
         11    1    3    3    0    0 -0.11800460746E+02 -0.12825329056E+02  0.21389414525E+02  0.27590704833E+02  0.51100000000E-03 0. -1.
        -11    1    3    3    0    0 -0.19229789482E+01  0.17621987189E+02  0.86503661511E+01  0.19724632198E+02  0.51100000000E-03 0.  1.
         12    1    3    3    0    0 -0.76402696247E+01 -0.66212338464E+01 -0.64393045741E+01  0.11986621750E+02  0.00000000000E+00 0. -1.
</event>
<event>
 7    1  0.4237994E-013  0.5930186E+02  0.7816164E-02  0.1266605E+00
        -11   -1    0    0    0    0  0.00000000000E+00  0.00000000000E+00  0.45593999997E+02  0.45594000000E+02  0.51100000000E-03 0. -1.
         11   -1    0    0    0    0 -0.00000000000E+00 -0.00000000000E+00 -0.45593999997E+02  0.45594000000E+02  0.51100000000E-03 0.  1.
    9900012    2    1    2    0    0 -0.70211025254E+01 -0.20137063058E+02 -0.23705031597E+02  0.59301863321E+02  0.49999852810E+02 0.  0.
         12    1    1    2    0    0  0.70211025254E+01  0.20137063058E+02  0.23705031597E+02  0.31886136679E+02  0.00000000000E+00 0. -1.
         11    1    3    3    0    0 -0.20528105405E+02  0.77139238161E+01 -0.43707913745E+01  0.22360938032E+02  0.51100000000E-03 0. -1.
        -11    1    3    3    0    0  0.10263649678E+02 -0.25006165972E+02 -0.17786279150E+02  0.32357419050E+02  0.51100000000E-03 0.  1.
         12    1    3    3    0    0  0.32433532016E+01 -0.28448209022E+01 -0.15479610731E+01  0.45835062386E+01  0.00000000000E+00 0. -1.
</event>
<event>
 7    1  0.4237994E-013  0.5930175E+02  0.7816164E-02  0.1266605E+00
        -11   -1    0    0    0    0  0.00000000000E+00  0.00000000000E+00  0.45593999997E+02  0.45594000000E+02  0.51100000000E-03 0. -1.
         11   -1    0    0    0    0 -0.00000000000E+00 -0.00000000000E+00 -0.45593999997E+02  0.45594000000E+02  0.51100000000E-03 0.  1.
    9900012    2    1    2    0    0  0.85246321147E+01  0.26634633846E+02  0.15318602787E+02  0.59301754311E+02  0.49999654000E+02 0.  0.
         12    1    1    2    0    0 -0.85246321147E+01 -0.26634633846E+02 -0.15318602787E+02  0.31886245689E+02  0.00000000000E+00 0. -1.
         11    1    3    3    0    0  0.22463278463E+02  0.11525473833E+02  0.26174414757E+00  0.25248840303E+02  0.51100000000E-03 0. -1.
        -11    1    3    3    0    0 -0.87060697866E+01 -0.35655542274E+01 -0.14819754676E+00  0.94090802341E+01  0.51100000000E-03 0.  1.
        -12    1    3    3    0    0 -0.52325765616E+01  0.18674714240E+02  0.15205056187E+02  0.24643833774E+02  0.00000000000E+00 0.  1.
</event>
<event>
 7    1  0.4237994E-013  0.5930194E+02  0.7816164E-02  0.1266605E+00
        -11   -1    0    0    0    0  0.00000000000E+00  0.00000000000E+00  0.45593999997E+02  0.45594000000E+02  0.51100000000E-03 0.  1.
         11   -1    0    0    0    0 -0.00000000000E+00 -0.00000000000E+00 -0.45593999997E+02  0.45594000000E+02  0.51100000000E-03 0. -1.
    9900012    2    1    2    0    0 -0.60913246689E+01 -0.17135750175E+01  0.31251886836E+02  0.59301937114E+02  0.49999987391E+02 0.  0.
         12    1    1    2    0    0  0.60913246689E+01  0.17135750175E+01 -0.31251886836E+02  0.31886062886E+02  0.00000000000E+00 0. -1.
         11    1    3    3    0    0  0.76864198473E+01 -0.22278421228E+01  0.15320086600E+02  0.17284368206E+02  0.51100000000E-03 0. -1.
        -11    1    3    3    0    0 -0.13445962093E+02  0.16814584070E+02  0.13805780580E+02  0.25575842347E+02  0.51100000000E-03 0.  1.
        -12    1    3    3    0    0 -0.33178242276E+00 -0.16300316965E+02  0.21260196568E+01  0.16441726561E+02  0.00000000000E+00 0.  1.
</event>
<event>
 7    1  0.4237994E-013  0.5930195E+02  0.7816164E-02  0.1266605E+00
        -11   -1    0    0    0    0  0.00000000000E+00  0.00000000000E+00  0.45593999997E+02  0.45594000000E+02  0.51100000000E-03 0.  1.
         11   -1    0    0    0    0 -0.00000000000E+00 -0.00000000000E+00 -0.45593999997E+02  0.45594000000E+02  0.51100000000E-03 0. -1.
    9900012    2    1    2    0    0 -0.12159974039E+01 -0.36425477451E+01  0.31653958469E+02  0.59301954612E+02  0.50000019303E+02 0.  0.
         12    1    1    2    0    0  0.12159974039E+01  0.36425477451E+01 -0.31653958469E+02  0.31886045388E+02  0.00000000000E+00 0. -1.
         11    1    3    3    0    0 -0.75667014192E+01 -0.13044674843E+02  0.96560033869E+01  0.17906895705E+02  0.51100000000E-03 0. -1.
        -11    1    3    3    0    0  0.10352870481E+02  0.22231142409E+01  0.28826214130E+02  0.30709522717E+02  0.51100000000E-03 0.  1.
        -12    1    3    3    0    0 -0.40021664660E+01  0.71790128572E+01 -0.68282590487E+01  0.10685536190E+02  0.00000000000E+00 0.  1.
</event>
<event>
 7    1  0.4237994E-013  0.5930195E+02  0.7816164E-02  0.1266605E+00
        -11   -1    0    0    0    0  0.00000000000E+00  0.00000000000E+00  0.45593999997E+02  0.45594000000E+02  0.51100000000E-03 0. -1.
         11   -1    0    0    0    0 -0.00000000000E+00 -0.00000000000E+00 -0.45593999997E+02  0.45594000000E+02  0.51100000000E-03 0.  1.
    9900012    2    1    2    0    0 -0.13977347525E+02 -0.28658653440E+02  0.18796865973E+00  0.59301953004E+02  0.50000016370E+02 0.  0.
         12    1    1    2    0    0  0.13977347525E+02  0.28658653440E+02 -0.18796865973E+00  0.31886046996E+02  0.00000000000E+00 0. -1.
         11    1    3    3    0    0 -0.25532009774E+02 -0.15482675648E+01 -0.10813502473E+02  0.27770712838E+02  0.51100000000E-03 0. -1.
        -11    1    3    3    0    0  0.10768942424E+02 -0.23590617690E+02  0.93737902254E+01  0.27574540928E+02  0.51100000000E-03 0.  1.
         12    1    3    3    0    0  0.78571982562E+00 -0.35197681851E+01  0.16276809073E+01  0.39566992377E+01  0.00000000000E+00 0. -1.
</event>
<event>
 7    1  0.4237994E-013  0.5930195E+02  0.7816164E-02  0.1266605E+00
        -11   -1    0    0    0    0  0.00000000000E+00  0.00000000000E+00  0.45593999997E+02  0.45594000000E+02  0.51100000000E-03 0. -1.
         11   -1    0    0    0    0 -0.00000000000E+00 -0.00000000000E+00 -0.45593999997E+02  0.45594000000E+02  0.51100000000E-03 0.  1.
    9900012    2    1    2    0    0 -0.31346818834E+02  0.55406115347E+01 -0.18434977533E+01  0.59301954288E+02  0.50000018712E+02 0.  0.
         12    1    1    2    0    0  0.31346818834E+02 -0.55406115347E+01  0.18434977533E+01  0.31886045712E+02  0.00000000000E+00 0. -1.
         11    1    3    3    0    0 -0.26049706984E+02  0.41016836292E+01 -0.22544793179E+02  0.34694073590E+02  0.51100000000E-03 0. -1.
        -11    1    3    3    0    0  0.34746668290E+01  0.18030916009E+01  0.33108268878E+01  0.51269897441E+01  0.51100000000E-03 0.  1.
         12    1    3    3    0    0 -0.87717786785E+01 -0.36416369540E+00  0.17390468538E+02  0.19480890953E+02  0.00000000000E+00 0. -1.
</event>
<event>
 7    1  0.4237994E-013  0.5930194E+02  0.7816164E-02  0.1266605E+00
        -11   -1    0    0    0    0  0.00000000000E+00  0.00000000000E+00  0.45593999997E+02  0.45594000000E+02  0.51100000000E-03 0.  1.
         11   -1    0    0    0    0 -0.00000000000E+00 -0.00000000000E+00 -0.45593999997E+02  0.45594000000E+02  0.51100000000E-03 0. -1.
    9900012    2    1    2    0    0  0.23274841681E+02  0.21767016671E+02  0.10953778331E+01  0.59301935291E+02  0.49999984066E+02 0.  0.
         12    1    1    2    0    0 -0.23274841681E+02 -0.21767016671E+02 -0.10953778331E+01  0.31886064709E+02  0.00000000000E+00 0. -1.
         11    1    3    3    0    0  0.28811752987E+00 -0.22556592848E+01 -0.11084355013E+02  0.11315208210E+02  0.51100000000E-03 0. -1.
        -11    1    3    3    0    0  0.12656444355E+02  0.30491736613E+01  0.19536759158E+02  0.23476967487E+02  0.51100000000E-03 0.  1.
        -12    1    3    3    0    0  0.10330279796E+02  0.20973502295E+02 -0.73570263121E+01  0.24509759594E+02  0.00000000000E+00 0.  1.
</event>
<event>
 7    1  0.4237994E-013  0.5930196E+02  0.7816164E-02  0.1266605E+00
        -11   -1    0    0    0    0  0.00000000000E+00  0.00000000000E+00  0.45593999997E+02  0.45594000000E+02  0.51100000000E-03 0. -1.
         11   -1    0    0    0    0 -0.00000000000E+00 -0.00000000000E+00 -0.45593999997E+02  0.45594000000E+02  0.51100000000E-03 0.  1.
    9900012    2    1    2    0    0 -0.90677362565E+01  0.29026398768E+02 -0.95897945798E+01  0.59301955618E+02  0.50000021138E+02 0.  0.
         12    1    1    2    0    0  0.90677362565E+01 -0.29026398768E+02  0.95897945798E+01  0.31886044382E+02  0.00000000000E+00 0. -1.
         11    1    3    3    0    0 -0.23162152396E+01  0.19628676518E+02  0.10380780428E+02  0.22325106885E+02  0.51100000000E-03 0. -1.
        -11    1    3    3    0    0 -0.14125692289E+02  0.15732465680E+02 -0.15818095376E+02  0.26405639561E+02  0.51100000000E-03 0.  1.
        -12    1    3    3    0    0  0.73741712726E+01 -0.63347434294E+01 -0.41524796321E+01  0.10571209173E+02  0.00000000000E+00 0.  1.
</event>
<event>
 7    1  0.4237994E-013  0.5930195E+02  0.7816164E-02  0.1266605E+00
        -11   -1    0    0    0    0  0.00000000000E+00  0.00000000000E+00  0.45593999997E+02  0.45594000000E+02  0.51100000000E-03 0.  1.
         11   -1    0    0    0    0 -0.00000000000E+00 -0.00000000000E+00 -0.45593999997E+02  0.45594000000E+02  0.51100000000E-03 0. -1.
    9900012    2    1    2    0    0 -0.45644483874E+00 -0.24693998446E+02  0.20167256701E+02  0.59301950637E+02  0.50000012053E+02 0.  0.
         12    1    1    2    0    0  0.45644483874E+00  0.24693998446E+02 -0.20167256701E+02  0.31886049363E+02  0.00000000000E+00 0. -1.
         11    1    3    3    0    0 -0.10460252614E+02 -0.11473881572E+02 -0.10504818037E+02  0.18746147480E+02  0.51100000000E-03 0. -1.
        -11    1    3    3    0    0  0.92402672206E+01 -0.52473413382E+01  0.20344272683E+01  0.10819243227E+02  0.51100000000E-03 0.  1.
         12    1    3    3    0    0  0.76354055436E+00 -0.79727755357E+01  0.28637647469E+02  0.29736559930E+02  0.00000000000E+00 0. -1.
</event>
<event>
 7    1  0.4237994E-013  0.5930194E+02  0.7816164E-02  0.1266605E+00
        -11   -1    0    0    0    0  0.00000000000E+00  0.00000000000E+00  0.45593999997E+02  0.45594000000E+02  0.51100000000E-03 0.  1.
         11   -1    0    0    0    0 -0.00000000000E+00 -0.00000000000E+00 -0.45593999997E+02  0.45594000000E+02  0.51100000000E-03 0. -1.
    9900012    2    1    2    0    0  0.11583714148E+02 -0.28708833163E+02  0.76381629794E+01  0.59301936136E+02  0.49999985607E+02 0.  0.
         12    1    1    2    0    0 -0.11583714148E+02  0.28708833163E+02 -0.76381629794E+01  0.31886063864E+02  0.00000000000E+00 0. -1.
         11    1    3    3    0    0  0.15785280828E+02 -0.30227595675E+02 -0.49760500626E+01  0.34462206917E+02  0.51100000000E-03 0. -1.
        -11    1    3    3    0    0 -0.12758527939E+02  0.10496191674E+01  0.81643548363E+01  0.15183491881E+02  0.51100000000E-03 0.  1.
        -12    1    3    3    0    0  0.85569612587E+01  0.46914334511E+00  0.44498582057E+01  0.96562373372E+01  0.00000000000E+00 0.  1.
</event>
<event>
 7    1  0.4237994E-013  0.5930194E+02  0.7816164E-02  0.1266605E+00
        -11   -1    0    0    0    0  0.00000000000E+00  0.00000000000E+00  0.45593999997E+02  0.45594000000E+02  0.51100000000E-03 0.  1.
         11   -1    0    0    0    0 -0.00000000000E+00 -0.00000000000E+00 -0.45593999997E+02  0.45594000000E+02  0.51100000000E-03 0. -1.
    9900012    2    1    2    0    0  0.17176052602E+02  0.24037150538E+02  0.11996649801E+02  0.59301937285E+02  0.49999987704E+02 0.  0.
         12    1    1    2    0    0 -0.17176052602E+02 -0.24037150538E+02 -0.11996649801E+02  0.31886062715E+02  0.00000000000E+00 0. -1.
         11    1    3    3    0    0  0.94760775069E+01  0.21391247187E+02 -0.11730113190E+02  0.26172066347E+02  0.51100000000E-03 0. -1.
        -11    1    3    3    0    0  0.14789527439E+02  0.26721765072E+00  0.11250864449E+02  0.18584495641E+02  0.51100000000E-03 0.  1.
         12    1    3    3    0    0 -0.70895523437E+01  0.23786857002E+01  0.12475898542E+02  0.14545375297E+02  0.00000000000E+00 0. -1.
</event>
<event>
 7    1  0.4237994E-013  0.5930195E+02  0.7816164E-02  0.1266605E+00
        -11   -1    0    0    0    0  0.00000000000E+00  0.00000000000E+00  0.45593999997E+02  0.45594000000E+02  0.51100000000E-03 0.  1.
         11   -1    0    0    0    0 -0.00000000000E+00 -0.00000000000E+00 -0.45593999997E+02  0.45594000000E+02  0.51100000000E-03 0. -1.
    9900012    2    1    2    0    0 -0.10306345191E+02 -0.19657573595E+02  0.22892771986E+02  0.59301953521E+02  0.50000017313E+02 0.  0.
         12    1    1    2    0    0  0.10306345191E+02  0.19657573595E+02 -0.22892771986E+02  0.31886046479E+02  0.00000000000E+00 0. -1.
         11    1    3    3    0    0  0.40147468156E+01 -0.13336473332E+02 -0.68968517739E+01  0.15541759154E+02  0.51100000000E-03 0. -1.
        -11    1    3    3    0    0  0.94933671983E+00  0.94811734129E+01  0.12935589625E+02  0.16066218245E+02  0.51100000000E-03 0.  1.
         12    1    3    3    0    0 -0.15270428727E+02 -0.15802273676E+02  0.16854034135E+02  0.27693976122E+02  0.00000000000E+00 0. -1.
</event>
<event>
 7    1  0.4237994E-013  0.5930195E+02  0.7816164E-02  0.1266605E+00
        -11   -1    0    0    0    0  0.00000000000E+00  0.00000000000E+00  0.45593999997E+02  0.45594000000E+02  0.51100000000E-03 0.  1.
         11   -1    0    0    0    0 -0.00000000000E+00 -0.00000000000E+00 -0.45593999997E+02  0.45594000000E+02  0.51100000000E-03 0. -1.
    9900012    2    1    2    0    0  0.22181422086E+02 -0.14623685084E+02  0.17631015916E+02  0.59301947039E+02  0.50000005492E+02 0.  0.
         12    1    1    2    0    0 -0.22181422086E+02  0.14623685084E+02 -0.17631015916E+02  0.31886052961E+02  0.00000000000E+00 0. -1.
         11    1    3    3    0    0 -0.53255851728E+01 -0.61697574279E+00  0.17947374154E+01  0.56536359231E+01  0.51100000000E-03 0. -1.
        -11    1    3    3    0    0  0.37391318189E+02 -0.16680093907E+02  0.11491351395E+02  0.42525138046E+02  0.51100000000E-03 0.  1.
        -12    1    3    3    0    0 -0.98843109298E+01  0.26733845662E+01  0.43449271059E+01  0.11123173070E+02  0.00000000000E+00 0.  1.
</event>
<event>
 7    1  0.4237994E-013  0.5930196E+02  0.7816164E-02  0.1266605E+00
        -11   -1    0    0    0    0  0.00000000000E+00  0.00000000000E+00  0.45593999997E+02  0.45594000000E+02  0.51100000000E-03 0.  1.
         11   -1    0    0    0    0 -0.00000000000E+00 -0.00000000000E+00 -0.45593999997E+02  0.45594000000E+02  0.51100000000E-03 0. -1.
    9900012    2    1    2    0    0  0.39374918217E+01  0.10019162981E+02  0.30013859560E+02  0.59301964900E+02  0.50000038066E+02 0.  0.
         12    1    1    2    0    0 -0.39374918217E+01 -0.10019162981E+02 -0.30013859560E+02  0.31886035100E+02  0.00000000000E+00 0. -1.
         11    1    3    3    0    0 -0.80754932993E+01 -0.38761016450E+01  0.38183818991E+01  0.97374430205E+01  0.51100000000E-03 0. -1.
        -11    1    3    3    0    0  0.25041661327E+02  0.12577867719E+02  0.22556023832E+02  0.35973070063E+02  0.51100000000E-03 0.  1.
        -12    1    3    3    0    0 -0.13028676206E+02  0.13173969070E+01  0.36394538295E+01  0.13591451816E+02  0.00000000000E+00 0.  1.
</event>
<event>
 7    1  0.4237994E-013  0.5930197E+02  0.7816164E-02  0.1266605E+00
        -11   -1    0    0    0    0  0.00000000000E+00  0.00000000000E+00  0.45593999997E+02  0.45594000000E+02  0.51100000000E-03 0.  1.
         11   -1    0    0    0    0 -0.00000000000E+00 -0.00000000000E+00 -0.45593999997E+02  0.45594000000E+02  0.51100000000E-03 0. -1.
    9900012    2    1    2    0    0  0.10370253855E+02  0.29111822405E+02  0.78535783206E+01  0.59301967617E+02  0.50000043020E+02 0.  0.
         12    1    1    2    0    0 -0.10370253855E+02 -0.29111822405E+02 -0.78535783206E+01  0.31886032383E+02  0.00000000000E+00 0. -1.
         11    1    3    3    0    0 -0.16249682240E+02 -0.10163159797E+01  0.92458042127E+01  0.18723513742E+02  0.51100000000E-03 0. -1.
        -11    1    3    3    0    0  0.54955643993E+01  0.92131874455E+01 -0.16299604756E+01  0.10850844317E+02  0.51100000000E-03 0.  1.
         12    1    3    3    0    0  0.21124371695E+02  0.20914950939E+02  0.23773458343E+00  0.29727609558E+02  0.00000000000E+00 0. -1.
</event>
<event>
 7    1  0.4237994E-013  0.5930195E+02  0.7816164E-02  0.1266605E+00
        -11   -1    0    0    0    0  0.00000000000E+00  0.00000000000E+00  0.45593999997E+02  0.45594000000E+02  0.51100000000E-03 0.  1.
         11   -1    0    0    0    0 -0.00000000000E+00 -0.00000000000E+00 -0.45593999997E+02  0.45594000000E+02  0.51100000000E-03 0. -1.
    9900012    2    1    2    0    0 -0.28263869154E+01 -0.30942474012E+02  0.71620467645E+01  0.59301951721E+02  0.50000014031E+02 0.  0.
         12    1    1    2    0    0  0.28263869154E+01  0.30942474012E+02 -0.71620467645E+01  0.31886048279E+02  0.00000000000E+00 0. -1.
         11    1    3    3    0    0 -0.10538623624E+02  0.18256875627E-01  0.14191194452E+02  0.17676337897E+02  0.51100000000E-03 0. -1.
        -11    1    3    3    0    0  0.36083609671E+01 -0.83314803612E+01 -0.14788811598E+02  0.17353466011E+02  0.51100000000E-03 0.  1.
        -12    1    3    3    0    0  0.41038757411E+01 -0.22629250526E+02  0.77596639097E+01  0.24272147813E+02  0.00000000000E+00 0.  1.
</event>
<event>
 7    1  0.4237994E-013  0.5930196E+02  0.7816164E-02  0.1266605E+00
        -11   -1    0    0    0    0  0.00000000000E+00  0.00000000000E+00  0.45593999997E+02  0.45594000000E+02  0.51100000000E-03 0. -1.
         11   -1    0    0    0    0 -0.00000000000E+00 -0.00000000000E+00 -0.45593999997E+02  0.45594000000E+02  0.51100000000E-03 0.  1.
    9900012    2    1    2    0    0 -0.61317941265E+01  0.16543569160E+02  0.26559954796E+02  0.59301956368E+02  0.50000022506E+02 0.  0.
         12    1    1    2    0    0  0.61317941265E+01 -0.16543569160E+02 -0.26559954796E+02  0.31886043632E+02  0.00000000000E+00 0. -1.
         11    1    3    3    0    0 -0.16360328477E+02 -0.18879878768E+01  0.29679240035E+02  0.33942335444E+02  0.51100000000E-03 0. -1.
        -11    1    3    3    0    0  0.90324415826E+01  0.20245887038E+02 -0.80355720877E+00  0.22183927681E+02  0.51100000000E-03 0.  1.
        -12    1    3    3    0    0  0.11960927675E+01 -0.18143300017E+01 -0.23157280306E+01  0.31756932432E+01  0.00000000000E+00 0.  1.
</event>
<event>
 7    1  0.4237994E-013  0.5930200E+02  0.7816164E-02  0.1266605E+00
        -11   -1    0    0    0    0  0.00000000000E+00  0.00000000000E+00  0.45593999997E+02  0.45594000000E+02  0.51100000000E-03 0.  1.
         11   -1    0    0    0    0 -0.00000000000E+00 -0.00000000000E+00 -0.45593999997E+02  0.45594000000E+02  0.51100000000E-03 0. -1.
    9900012    2    1    2    0    0  0.23222583185E+02 -0.75840505541E+00  0.21836979760E+02  0.59301996283E+02  0.50000095301E+02 0.  0.
         12    1    1    2    0    0 -0.23222583185E+02  0.75840505541E+00 -0.21836979760E+02  0.31886003717E+02  0.00000000000E+00 0. -1.
         11    1    3    3    0    0  0.29302936241E+00 -0.20044084561E+02  0.52520598623E+01  0.20722821361E+02  0.51100000000E-03 0. -1.
        -11    1    3    3    0    0  0.25365408466E+02  0.19106894981E+02  0.17122234538E+02  0.36078363299E+02  0.51100000000E-03 0.  1.
        -12    1    3    3    0    0 -0.24358546434E+01  0.17878452457E+00 -0.53731464051E+00  0.25008116228E+01  0.00000000000E+00 0.  1.
</event>
<event>
 7    1  0.4237994E-013  0.5930196E+02  0.7816164E-02  0.1266605E+00
        -11   -1    0    0    0    0  0.00000000000E+00  0.00000000000E+00  0.45593999997E+02  0.45594000000E+02  0.51100000000E-03 0. -1.
         11   -1    0    0    0    0 -0.00000000000E+00 -0.00000000000E+00 -0.45593999997E+02  0.45594000000E+02  0.51100000000E-03 0.  1.
    9900012    2    1    2    0    0 -0.11432931201E+02 -0.27587840984E+02 -0.11176714861E+02  0.59301955386E+02  0.50000020716E+02 0.  0.
         12    1    1    2    0    0  0.11432931201E+02  0.27587840984E+02  0.11176714861E+02  0.31886044614E+02  0.00000000000E+00 0. -1.
         11    1    3    3    0    0 -0.17706579044E+02 -0.33570917249E+02 -0.17527962335E+02  0.41806206361E+02  0.51100000000E-03 0. -1.
        -11    1    3    3    0    0  0.61881779404E+01 -0.24042257849E+00 -0.24973131408E+01  0.66774188444E+01  0.51100000000E-03 0.  1.
         12    1    3    3    0    0  0.85469903117E-01  0.62234988430E+01  0.88485606153E+01  0.10818330182E+02  0.00000000000E+00 0. -1.
</event>
<event>
 7    1  0.4237994E-013  0.5930197E+02  0.7816164E-02  0.1266605E+00
        -11   -1    0    0    0    0  0.00000000000E+00  0.00000000000E+00  0.45593999997E+02  0.45594000000E+02  0.51100000000E-03 0.  1.
         11   -1    0    0    0    0 -0.00000000000E+00 -0.00000000000E+00 -0.45593999997E+02  0.45594000000E+02  0.51100000000E-03 0. -1.
    9900012    2    1    2    0    0  0.19720780320E+02 -0.22291816201E+02 -0.11440486694E+02  0.59301968861E+02  0.50000045290E+02 0.  0.
         12    1    1    2    0    0 -0.19720780320E+02  0.22291816201E+02  0.11440486694E+02  0.31886031139E+02  0.00000000000E+00 0. -1.
         11    1    3    3    0    0  0.92294032790E+01 -0.24694349643E+02 -0.23108675592E+02  0.35057148729E+02  0.51100000000E-03 0. -1.
        -11    1    3    3    0    0  0.33713700243E+01  0.10071169426E+02  0.43573208842E+01  0.11479583398E+02  0.51100000000E-03 0.  1.
         12    1    3    3    0    0  0.71200070168E+01 -0.76686359839E+01  0.73108680130E+01  0.12765236734E+02  0.00000000000E+00 0. -1.
</event>
<event>
 7    1  0.4237994E-013  0.5930200E+02  0.7816164E-02  0.1266605E+00
        -11   -1    0    0    0    0  0.00000000000E+00  0.00000000000E+00  0.45593999997E+02  0.45594000000E+02  0.51100000000E-03 0.  1.
         11   -1    0    0    0    0 -0.00000000000E+00 -0.00000000000E+00 -0.45593999997E+02  0.45594000000E+02  0.51100000000E-03 0. -1.
    9900012    2    1    2    0    0 -0.18671394348E+02 -0.70026142816E+01  0.24880909056E+02  0.59301996658E+02  0.50000095985E+02 0.  0.
         12    1    1    2    0    0  0.18671394348E+02  0.70026142816E+01 -0.24880909056E+02  0.31886003342E+02  0.00000000000E+00 0. -1.
         11    1    3    3    0    0  0.71531772099E+01  0.55640014717E+00  0.23501832715E+02  0.24572620263E+02  0.51100000000E-03 0. -1.
        -11    1    3    3    0    0 -0.15648450711E+02 -0.12380274651E+02  0.81903859616E+01  0.21569136110E+02  0.51100000000E-03 0.  1.
         12    1    3    3    0    0 -0.10176120847E+02  0.48212602219E+01 -0.68113096212E+01  0.13160240285E+02  0.00000000000E+00 0. -1.
</event>
<event>
 7    1  0.4237994E-013  0.5930194E+02  0.7816164E-02  0.1266605E+00
        -11   -1    0    0    0    0  0.00000000000E+00  0.00000000000E+00  0.45593999997E+02  0.45594000000E+02  0.51100000000E-03 0.  1.
         11   -1    0    0    0    0 -0.00000000000E+00 -0.00000000000E+00 -0.45593999997E+02  0.45594000000E+02  0.51100000000E-03 0. -1.
    9900012    2    1    2    0    0  0.27897182279E+02 -0.14579136014E+02  0.50908711644E+01  0.59301937916E+02  0.49999988854E+02 0.  0.
         12    1    1    2    0    0 -0.27897182279E+02  0.14579136014E+02 -0.50908711644E+01  0.31886062084E+02  0.00000000000E+00 0. -1.
         11    1    3    3    0    0  0.21875100528E+02  0.70712306443E+01 -0.95413244054E+01  0.24890946097E+02  0.51100000000E-03 0. -1.
        -11    1    3    3    0    0  0.50132301163E-01 -0.22826275841E+02  0.16360286044E+02  0.28083809245E+02  0.51100000000E-03 0.  1.
        -12    1    3    3    0    0  0.59719494504E+01  0.11759091832E+01 -0.17280904737E+01  0.63271825745E+01  0.00000000000E+00 0.  1.
</event>
<event>
 7    1  0.4237994E-013  0.5930194E+02  0.7816164E-02  0.1266605E+00
        -11   -1    0    0    0    0  0.00000000000E+00  0.00000000000E+00  0.45593999997E+02  0.45594000000E+02  0.51100000000E-03 0.  1.
         11   -1    0    0    0    0 -0.00000000000E+00 -0.00000000000E+00 -0.45593999997E+02  0.45594000000E+02  0.51100000000E-03 0. -1.
    9900012    2    1    2    0    0  0.57434321393E+00  0.16272441139E+02  0.27415296370E+02  0.59301942141E+02  0.49999996559E+02 0.  0.
         12    1    1    2    0    0 -0.57434321393E+00 -0.16272441139E+02 -0.27415296370E+02  0.31886057859E+02  0.00000000000E+00 0. -1.
         11    1    3    3    0    0  0.25414373079E+01  0.17013807308E+02 -0.43167438349E+01  0.17735918930E+02  0.51100000000E-03 0. -1.
        -11    1    3    3    0    0  0.79048222955E+01 -0.63202461750E+01  0.27766241053E+02  0.29553271726E+02  0.51100000000E-03 0.  1.
        -12    1    3    3    0    0 -0.98719163894E+01  0.55788800064E+01  0.39657991522E+01  0.12012751485E+02  0.00000000000E+00 0.  1.
</event>
<event>
 7    1  0.4237994E-013  0.5930195E+02  0.7816164E-02  0.1266605E+00
        -11   -1    0    0    0    0  0.00000000000E+00  0.00000000000E+00  0.45593999997E+02  0.45594000000E+02  0.51100000000E-03 0.  1.
         11   -1    0    0    0    0 -0.00000000000E+00 -0.00000000000E+00 -0.45593999997E+02  0.45594000000E+02  0.51100000000E-03 0. -1.
    9900012    2    1    2    0    0 -0.11903025979E+01  0.31757872243E+02 -0.25963276030E+01  0.59301949968E+02  0.50000010833E+02 0.  0.
         12    1    1    2    0    0  0.11903025979E+01 -0.31757872243E+02  0.25963276030E+01  0.31886050032E+02  0.00000000000E+00 0. -1.
         11    1    3    3    0    0  0.51802472636E+01  0.15064001564E+02 -0.19211085760E+02  0.24956460510E+02  0.51100000000E-03 0. -1.
        -11    1    3    3    0    0 -0.33593918108E+01  0.15877726351E+02  0.22465828630E+02  0.27714638076E+02  0.51100000000E-03 0.  1.
        -12    1    3    3    0    0 -0.30111580507E+01  0.81614432746E+00 -0.58510704729E+01  0.66308513818E+01  0.00000000000E+00 0.  1.
</event>
<event>
 7    1  0.4237994E-013  0.5930197E+02  0.7816164E-02  0.1266605E+00
        -11   -1    0    0    0    0  0.00000000000E+00  0.00000000000E+00  0.45593999997E+02  0.45594000000E+02  0.51100000000E-03 0. -1.
         11   -1    0    0    0    0 -0.00000000000E+00 -0.00000000000E+00 -0.45593999997E+02  0.45594000000E+02  0.51100000000E-03 0.  1.
    9900012    2    1    2    0    0  0.38910793375E+01 -0.22473685088E+01 -0.31567829058E+02  0.59301968653E+02  0.50000044911E+02 0.  0.
         12    1    1    2    0    0 -0.38910793375E+01  0.22473685088E+01  0.31567829058E+02  0.31886031347E+02  0.00000000000E+00 0. -1.
         11    1    3    3    0    0 -0.10500129990E+02  0.13206273219E+02 -0.87005480871E+01  0.18983095623E+02  0.51100000000E-03 0. -1.
        -11    1    3    3    0    0  0.14058414314E+02 -0.29394976655E+01 -0.23765304855E+02  0.27768135960E+02  0.51100000000E-03 0.  1.
         12    1    3    3    0    0  0.33279501315E+00 -0.12514144062E+02  0.89802388429E+00  0.12550737071E+02  0.00000000000E+00 0. -1.
</event>
<event>
 7    1  0.4237994E-013  0.5930197E+02  0.7816164E-02  0.1266605E+00
        -11   -1    0    0    0    0  0.00000000000E+00  0.00000000000E+00  0.45593999997E+02  0.45594000000E+02  0.51100000000E-03 0.  1.
         11   -1    0    0    0    0 -0.00000000000E+00 -0.00000000000E+00 -0.45593999997E+02  0.45594000000E+02  0.51100000000E-03 0. -1.
    9900012    2    1    2    0    0  0.20899566369E+02 -0.10822002086E+02  0.21513046749E+02  0.59301971963E+02  0.50000050947E+02 0.  0.
         12    1    1    2    0    0 -0.20899566369E+02  0.10822002086E+02 -0.21513046749E+02  0.31886028037E+02  0.00000000000E+00 0. -1.
         11    1    3    3    0    0  0.18374007245E+02 -0.54624365488E+01  0.41117218462E+01  0.19604810943E+02  0.51100000000E-03 0. -1.
        -11    1    3    3    0    0 -0.24452799638E+01  0.10040280917E+02 -0.54604873065E+01  0.11687752431E+02  0.51100000000E-03 0.  1.
        -12    1    3    3    0    0  0.49708390880E+01 -0.15399846454E+02  0.22861812209E+02  0.28009408589E+02  0.00000000000E+00 0.  1.
</event>
<event>
 7    1  0.4237994E-013  0.5930194E+02  0.7816164E-02  0.1266605E+00
        -11   -1    0    0    0    0  0.00000000000E+00  0.00000000000E+00  0.45593999997E+02  0.45594000000E+02  0.51100000000E-03 0.  1.
         11   -1    0    0    0    0 -0.00000000000E+00 -0.00000000000E+00 -0.45593999997E+02  0.45594000000E+02  0.51100000000E-03 0. -1.
    9900012    2    1    2    0    0  0.29899691017E+02 -0.11048668920E+02 -0.80998570888E+00  0.59301942159E+02  0.49999996591E+02 0.  0.
         12    1    1    2    0    0 -0.29899691017E+02  0.11048668920E+02  0.80998570888E+00  0.31886057841E+02  0.00000000000E+00 0. -1.
         11    1    3    3    0    0  0.61865195497E+00 -0.63373517331E+01 -0.14778439036E+02  0.16091830779E+02  0.51100000000E-03 0. -1.
        -11    1    3    3    0    0  0.98448303288E+01 -0.14757869572E+02  0.11615836668E+02  0.21204788617E+02  0.51100000000E-03 0.  1.
        -12    1    3    3    0    0  0.19436208733E+02  0.10046552385E+02  0.23526166590E+01  0.22005322763E+02  0.00000000000E+00 0.  1.
</event>
<event>
 7    1  0.4237994E-013  0.5930201E+02  0.7816164E-02  0.1266605E+00
        -11   -1    0    0    0    0  0.00000000000E+00  0.00000000000E+00  0.45593999997E+02  0.45594000000E+02  0.51100000000E-03 0.  1.
         11   -1    0    0    0    0 -0.00000000000E+00 -0.00000000000E+00 -0.45593999997E+02  0.45594000000E+02  0.51100000000E-03 0. -1.
    9900012    2    1    2    0    0  0.15460187151E+02  0.13151674965E+02  0.24591303697E+02  0.59302013130E+02  0.50000126026E+02 0.  0.
         12    1    1    2    0    0 -0.15460187151E+02 -0.13151674965E+02 -0.24591303697E+02  0.31885986870E+02  0.00000000000E+00 0. -1.
         11    1    3    3    0    0 -0.13695513262E+02 -0.24270397737E+01  0.16306738826E+01  0.14004167349E+02  0.51100000000E-03 0. -1.
        -11    1    3    3    0    0  0.26094232328E+02  0.18121682871E+02  0.12560827223E+02  0.34162534034E+02  0.51100000000E-03 0.  1.
        -12    1    3    3    0    0  0.30614680856E+01 -0.25429681316E+01  0.10399802591E+02  0.11135311747E+02  0.00000000000E+00 0.  1.
</event>
<event>
 7    1  0.4237994E-013  0.5930195E+02  0.7816164E-02  0.1266605E+00
        -11   -1    0    0    0    0  0.00000000000E+00  0.00000000000E+00  0.45593999997E+02  0.45594000000E+02  0.51100000000E-03 0.  1.
         11   -1    0    0    0    0 -0.00000000000E+00 -0.00000000000E+00 -0.45593999997E+02  0.45594000000E+02  0.51100000000E-03 0. -1.
    9900012    2    1    2    0    0  0.19244758425E+02  0.13158834413E+02  0.21753262186E+02  0.59301951865E+02  0.50000014293E+02 0.  0.
         12    1    1    2    0    0 -0.19244758425E+02 -0.13158834413E+02 -0.21753262186E+02  0.31886048135E+02  0.00000000000E+00 0. -1.
         11    1    3    3    0    0 -0.93531014732E+00  0.14110944812E+02 -0.36739837142E+01  0.14611356034E+02  0.51100000000E-03 0. -1.
        -11    1    3    3    0    0  0.12506371635E+02  0.60280683340E+01  0.30225247408E+02  0.33261276591E+02  0.51100000000E-03 0.  1.
        -12    1    3    3    0    0  0.76736969375E+01 -0.69801787330E+01 -0.47980015080E+01  0.11429319241E+02  0.00000000000E+00 0.  1.
</event>
<event>
 7    1  0.4237994E-013  0.5930195E+02  0.7816164E-02  0.1266605E+00
        -11   -1    0    0    0    0  0.00000000000E+00  0.00000000000E+00  0.45593999997E+02  0.45594000000E+02  0.51100000000E-03 0.  1.
         11   -1    0    0    0    0 -0.00000000000E+00 -0.00000000000E+00 -0.45593999997E+02  0.45594000000E+02  0.51100000000E-03 0. -1.
    9900012    2    1    2    0    0  0.19959421534E+01  0.30770383606E+02  0.81191061750E+01  0.59301950113E+02  0.50000011098E+02 0.  0.
         12    1    1    2    0    0 -0.19959421534E+01 -0.30770383606E+02 -0.81191061750E+01  0.31886049887E+02  0.00000000000E+00 0. -1.
         11    1    3    3    0    0  0.73332776365E+01 -0.74283451614E+01  0.16798239582E+01  0.10572562675E+02  0.51100000000E-03 0. -1.
        -11    1    3    3    0    0 -0.26362974359E+01  0.29955912763E+02  0.17406839833E+02  0.34746292563E+02  0.51100000000E-03 0.  1.
        -12    1    3    3    0    0 -0.27010380471E+01  0.82428160038E+01 -0.10967557616E+02  0.13983094875E+02  0.00000000000E+00 0.  1.
</event>
<event>
 7    1  0.4237994E-013  0.5930197E+02  0.7816164E-02  0.1266605E+00
        -11   -1    0    0    0    0  0.00000000000E+00  0.00000000000E+00  0.45593999997E+02  0.45594000000E+02  0.51100000000E-03 0.  1.
         11   -1    0    0    0    0 -0.00000000000E+00 -0.00000000000E+00 -0.45593999997E+02  0.45594000000E+02  0.51100000000E-03 0. -1.
    9900012    2    1    2    0    0  0.42495375593E+01 -0.91756661599E+01  0.30240168670E+02  0.59301965124E+02  0.50000038474E+02 0.  0.
         12    1    1    2    0    0 -0.42495375593E+01  0.91756661599E+01 -0.30240168670E+02  0.31886034876E+02  0.00000000000E+00 0. -1.
         11    1    3    3    0    0  0.69017298761E+01  0.64865147114E+01  0.76159951159E+01  0.12153687928E+02  0.51100000000E-03 0. -1.
        -11    1    3    3    0    0 -0.17372449839E+02  0.19100891202E+01  0.14876383481E+02  0.22951192553E+02  0.51100000000E-03 0.  1.
        -12    1    3    3    0    0  0.14720257523E+02 -0.17572269991E+02  0.77477900734E+01  0.24197084643E+02  0.00000000000E+00 0.  1.
</event>
<event>
 7    1  0.4237994E-013  0.5930195E+02  0.7816164E-02  0.1266605E+00
        -11   -1    0    0    0    0  0.00000000000E+00  0.00000000000E+00  0.45593999997E+02  0.45594000000E+02  0.51100000000E-03 0.  1.
         11   -1    0    0    0    0 -0.00000000000E+00 -0.00000000000E+00 -0.45593999997E+02  0.45594000000E+02  0.51100000000E-03 0. -1.
    9900012    2    1    2    0    0  0.21256643517E+02  0.40341591583E+01  0.23422223770E+02  0.59301954462E+02  0.50000019029E+02 0.  0.
         12    1    1    2    0    0 -0.21256643517E+02 -0.40341591583E+01 -0.23422223770E+02  0.31886045538E+02  0.00000000000E+00 0. -1.
         11    1    3    3    0    0  0.11610025928E+02 -0.10896776370E+02 -0.29274133946E+01  0.16189570308E+02  0.51100000000E-03 0. -1.
        -11    1    3    3    0    0  0.19665366884E+02  0.13763591447E+02  0.19408349933E+02  0.30868222359E+02  0.51100000000E-03 0.  1.
         12    1    3    3    0    0 -0.10018749295E+02  0.11673440811E+01  0.69412872318E+01  0.12244161796E+02  0.00000000000E+00 0. -1.
</event>
<event>
 7    1  0.4237994E-013  0.5930196E+02  0.7816164E-02  0.1266605E+00
        -11   -1    0    0    0    0  0.00000000000E+00  0.00000000000E+00  0.45593999997E+02  0.45594000000E+02  0.51100000000E-03 0. -1.
         11   -1    0    0    0    0 -0.00000000000E+00 -0.00000000000E+00 -0.45593999997E+02  0.45594000000E+02  0.51100000000E-03 0.  1.
    9900012    2    1    2    0    0 -0.13859118939E+02  0.23418482043E+02 -0.16619849071E+02  0.59301955057E+02  0.50000020116E+02 0.  0.
         12    1    1    2    0    0  0.13859118939E+02 -0.23418482043E+02  0.16619849071E+02  0.31886044943E+02  0.00000000000E+00 0. -1.
         11    1    3    3    0    0 -0.30841032952E+02  0.19933701152E+02 -0.11753827815E+02  0.38557414640E+02  0.51100000000E-03 0. -1.
        -11    1    3    3    0    0  0.91068918445E+01  0.56751538327E+01  0.85944593707E+00  0.10764826876E+02  0.51100000000E-03 0.  1.
         12    1    3    3    0    0  0.78750221690E+01 -0.21903729419E+01 -0.57254671929E+01  0.99797135412E+01  0.00000000000E+00 0. -1.
</event>
<event>
 7    1  0.4237994E-013  0.5930194E+02  0.7816164E-02  0.1266605E+00
        -11   -1    0    0    0    0  0.00000000000E+00  0.00000000000E+00  0.45593999997E+02  0.45594000000E+02  0.51100000000E-03 0. -1.
         11   -1    0    0    0    0 -0.00000000000E+00 -0.00000000000E+00 -0.45593999997E+02  0.45594000000E+02  0.51100000000E-03 0.  1.
    9900012    2    1    2    0    0 -0.20553010475E+02 -0.40243328024E+01 -0.24043689799E+02  0.59301944847E+02  0.50000001494E+02 0.  0.
         12    1    1    2    0    0  0.20553010475E+02  0.40243328024E+01  0.24043689799E+02  0.31886055153E+02  0.00000000000E+00 0. -1.
         11    1    3    3    0    0  0.15419870681E+02  0.16762331199E+01 -0.13570457409E+02  0.20609208715E+02  0.51100000000E-03 0. -1.
        -11    1    3    3    0    0 -0.18376916595E+02 -0.64444414518E+01 -0.73003691787E+01  0.20797530612E+02  0.51100000000E-03 0.  1.
         12    1    3    3    0    0 -0.17595964561E+02  0.74387552955E+00 -0.31728632107E+01  0.17895205520E+02  0.00000000000E+00 0. -1.
</event>
<event>
 7    1  0.4237994E-013  0.5930194E+02  0.7816164E-02  0.1266605E+00
        -11   -1    0    0    0    0  0.00000000000E+00  0.00000000000E+00  0.45593999997E+02  0.45594000000E+02  0.51100000000E-03 0. -1.
         11   -1    0    0    0    0 -0.00000000000E+00 -0.00000000000E+00 -0.45593999997E+02  0.45594000000E+02  0.51100000000E-03 0.  1.
    9900012    2    1    2    0    0  0.29584354574E+02  0.84796365314E+01  0.83416149329E+01  0.59301940178E+02  0.49999992979E+02 0.  0.
         12    1    1    2    0    0 -0.29584354574E+02 -0.84796365314E+01 -0.83416149329E+01  0.31886059822E+02  0.00000000000E+00 0. -1.
         11    1    3    3    0    0  0.20945340194E+02  0.10570055783E+02 -0.11036213044E+02  0.25927424741E+02  0.51100000000E-03 0. -1.
        -11    1    3    3    0    0  0.78326366433E+01 -0.87053120268E+01 -0.11742362944E+01  0.11769090254E+02  0.51100000000E-03 0.  1.
         12    1    3    3    0    0  0.80637773701E+00  0.66148927756E+01  0.20552064272E+02  0.21605425182E+02  0.00000000000E+00 0. -1.
</event>
<event>
 7    1  0.4237994E-013  0.5930196E+02  0.7816164E-02  0.1266605E+00
        -11   -1    0    0    0    0  0.00000000000E+00  0.00000000000E+00  0.45593999997E+02  0.45594000000E+02  0.51100000000E-03 0.  1.
         11   -1    0    0    0    0 -0.00000000000E+00 -0.00000000000E+00 -0.45593999997E+02  0.45594000000E+02  0.51100000000E-03 0. -1.
    9900012    2    1    2    0    0  0.21527384521E+02  0.76400878100E+01  0.22246803608E+02  0.59301960784E+02  0.50000030560E+02 0.  0.
         12    1    1    2    0    0 -0.21527384521E+02 -0.76400878100E+01 -0.22246803608E+02  0.31886039216E+02  0.00000000000E+00 0. -1.
         11    1    3    3    0    0  0.11469704356E+02  0.22341891988E+02  0.25679002642E+01  0.25244967175E+02  0.51100000000E-03 0. -1.
        -11    1    3    3    0    0  0.12822036744E+01 -0.14956598461E+02  0.20309623961E+02  0.25255191733E+02  0.51100000000E-03 0.  1.
        -12    1    3    3    0    0  0.87754764911E+01  0.25479428226E+00 -0.63072061717E+00  0.88018018763E+01  0.00000000000E+00 0.  1.
</event>
<event>
 7    1  0.4237994E-013  0.5930198E+02  0.7816164E-02  0.1266605E+00
        -11   -1    0    0    0    0  0.00000000000E+00  0.00000000000E+00  0.45593999997E+02  0.45594000000E+02  0.51100000000E-03 0.  1.
         11   -1    0    0    0    0 -0.00000000000E+00 -0.00000000000E+00 -0.45593999997E+02  0.45594000000E+02  0.51100000000E-03 0. -1.
    9900012    2    1    2    0    0 -0.31563042720E+02 -0.24739243854E+01  0.37911207366E+01  0.59301975411E+02  0.50000057236E+02 0.  0.
         12    1    1    2    0    0  0.31563042720E+02  0.24739243854E+01 -0.37911207366E+01  0.31886024589E+02  0.00000000000E+00 0. -1.
         11    1    3    3    0    0 -0.10044287824E+02  0.50283736704E+01  0.14909642927E+02  0.18667343468E+02  0.51100000000E-03 0. -1.
        -11    1    3    3    0    0 -0.22819546218E+02  0.48822751271E+01 -0.14819118013E+02  0.27643707403E+02  0.51100000000E-03 0.  1.
        -12    1    3    3    0    0  0.13007913216E+01 -0.12384573183E+02  0.37005958223E+01  0.12990924541E+02  0.00000000000E+00 0.  1.
</event>
<event>
 7    1  0.4237994E-013  0.5930195E+02  0.7816164E-02  0.1266605E+00
        -11   -1    0    0    0    0  0.00000000000E+00  0.00000000000E+00  0.45593999997E+02  0.45594000000E+02  0.51100000000E-03 0.  1.
         11   -1    0    0    0    0 -0.00000000000E+00 -0.00000000000E+00 -0.45593999997E+02  0.45594000000E+02  0.51100000000E-03 0. -1.
    9900012    2    1    2    0    0  0.14280875148E+02 -0.34734607331E+01  0.28296847431E+02  0.59301954479E+02  0.50000019060E+02 0.  0.
         12    1    1    2    0    0 -0.14280875148E+02  0.34734607331E+01 -0.28296847431E+02  0.31886045521E+02  0.00000000000E+00 0. -1.
         11    1    3    3    0    0 -0.45199205616E+01  0.18369818697E+02  0.14755649015E+02  0.23991854846E+02  0.51100000000E-03 0. -1.
        -11    1    3    3    0    0  0.19374081950E+02 -0.12780408614E+02  0.74528382252E+01  0.24377011582E+02  0.51100000000E-03 0.  1.
         12    1    3    3    0    0 -0.57328624056E+00 -0.90628708152E+01  0.60883601904E+01  0.10933088051E+02  0.00000000000E+00 0. -1.
</event>
<event>
 7    1  0.4237994E-013  0.5930195E+02  0.7816164E-02  0.1266605E+00
        -11   -1    0    0    0    0  0.00000000000E+00  0.00000000000E+00  0.45593999997E+02  0.45594000000E+02  0.51100000000E-03 0. -1.
         11   -1    0    0    0    0 -0.00000000000E+00 -0.00000000000E+00 -0.45593999997E+02  0.45594000000E+02  0.51100000000E-03 0.  1.
    9900012    2    1    2    0    0  0.45549075956E+01  0.16054745615E+02 -0.27170169650E+02  0.59301950405E+02  0.50000011630E+02 0.  0.
         12    1    1    2    0    0 -0.45549075956E+01 -0.16054745615E+02  0.27170169650E+02  0.31886049595E+02  0.00000000000E+00 0. -1.
         11    1    3    3    0    0 -0.77394065322E+01  0.26740185999E+02 -0.11279548221E+02  0.30036047827E+02  0.51100000000E-03 0. -1.
        -11    1    3    3    0    0  0.52078113212E+01 -0.98985212287E+00  0.35749370440E+01  0.63938471293E+01  0.51100000000E-03 0.  1.
         12    1    3    3    0    0  0.70865028066E+01 -0.96955882614E+01 -0.19465558473E+02  0.22872055448E+02  0.00000000000E+00 0. -1.
</event>
<event>
 7    1  0.4237994E-013  0.5930195E+02  0.7816164E-02  0.1266605E+00
        -11   -1    0    0    0    0  0.00000000000E+00  0.00000000000E+00  0.45593999997E+02  0.45594000000E+02  0.51100000000E-03 0. -1.
         11   -1    0    0    0    0 -0.00000000000E+00 -0.00000000000E+00 -0.45593999997E+02  0.45594000000E+02  0.51100000000E-03 0.  1.
    9900012    2    1    2    0    0  0.26370310300E+01  0.10959617722E+02 -0.29827053574E+02  0.59301948533E+02  0.50000008216E+02 0.  0.
         12    1    1    2    0    0 -0.26370310300E+01 -0.10959617722E+02  0.29827053574E+02  0.31886051467E+02  0.00000000000E+00 0. -1.
         11    1    3    3    0    0  0.13282412598E+02  0.16174692422E+02 -0.30848620962E+02  0.37278419694E+02  0.51100000000E-03 0.  1.
        -11    1    3    3    0    0 -0.81708354832E+01 -0.88910747324E+01 -0.61822471625E+01  0.13565911050E+02  0.51100000000E-03 0. -1.
         12    1    3    3    0    0 -0.24745460849E+01  0.36760000324E+01  0.72038145507E+01  0.84576177878E+01  0.00000000000E+00 0. -1.
</event>
<event>
 7    1  0.4237994E-013  0.5930195E+02  0.7816164E-02  0.1266605E+00
        -11   -1    0    0    0    0  0.00000000000E+00  0.00000000000E+00  0.45593999997E+02  0.45594000000E+02  0.51100000000E-03 0. -1.
         11   -1    0    0    0    0 -0.00000000000E+00 -0.00000000000E+00 -0.45593999997E+02  0.45594000000E+02  0.51100000000E-03 0.  1.
    9900012    2    1    2    0    0 -0.24293011026E+02 -0.19361107685E+02 -0.71914954524E+01  0.59301945332E+02  0.50000002378E+02 0.  0.
         12    1    1    2    0    0  0.24293011026E+02  0.19361107685E+02  0.71914954524E+01  0.31886054668E+02  0.00000000000E+00 0. -1.
         11    1    3    3    0    0  0.46831011895E+01 -0.10063534480E+02  0.81859812619E+01  0.13791898073E+02  0.51100000000E-03 0. -1.
        -11    1    3    3    0    0 -0.19048349624E+02  0.69722553659E+01  0.11017256383E+01  0.20314176526E+02  0.51100000000E-03 0.  1.
        -12    1    3    3    0    0 -0.99277625906E+01 -0.16269828571E+02 -0.16479202353E+02  0.25195870732E+02  0.00000000000E+00 0.  1.
</event>
<event>
 7    1  0.4237994E-013  0.5930192E+02  0.7816164E-02  0.1266605E+00
        -11   -1    0    0    0    0  0.00000000000E+00  0.00000000000E+00  0.45593999997E+02  0.45594000000E+02  0.51100000000E-03 0.  1.
         11   -1    0    0    0    0 -0.00000000000E+00 -0.00000000000E+00 -0.45593999997E+02  0.45594000000E+02  0.51100000000E-03 0. -1.
    9900012    2    1    2    0    0  0.24742443160E+02 -0.96604754706E+01  0.17641114713E+02  0.59301918269E+02  0.49999953022E+02 0.  0.
         12    1    1    2    0    0 -0.24742443160E+02  0.96604754706E+01 -0.17641114713E+02  0.31886081731E+02  0.00000000000E+00 0. -1.
         11    1    3    3    0    0  0.15024190407E+02  0.55773885493E+01 -0.10389407656E+02  0.19099040607E+02  0.51100000000E-03 0. -1.
        -11    1    3    3    0    0  0.10157049141E+02 -0.15079796396E+02  0.75009342329E+01  0.19667992303E+02  0.51100000000E-03 0.  1.
         12    1    3    3    0    0 -0.43879638809E+00 -0.15806762405E+00  0.20529588136E+02  0.20534885359E+02  0.00000000000E+00 0. -1.
</event>
<event>
 7    1  0.4237994E-013  0.5930192E+02  0.7816164E-02  0.1266605E+00
        -11   -1    0    0    0    0  0.00000000000E+00  0.00000000000E+00  0.45593999997E+02  0.45594000000E+02  0.51100000000E-03 0.  1.
         11   -1    0    0    0    0 -0.00000000000E+00 -0.00000000000E+00 -0.45593999997E+02  0.45594000000E+02  0.51100000000E-03 0. -1.
    9900012    2    1    2    0    0  0.24676246357E+02 -0.19234743640E+02  0.61505635563E+01  0.59301922643E+02  0.49999961000E+02 0.  0.
         12    1    1    2    0    0 -0.24676246357E+02  0.19234743640E+02 -0.61505635563E+01  0.31886077357E+02  0.00000000000E+00 0. -1.
         11    1    3    3    0    0  0.58158772801E+00  0.12650624444E+02  0.61320833022E+01  0.14070500666E+02  0.51100000000E-03 0. -1.
        -11    1    3    3    0    0  0.60853066650E+01 -0.13762975961E+02  0.97064870216E+01  0.17907159324E+02  0.51100000000E-03 0.  1.
         12    1    3    3    0    0  0.18009351964E+02 -0.18122392123E+02 -0.96880067675E+01  0.27324262653E+02  0.00000000000E+00 0. -1.
</event>
<event>
 7    1  0.4237994E-013  0.5930196E+02  0.7816164E-02  0.1266605E+00
        -11   -1    0    0    0    0  0.00000000000E+00  0.00000000000E+00  0.45593999997E+02  0.45594000000E+02  0.51100000000E-03 0.  1.
         11   -1    0    0    0    0 -0.00000000000E+00 -0.00000000000E+00 -0.45593999997E+02  0.45594000000E+02  0.51100000000E-03 0. -1.
    9900012    2    1    2    0    0 -0.19857911652E+02  0.34883260771E+01 -0.24702523041E+02  0.59301957308E+02  0.50000024219E+02 0.  0.
         12    1    1    2    0    0  0.19857911652E+02 -0.34883260771E+01  0.24702523041E+02  0.31886042692E+02  0.00000000000E+00 0. -1.
         11    1    3    3    0    0 -0.31953435268E+01 -0.27461872584E+01 -0.29086056276E+01  0.51197413675E+01  0.51100000000E-03 0. -1.
        -11    1    3    3    0    0 -0.23292553069E+01  0.24460299139E+02 -0.38666262869E+01  0.24873328353E+02  0.51100000000E-03 0.  1.
        -12    1    3    3    0    0 -0.14333312818E+02 -0.18225785803E+02 -0.17927291126E+02  0.29308887588E+02  0.00000000000E+00 0.  1.
</event>
<event>
 7    1  0.4237994E-013  0.5930195E+02  0.7816164E-02  0.1266605E+00
        -11   -1    0    0    0    0  0.00000000000E+00  0.00000000000E+00  0.45593999997E+02  0.45594000000E+02  0.51100000000E-03 0. -1.
         11   -1    0    0    0    0 -0.00000000000E+00 -0.00000000000E+00 -0.45593999997E+02  0.45594000000E+02  0.51100000000E-03 0.  1.
    9900012    2    1    2    0    0 -0.25072825500E+02  0.15912333256E+02 -0.11613418312E+02  0.59301946417E+02  0.50000004357E+02 0.  0.
         12    1    1    2    0    0  0.25072825500E+02 -0.15912333256E+02  0.11613418312E+02  0.31886053583E+02  0.00000000000E+00 0. -1.
         11    1    3    3    0    0  0.14542904976E+01  0.93938920973E+01  0.26448578127E+01  0.98668861704E+01  0.51100000000E-03 0. -1.
        -11    1    3    3    0    0 -0.18526711709E+02 -0.34582605184E+01 -0.25974176358E+02  0.32091376572E+02  0.51100000000E-03 0.  1.
        -12    1    3    3    0    0 -0.80004042890E+01  0.99767016767E+01  0.11715900233E+02  0.17343683674E+02  0.00000000000E+00 0.  1.
</event>
<event>
 7    1  0.4237994E-013  0.5930207E+02  0.7816164E-02  0.1266604E+00
        -11   -1    0    0    0    0  0.00000000000E+00  0.00000000000E+00  0.45593999997E+02  0.45594000000E+02  0.51100000000E-03 0. -1.
         11   -1    0    0    0    0 -0.00000000000E+00 -0.00000000000E+00 -0.45593999997E+02  0.45594000000E+02  0.51100000000E-03 0.  1.
    9900012    2    1    2    0    0  0.91663376052E+01  0.20062520485E+02 -0.23025768557E+02  0.59302070643E+02  0.50000230915E+02 0.  0.
         12    1    1    2    0    0 -0.91663376052E+01 -0.20062520485E+02  0.23025768557E+02  0.31885929357E+02  0.00000000000E+00 0. -1.
         11    1    3    3    0    0 -0.95524908081E+01  0.52576070644E+01 -0.82240893954E+01  0.13657531231E+02  0.51100000000E-03 0. -1.
        -11    1    3    3    0    0  0.72598711833E+01 -0.10225141141E+02 -0.12991780631E+02  0.18056732960E+02  0.51100000000E-03 0.  1.
        -12    1    3    3    0    0  0.11458957230E+02  0.25030054562E+02 -0.18098985311E+01  0.27587806452E+02  0.00000000000E+00 0.  1.
</event>
<event>
 7    1  0.4237994E-013  0.5930194E+02  0.7816164E-02  0.1266605E+00
        -11   -1    0    0    0    0  0.00000000000E+00  0.00000000000E+00  0.45593999997E+02  0.45594000000E+02  0.51100000000E-03 0. -1.
         11   -1    0    0    0    0 -0.00000000000E+00 -0.00000000000E+00 -0.45593999997E+02  0.45594000000E+02  0.51100000000E-03 0.  1.
    9900012    2    1    2    0    0 -0.21945088891E+02  0.86005456418E+01 -0.21474742301E+02  0.59301939274E+02  0.49999991330E+02 0.  0.
         12    1    1    2    0    0  0.21945088891E+02 -0.86005456418E+01  0.21474742301E+02  0.31886060726E+02  0.00000000000E+00 0. -1.
         11    1    3    3    0    0 -0.28314465908E+02  0.95597253741E+01 -0.16929213891E+00  0.29885213550E+02  0.51100000000E-03 0. -1.
        -11    1    3    3    0    0  0.49072538368E+01 -0.93940044358E+01 -0.16468335919E+02  0.19584038086E+02  0.51100000000E-03 0.  1.
        -12    1    3    3    0    0  0.14621231802E+01  0.84348247035E+01 -0.48371142433E+01  0.98326876374E+01  0.00000000000E+00 0.  1.
</event>
<event>
 7    1  0.4237994E-013  0.5930194E+02  0.7816164E-02  0.1266605E+00
        -11   -1    0    0    0    0  0.00000000000E+00  0.00000000000E+00  0.45593999997E+02  0.45594000000E+02  0.51100000000E-03 0. -1.
         11   -1    0    0    0    0 -0.00000000000E+00 -0.00000000000E+00 -0.45593999997E+02  0.45594000000E+02  0.51100000000E-03 0.  1.
    9900012    2    1    2    0    0  0.26556249275E+02  0.59887615333E+01 -0.16601840606E+02  0.59301941107E+02  0.49999994672E+02 0.  0.
         12    1    1    2    0    0 -0.26556249275E+02 -0.59887615333E+01  0.16601840606E+02  0.31886058893E+02  0.00000000000E+00 0. -1.
         11    1    3    3    0    0  0.26540255988E+02  0.17257799631E+02 -0.57421786718E+00  0.31663015688E+02  0.51100000000E-03 0. -1.
        -11    1    3    3    0    0  0.41743589185E+01 -0.24365160406E+01 -0.17144496205E+02  0.17812794087E+02  0.51100000000E-03 0.  1.
         12    1    3    3    0    0 -0.41583656317E+01 -0.88325220572E+01  0.11168734661E+01  0.98261313322E+01  0.00000000000E+00 0. -1.
</event>
<event>
 7    1  0.4237994E-013  0.5930205E+02  0.7816164E-02  0.1266604E+00
        -11   -1    0    0    0    0  0.00000000000E+00  0.00000000000E+00  0.45593999997E+02  0.45594000000E+02  0.51100000000E-03 0. -1.
         11   -1    0    0    0    0 -0.00000000000E+00 -0.00000000000E+00 -0.45593999997E+02  0.45594000000E+02  0.51100000000E-03 0.  1.
    9900012    2    1    2    0    0  0.23072369591E+02 -0.93745390184E+01 -0.19912242487E+02  0.59302052920E+02  0.50000198592E+02 0.  0.
         12    1    1    2    0    0 -0.23072369591E+02  0.93745390184E+01  0.19912242487E+02  0.31885947080E+02  0.00000000000E+00 0. -1.
         11    1    3    3    0    0  0.52769895919E+01 -0.45023685691E+01  0.46000413361E+01  0.83233600451E+01  0.51100000000E-03 0. -1.
        -11    1    3    3    0    0  0.39846420271E+01 -0.33759554059E+00 -0.33598999421E+02  0.33836136085E+02  0.51100000000E-03 0.  1.
        -12    1    3    3    0    0  0.13810737972E+02 -0.45345749087E+01  0.90867155975E+01  0.17142556790E+02  0.00000000000E+00 0.  1.
</event>
<event>
 7    1  0.4237994E-013  0.5930193E+02  0.7816164E-02  0.1266605E+00
        -11   -1    0    0    0    0  0.00000000000E+00  0.00000000000E+00  0.45593999997E+02  0.45594000000E+02  0.51100000000E-03 0. -1.
         11   -1    0    0    0    0 -0.00000000000E+00 -0.00000000000E+00 -0.45593999997E+02  0.45594000000E+02  0.51100000000E-03 0.  1.
    9900012    2    1    2    0    0  0.24953631863E+02 -0.12599738766E+02 -0.15338975424E+02  0.59301932083E+02  0.49999978216E+02 0.  0.
         12    1    1    2    0    0 -0.24953631863E+02  0.12599738766E+02  0.15338975424E+02  0.31886067917E+02  0.00000000000E+00 0. -1.
         11    1    3    3    0    0 -0.11689988376E+02  0.15841273928E+01 -0.68987653664E+01  0.13665952278E+02  0.51100000000E-03 0. -1.
        -11    1    3    3    0    0  0.82448782633E+01 -0.10778843394E+02  0.44247418403E+01  0.14273745938E+02  0.51100000000E-03 0.  1.
         12    1    3    3    0    0  0.28398741976E+02 -0.34050227650E+01 -0.12864951897E+02  0.31362233867E+02  0.00000000000E+00 0. -1.
</event>
<event>
 7    1  0.4237994E-013  0.5930194E+02  0.7816164E-02  0.1266605E+00
        -11   -1    0    0    0    0  0.00000000000E+00  0.00000000000E+00  0.45593999997E+02  0.45594000000E+02  0.51100000000E-03 0.  1.
         11   -1    0    0    0    0 -0.00000000000E+00 -0.00000000000E+00 -0.45593999997E+02  0.45594000000E+02  0.51100000000E-03 0. -1.
    9900012    2    1    2    0    0  0.77903339426E+01  0.47075140581E+00  0.30916171456E+02  0.59301943999E+02  0.49999999948E+02 0.  0.
         12    1    1    2    0    0 -0.77903339426E+01 -0.47075140581E+00 -0.30916171456E+02  0.31886056001E+02  0.00000000000E+00 0. -1.
         11    1    3    3    0    0  0.40712696849E+01  0.21212406166E+02  0.35622845783E+01  0.21891351806E+02  0.51100000000E-03 0. -1.
        -11    1    3    3    0    0 -0.33846370843E+01 -0.16250316377E+02  0.21528542532E+02  0.27184677566E+02  0.51100000000E-03 0.  1.
        -12    1    3    3    0    0  0.71037013419E+01 -0.44913383834E+01  0.58253443451E+01  0.10225914627E+02  0.00000000000E+00 0.  1.
</event>
<event>
 7    1  0.4237994E-013  0.5930190E+02  0.7816164E-02  0.1266605E+00
        -11   -1    0    0    0    0  0.00000000000E+00  0.00000000000E+00  0.45593999997E+02  0.45594000000E+02  0.51100000000E-03 0. -1.
         11   -1    0    0    0    0 -0.00000000000E+00 -0.00000000000E+00 -0.45593999997E+02  0.45594000000E+02  0.51100000000E-03 0.  1.
    9900012    2    1    2    0    0  0.26884892560E+02 -0.15627847341E+02  0.70495501962E+01  0.59301902427E+02  0.49999924130E+02 0.  0.
         12    1    1    2    0    0 -0.26884892560E+02  0.15627847341E+02 -0.70495501962E+01  0.31886097573E+02  0.00000000000E+00 0. -1.
         11    1    3    3    0    0  0.19682657468E+02 -0.20578894911E+01 -0.18303481675E+02  0.26956619889E+02  0.51100000000E-03 0. -1.
        -11    1    3    3    0    0  0.30442628301E+01 -0.63693010076E+01  0.16830115088E+01  0.72572763144E+01  0.51100000000E-03 0.  1.
         12    1    3    3    0    0  0.41579722620E+01 -0.72006568424E+01  0.23670020363E+02  0.25088006223E+02  0.00000000000E+00 0. -1.
</event>
<event>
 7    1  0.4237994E-013  0.5930216E+02  0.7816164E-02  0.1266604E+00
        -11   -1    0    0    0    0  0.00000000000E+00  0.00000000000E+00  0.45593999997E+02  0.45594000000E+02  0.51100000000E-03 0.  1.
         11   -1    0    0    0    0 -0.00000000000E+00 -0.00000000000E+00 -0.45593999997E+02  0.45594000000E+02  0.51100000000E-03 0. -1.
    9900012    2    1    2    0    0 -0.22535968875E+01 -0.88299451225E+00  0.31793837786E+02  0.59302164596E+02  0.50000402262E+02 0.  0.
         12    1    1    2    0    0  0.22535968875E+01  0.88299451225E+00 -0.31793837786E+02  0.31885835404E+02  0.00000000000E+00 0. -1.
         11    1    3    3    0    0 -0.15248064173E+02 -0.11676254856E+01 -0.71868630174E+01  0.16897272283E+02  0.51100000000E-03 0. -1.
        -11    1    3    3    0    0  0.20184221005E+01  0.32505220215E+01  0.19303800410E+02  0.19679345307E+02  0.51100000000E-03 0.  1.
         12    1    3    3    0    0  0.10976045185E+02 -0.29658910481E+01  0.19676900394E+02  0.22725547006E+02  0.00000000000E+00 0. -1.
</event>
<event>
 7    1  0.4237994E-013  0.5930166E+02  0.7816164E-02  0.1266606E+00
        -11   -1    0    0    0    0  0.00000000000E+00  0.00000000000E+00  0.45593999997E+02  0.45594000000E+02  0.51100000000E-03 0.  1.
         11   -1    0    0    0    0 -0.00000000000E+00 -0.00000000000E+00 -0.45593999997E+02  0.45594000000E+02  0.51100000000E-03 0. -1.
    9900012    2    1    2    0    0  0.70098622189E+01  0.11819361660E+02  0.28773311063E+02  0.59301656404E+02  0.49999475441E+02 0.  0.
         12    1    1    2    0    0 -0.70098622189E+01 -0.11819361660E+02 -0.28773311063E+02  0.31886343596E+02  0.00000000000E+00 0. -1.
         11    1    3    3    0    0  0.24833325746E+01  0.61947805877E+01 -0.10040229683E+02  0.12056054892E+02  0.51100000000E-03 0. -1.
        -11    1    3    3    0    0  0.10240353729E+02  0.49746748016E+01  0.39812953316E+02  0.41408736830E+02  0.51100000000E-03 0.  1.
        -12    1    3    3    0    0 -0.57138240851E+01  0.64990627074E+00 -0.99941256999E+00  0.58368646825E+01  0.00000000000E+00 0.  1.
</event>
<event>
 7    1  0.4237994E-013  0.5930194E+02  0.7816164E-02  0.1266605E+00
        -11   -1    0    0    0    0  0.00000000000E+00  0.00000000000E+00  0.45593999997E+02  0.45594000000E+02  0.51100000000E-03 0. -1.
         11   -1    0    0    0    0 -0.00000000000E+00 -0.00000000000E+00 -0.45593999997E+02  0.45594000000E+02  0.51100000000E-03 0.  1.
    9900012    2    1    2    0    0 -0.74121614774E+01 -0.22719028951E+02 -0.21109872595E+02  0.59301935093E+02  0.49999983706E+02 0.  0.
         12    1    1    2    0    0  0.74121614774E+01  0.22719028951E+02  0.21109872595E+02  0.31886064907E+02  0.00000000000E+00 0. -1.
         11    1    3    3    0    0 -0.82422428330E+01  0.10154368399E+02 -0.10818194166E+02  0.16972892793E+02  0.51100000000E-03 0. -1.
        -11    1    3    3    0    0 -0.98428334107E+01 -0.18298801838E+02 -0.12311907899E+02  0.24151823836E+02  0.51100000000E-03 0.  1.
         12    1    3    3    0    0  0.10672914766E+02 -0.14574595513E+02  0.20202294695E+01  0.18177218464E+02  0.00000000000E+00 0. -1.
</event>
<event>
 7    1  0.4237994E-013  0.5930196E+02  0.7816164E-02  0.1266605E+00
        -11   -1    0    0    0    0  0.00000000000E+00  0.00000000000E+00  0.45593999997E+02  0.45594000000E+02  0.51100000000E-03 0. -1.
         11   -1    0    0    0    0 -0.00000000000E+00 -0.00000000000E+00 -0.45593999997E+02  0.45594000000E+02  0.51100000000E-03 0.  1.
    9900012    2    1    2    0    0  0.28761010862E+02  0.13735045211E+02 -0.93399834501E+00  0.59301959705E+02  0.50000028592E+02 0.  0.
         12    1    1    2    0    0 -0.28761010862E+02 -0.13735045211E+02  0.93399834501E+00  0.31886040295E+02  0.00000000000E+00 0. -1.
         11    1    3    3    0    0  0.33385887527E+02  0.13214641996E+02  0.10029985786E+02  0.37280623173E+02  0.51100000000E-03 0. -1.
        -11    1    3    3    0    0 -0.85233546411E+01  0.44496173228E+01 -0.12960184294E+02  0.16137318422E+02  0.51100000000E-03 0.  1.
         12    1    3    3    0    0  0.38984779764E+01 -0.39292141075E+01  0.19962001632E+01  0.58840181107E+01  0.00000000000E+00 0. -1.
</event>
<event>
 7    1  0.4237994E-013  0.5930193E+02  0.7816164E-02  0.1266605E+00
        -11   -1    0    0    0    0  0.00000000000E+00  0.00000000000E+00  0.45593999997E+02  0.45594000000E+02  0.51100000000E-03 0. -1.
         11   -1    0    0    0    0 -0.00000000000E+00 -0.00000000000E+00 -0.45593999997E+02  0.45594000000E+02  0.51100000000E-03 0.  1.
    9900012    2    1    2    0    0  0.27345521049E+02  0.23434075844E+01 -0.16231217463E+02  0.59301929360E+02  0.49999973249E+02 0.  0.
         12    1    1    2    0    0 -0.27345521049E+02 -0.23434075844E+01  0.16231217463E+02  0.31886070640E+02  0.00000000000E+00 0. -1.
         11    1    3    3    0    0 -0.78780176459E-01  0.16703675847E+00  0.13868144344E+02  0.13869374009E+02  0.51100000000E-03 0. -1.
        -11    1    3    3    0    0  0.14792992680E+02  0.10359616971E+02 -0.21573981547E+02  0.28135226607E+02  0.51100000000E-03 0.  1.
         12    1    3    3    0    0  0.12631308545E+02 -0.81832461450E+01 -0.85253802612E+01  0.17297328743E+02  0.00000000000E+00 0. -1.
</event>
<event>
 7    1  0.4237994E-013  0.5930198E+02  0.7816164E-02  0.1266605E+00
        -11   -1    0    0    0    0  0.00000000000E+00  0.00000000000E+00  0.45593999997E+02  0.45594000000E+02  0.51100000000E-03 0.  1.
         11   -1    0    0    0    0 -0.00000000000E+00 -0.00000000000E+00 -0.45593999997E+02  0.45594000000E+02  0.51100000000E-03 0. -1.
    9900012    2    1    2    0    0 -0.38340514904E+01  0.28816715456E+02  0.13100197254E+02  0.59301980986E+02  0.50000067402E+02 0.  0.
         12    1    1    2    0    0  0.38340514904E+01 -0.28816715456E+02 -0.13100197254E+02  0.31886019014E+02  0.00000000000E+00 0. -1.
         11    1    3    3    0    0 -0.45681454864E+01  0.39967159536E+02 -0.12606572723E+01  0.40247124762E+02  0.51100000000E-03 0.  1.
        -11    1    3    3    0    0 -0.41602417864E+00 -0.75266422115E+01  0.52603403234E+01  0.91920944119E+01  0.51100000000E-03 0. -1.
        -12    1    3    3    0    0  0.11501181746E+01 -0.36238018688E+01  0.91005142032E+01  0.98627618121E+01  0.00000000000E+00 0.  1.
</event>
<event>
 7    1  0.4237994E-013  0.5930195E+02  0.7816164E-02  0.1266605E+00
        -11   -1    0    0    0    0  0.00000000000E+00  0.00000000000E+00  0.45593999997E+02  0.45594000000E+02  0.51100000000E-03 0. -1.
         11   -1    0    0    0    0 -0.00000000000E+00 -0.00000000000E+00 -0.45593999997E+02  0.45594000000E+02  0.51100000000E-03 0.  1.
    9900012    2    1    2    0    0  0.16357110064E+02  0.22465951863E+02 -0.15634779906E+02  0.59301946850E+02  0.50000005147E+02 0.  0.
         12    1    1    2    0    0 -0.16357110064E+02 -0.22465951863E+02  0.15634779906E+02  0.31886053150E+02  0.00000000000E+00 0. -1.
         11    1    3    3    0    0 -0.35665058423E+00 -0.64150547399E+00  0.24072358964E+01  0.25166473401E+01  0.51100000000E-03 0. -1.
        -11    1    3    3    0    0  0.79116702477E+01  0.82606204908E+01 -0.32383779232E+02  0.34344454204E+02  0.51100000000E-03 0.  1.
        -12    1    3    3    0    0  0.88020904007E+01  0.14846836847E+02  0.14341763430E+02  0.22440845306E+02  0.00000000000E+00 0.  1.
</event>
<event>
 7    1  0.4237994E-013  0.5930193E+02  0.7816164E-02  0.1266605E+00
        -11   -1    0    0    0    0  0.00000000000E+00  0.00000000000E+00  0.45593999997E+02  0.45594000000E+02  0.51100000000E-03 0. -1.
         11   -1    0    0    0    0 -0.00000000000E+00 -0.00000000000E+00 -0.45593999997E+02  0.45594000000E+02  0.51100000000E-03 0.  1.
    9900012    2    1    2    0    0 -0.89652908799E+01  0.29176101806E+02 -0.92249736264E+01  0.59301929443E+02  0.49999973400E+02 0.  0.
         12    1    1    2    0    0  0.89652908799E+01 -0.29176101806E+02  0.92249736264E+01  0.31886070557E+02  0.00000000000E+00 0. -1.
         11    1    3    3    0    0  0.17030382147E+02  0.17130674478E+02 -0.45069562708E+01  0.24572476050E+02  0.51100000000E-03 0. -1.
        -11    1    3    3    0    0 -0.25442325198E+02  0.10112663091E+02  0.22562246569E+01  0.27471228880E+02  0.51100000000E-03 0.  1.
        -12    1    3    3    0    0 -0.55334782926E+00  0.19327642382E+01 -0.69742420126E+01  0.72582245123E+01  0.00000000000E+00 0.  1.
</event>
<event>
 7    1  0.4237994E-013  0.5930198E+02  0.7816164E-02  0.1266605E+00
        -11   -1    0    0    0    0  0.00000000000E+00  0.00000000000E+00  0.45593999997E+02  0.45594000000E+02  0.51100000000E-03 0. -1.
         11   -1    0    0    0    0 -0.00000000000E+00 -0.00000000000E+00 -0.45593999997E+02  0.45594000000E+02  0.51100000000E-03 0.  1.
    9900012    2    1    2    0    0  0.61464979052E+01 -0.13064597299E+02 -0.28429828202E+02  0.59301980012E+02  0.50000065627E+02 0.  0.
         12    1    1    2    0    0 -0.61464979052E+01  0.13064597299E+02  0.28429828202E+02  0.31886019988E+02  0.00000000000E+00 0. -1.
         11    1    3    3    0    0  0.20857136685E+02  0.34524388240E+01 -0.88607090319E+01  0.22922732153E+02  0.51100000000E-03 0.  1.
        -11    1    3    3    0    0 -0.14072360802E+02 -0.16716836422E+02 -0.58190812972E+01  0.22612953498E+02  0.51100000000E-03 0. -1.
         12    1    3    3    0    0 -0.63827797791E+00  0.19980029950E+00 -0.13750037873E+02  0.13766294361E+02  0.00000000000E+00 0. -1.
</event>
<event>
 7    1  0.4237994E-013  0.5930202E+02  0.7816164E-02  0.1266605E+00
        -11   -1    0    0    0    0  0.00000000000E+00  0.00000000000E+00  0.45593999997E+02  0.45594000000E+02  0.51100000000E-03 0.  1.
         11   -1    0    0    0    0 -0.00000000000E+00 -0.00000000000E+00 -0.45593999997E+02  0.45594000000E+02  0.51100000000E-03 0. -1.
    9900012    2    1    2    0    0  0.16406133193E+02  0.20834484389E+02  0.17705338007E+02  0.59302016559E+02  0.50000132279E+02 0.  0.
         12    1    1    2    0    0 -0.16406133193E+02 -0.20834484389E+02 -0.17705338007E+02  0.31885983441E+02  0.00000000000E+00 0. -1.
         11    1    3    3    0    0 -0.54673886366E+01  0.40369837224E+01  0.59748065982E+01  0.90491927942E+01  0.51100000000E-03 0. -1.
        -11    1    3    3    0    0  0.20622184202E+02  0.55944141756E+01  0.24969935907E+02  0.32864413135E+02  0.51100000000E-03 0.  1.
        -12    1    3    3    0    0  0.12513376274E+01  0.11203086491E+02 -0.13239404498E+02  0.17388410630E+02  0.00000000000E+00 0.  1.
</event>
<event>
 7    1  0.4237994E-013  0.5930194E+02  0.7816164E-02  0.1266605E+00
        -11   -1    0    0    0    0  0.00000000000E+00  0.00000000000E+00  0.45593999997E+02  0.45594000000E+02  0.51100000000E-03 0.  1.
         11   -1    0    0    0    0 -0.00000000000E+00 -0.00000000000E+00 -0.45593999997E+02  0.45594000000E+02  0.51100000000E-03 0. -1.
    9900012    2    1    2    0    0 -0.24402895023E+02 -0.13193569531E+02 -0.15720977716E+02  0.59301941874E+02  0.49999996072E+02 0.  0.
         12    1    1    2    0    0  0.24402895023E+02  0.13193569531E+02  0.15720977716E+02  0.31886058126E+02  0.00000000000E+00 0. -1.
         11    1    3    3    0    0  0.48867491345E+01 -0.27131729447E+01  0.72184342084E+01  0.91294806651E+01  0.51100000000E-03 0. -1.
        -11    1    3    3    0    0 -0.11989994186E+02  0.33993113067E+01 -0.24962959450E+02  0.27900978884E+02  0.51100000000E-03 0.  1.
        -12    1    3    3    0    0 -0.17299649972E+02 -0.13879707893E+02  0.20235475253E+01  0.22271482325E+02  0.00000000000E+00 0.  1.
</event>
<event>
 7    1  0.4237994E-013  0.5930210E+02  0.7816164E-02  0.1266604E+00
        -11   -1    0    0    0    0  0.00000000000E+00  0.00000000000E+00  0.45593999997E+02  0.45594000000E+02  0.51100000000E-03 0.  1.
         11   -1    0    0    0    0 -0.00000000000E+00 -0.00000000000E+00 -0.45593999997E+02  0.45594000000E+02  0.51100000000E-03 0. -1.
    9900012    2    1    2    0    0  0.91499153620E+01  0.19127619665E+01  0.30484934235E+02  0.59302096770E+02  0.50000278565E+02 0.  0.
         12    1    1    2    0    0 -0.91499153620E+01 -0.19127619665E+01 -0.30484934235E+02  0.31885903230E+02  0.00000000000E+00 0. -1.
         11    1    3    3    0    0  0.20057874476E+02 -0.84598802249E+01 -0.21027492811E+01  0.21870287075E+02  0.51100000000E-03 0. -1.
        -11    1    3    3    0    0 -0.93473921050E+01  0.25775394619E+01  0.23108384243E+02  0.25060224888E+02  0.51100000000E-03 0.  1.
         12    1    3    3    0    0 -0.15605670091E+01  0.77951027294E+01  0.94792992731E+01  0.12371584808E+02  0.00000000000E+00 0. -1.
</event>
<event>
 7    1  0.4237994E-013  0.5930199E+02  0.7816164E-02  0.1266605E+00
        -11   -1    0    0    0    0  0.00000000000E+00  0.00000000000E+00  0.45593999997E+02  0.45594000000E+02  0.51100000000E-03 0. -1.
         11   -1    0    0    0    0 -0.00000000000E+00 -0.00000000000E+00 -0.45593999997E+02  0.45594000000E+02  0.51100000000E-03 0.  1.
    9900012    2    1    2    0    0  0.25315624343E+02 -0.19019198620E+01 -0.19292990670E+02  0.59301990152E+02  0.50000084119E+02 0.  0.
         12    1    1    2    0    0 -0.25315624343E+02  0.19019198620E+01  0.19292990670E+02  0.31886009848E+02  0.00000000000E+00 0. -1.
         11    1    3    3    0    0  0.34727158432E+01  0.81826833468E+01  0.33392065662E+01  0.94955970236E+01  0.51100000000E-03 0. -1.
        -11    1    3    3    0    0  0.73379024983E+01 -0.32870614841E+01 -0.30795236268E+02  0.31827600653E+02  0.51100000000E-03 0.  1.
        -12    1    3    3    0    0  0.14505006002E+02 -0.67975417247E+01  0.81630390324E+01  0.17978792475E+02  0.00000000000E+00 0.  1.
</event>
<event>
 7    1  0.4237994E-013  0.5930192E+02  0.7816164E-02  0.1266605E+00
        -11   -1    0    0    0    0  0.00000000000E+00  0.00000000000E+00  0.45593999997E+02  0.45594000000E+02  0.51100000000E-03 0.  1.
         11   -1    0    0    0    0 -0.00000000000E+00 -0.00000000000E+00 -0.45593999997E+02  0.45594000000E+02  0.51100000000E-03 0. -1.
    9900012    2    1    2    0    0 -0.14519322917E+02  0.10725238334E+02  0.26284603449E+02  0.59301923826E+02  0.49999963157E+02 0.  0.
         12    1    1    2    0    0  0.14519322917E+02 -0.10725238334E+02 -0.26284603449E+02  0.31886076174E+02  0.00000000000E+00 0. -1.
         11    1    3    3    0    0 -0.17711337063E+00  0.27052943772E+02  0.32999841824E+01  0.27254046153E+02  0.51100000000E-03 0. -1.
        -11    1    3    3    0    0 -0.20777266770E+01 -0.23746621890E+01  0.10995326575E+01  0.33413980580E+01  0.51100000000E-03 0.  1.
         12    1    3    3    0    0 -0.12264482870E+02 -0.13953043249E+02  0.21885086609E+02  0.28706479615E+02  0.00000000000E+00 0. -1.
</event>
<event>
 7    1  0.4237994E-013  0.5930192E+02  0.7816164E-02  0.1266605E+00
        -11   -1    0    0    0    0  0.00000000000E+00  0.00000000000E+00  0.45593999997E+02  0.45594000000E+02  0.51100000000E-03 0.  1.
         11   -1    0    0    0    0 -0.00000000000E+00 -0.00000000000E+00 -0.45593999997E+02  0.45594000000E+02  0.51100000000E-03 0. -1.
    9900012    2    1    2    0    0  0.19734054482E+02 -0.25555579789E+01  0.24915026768E+02  0.59301916174E+02  0.49999949202E+02 0.  0.
         12    1    1    2    0    0 -0.19734054482E+02  0.25555579789E+01 -0.24915026768E+02  0.31886083826E+02  0.00000000000E+00 0. -1.
         11    1    3    3    0    0  0.26539362049E+01 -0.10907835439E+02  0.30823440016E+01  0.11641524649E+02  0.51100000000E-03 0. -1.
        -11    1    3    3    0    0 -0.80017492166E+00  0.12223130706E+02 -0.65515384742E+01  0.13891287226E+02  0.51100000000E-03 0.  1.
        -12    1    3    3    0    0  0.17880293199E+02 -0.38708532458E+01  0.28384221241E+02  0.33769104299E+02  0.00000000000E+00 0.  1.
</event>
<event>
 7    1  0.4237994E-013  0.5930195E+02  0.7816164E-02  0.1266605E+00
        -11   -1    0    0    0    0  0.00000000000E+00  0.00000000000E+00  0.45593999997E+02  0.45594000000E+02  0.51100000000E-03 0.  1.
         11   -1    0    0    0    0 -0.00000000000E+00 -0.00000000000E+00 -0.45593999997E+02  0.45594000000E+02  0.51100000000E-03 0. -1.
    9900012    2    1    2    0    0  0.20574094196E+02 -0.64418490927E+01 -0.23493177349E+02  0.59301950485E+02  0.50000011777E+02 0.  0.
         12    1    1    2    0    0 -0.20574094196E+02  0.64418490927E+01  0.23493177349E+02  0.31886049515E+02  0.00000000000E+00 0. -1.
         11    1    3    3    0    0 -0.75787177533E+01 -0.80008134143E+01 -0.59451252892E+01  0.12521760780E+02  0.51100000000E-03 0. -1.
        -11    1    3    3    0    0  0.18613902751E+02  0.16031355114E+02 -0.42438795815E+01  0.24929746019E+02  0.51100000000E-03 0.  1.
        -12    1    3    3    0    0  0.95389091978E+01 -0.14472390792E+02 -0.13304172479E+02  0.21850443686E+02  0.00000000000E+00 0.  1.
</event>
<event>
 7    1  0.4237994E-013  0.5930190E+02  0.7816164E-02  0.1266605E+00
        -11   -1    0    0    0    0  0.00000000000E+00  0.00000000000E+00  0.45593999997E+02  0.45594000000E+02  0.51100000000E-03 0. -1.
         11   -1    0    0    0    0 -0.00000000000E+00 -0.00000000000E+00 -0.45593999997E+02  0.45594000000E+02  0.51100000000E-03 0.  1.
    9900012    2    1    2    0    0 -0.29364676478E+00 -0.66512819111E+01 -0.31183294601E+02  0.59301895790E+02  0.49999912027E+02 0.  0.
         12    1    1    2    0    0  0.29364676478E+00  0.66512819111E+01  0.31183294601E+02  0.31886104210E+02  0.00000000000E+00 0. -1.
         11    1    3    3    0    0  0.47473121960E+01  0.83439641504E+01  0.47235910397E+01  0.10699113206E+02  0.51100000000E-03 0. -1.
        -11    1    3    3    0    0  0.74081970785E+01 -0.14412268781E+02 -0.31427680831E+02  0.35359496575E+02  0.51100000000E-03 0.  1.
        -12    1    3    3    0    0 -0.12449156039E+02 -0.58297728089E+00 -0.44792048102E+01  0.13243286010E+02  0.00000000000E+00 0.  1.
</event>
<event>
 7    1  0.4237994E-013  0.5930194E+02  0.7816164E-02  0.1266605E+00
        -11   -1    0    0    0    0  0.00000000000E+00  0.00000000000E+00  0.45593999997E+02  0.45594000000E+02  0.51100000000E-03 0. -1.
         11   -1    0    0    0    0 -0.00000000000E+00 -0.00000000000E+00 -0.45593999997E+02  0.45594000000E+02  0.51100000000E-03 0.  1.
    9900012    2    1    2    0    0 -0.28399157893E+02 -0.81296834434E+01 -0.12004882080E+02  0.59301935400E+02  0.49999984265E+02 0.  0.
         12    1    1    2    0    0  0.28399157893E+02  0.81296834434E+01  0.12004882080E+02  0.31886064600E+02  0.00000000000E+00 0. -1.
         11    1    3    3    0    0 -0.17251918026E+01 -0.14411219082E+02 -0.65698531034E+01  0.15931807564E+02  0.51100000000E-03 0. -1.
        -11    1    3    3    0    0  0.38977036063E+01  0.97164970124E+01 -0.69546302830E+01  0.12568583461E+02  0.51100000000E-03 0.  1.
        -12    1    3    3    0    0 -0.30571669697E+02 -0.34349613736E+01  0.15196013067E+01  0.30801544374E+02  0.00000000000E+00 0.  1.
</event>
<event>
 7    1  0.4237994E-013  0.5930195E+02  0.7816164E-02  0.1266605E+00
        -11   -1    0    0    0    0  0.00000000000E+00  0.00000000000E+00  0.45593999997E+02  0.45594000000E+02  0.51100000000E-03 0. -1.
         11   -1    0    0    0    0 -0.00000000000E+00 -0.00000000000E+00 -0.45593999997E+02  0.45594000000E+02  0.51100000000E-03 0.  1.
    9900012    2    1    2    0    0  0.59338161213E+01 -0.48516804380E+01 -0.30951109528E+02  0.59301950419E+02  0.50000011657E+02 0.  0.
         12    1    1    2    0    0 -0.59338161213E+01  0.48516804380E+01  0.30951109528E+02  0.31886049581E+02  0.00000000000E+00 0. -1.
         11    1    3    3    0    0  0.37677537950E+01 -0.93087694118E+01  0.24689349169E+01  0.10341411727E+02  0.51100000000E-03 0. -1.
        -11    1    3    3    0    0 -0.69842988042E+01  0.76417327504E+01 -0.37159926866E+02  0.38575078408E+02  0.51100000000E-03 0.  1.
        -12    1    3    3    0    0  0.91503611305E+01 -0.31846437766E+01  0.37398824209E+01  0.10385460285E+02  0.00000000000E+00 0.  1.
</event>
<event>
 7    1  0.4237994E-013  0.5930200E+02  0.7816164E-02  0.1266605E+00
        -11   -1    0    0    0    0  0.00000000000E+00  0.00000000000E+00  0.45593999997E+02  0.45594000000E+02  0.51100000000E-03 0. -1.
         11   -1    0    0    0    0 -0.00000000000E+00 -0.00000000000E+00 -0.45593999997E+02  0.45594000000E+02  0.51100000000E-03 0.  1.
    9900012    2    1    2    0    0 -0.45466471129E+01  0.21315519581E+02 -0.23274316587E+02  0.59301996996E+02  0.50000096601E+02 0.  0.
         12    1    1    2    0    0  0.45466471129E+01 -0.21315519581E+02  0.23274316587E+02  0.31886003004E+02  0.00000000000E+00 0. -1.
         11    1    3    3    0    0 -0.31644198081E+01 -0.73860781728E+01 -0.68326874020E+00  0.80644007793E+01  0.51100000000E-03 0. -1.
        -11    1    3    3    0    0 -0.18044107468E-01  0.32244747612E+02 -0.29274284045E+02  0.43551208717E+02  0.51100000000E-03 0.  1.
        -12    1    3    3    0    0 -0.13641831973E+01 -0.35431498574E+01  0.66832361980E+01  0.76863874991E+01  0.00000000000E+00 0.  1.
</event>
<event>
 7    1  0.4237994E-013  0.5930195E+02  0.7816164E-02  0.1266605E+00
        -11   -1    0    0    0    0  0.00000000000E+00  0.00000000000E+00  0.45593999997E+02  0.45594000000E+02  0.51100000000E-03 0. -1.
         11   -1    0    0    0    0 -0.00000000000E+00 -0.00000000000E+00 -0.45593999997E+02  0.45594000000E+02  0.51100000000E-03 0.  1.
    9900012    2    1    2    0    0 -0.30611553570E+02  0.86848510687E+01 -0.20558134857E+01  0.59301949459E+02  0.50000009905E+02 0.  0.
         12    1    1    2    0    0  0.30611553570E+02 -0.86848510687E+01  0.20558134857E+01  0.31886050541E+02  0.00000000000E+00 0. -1.
         11    1    3    3    0    0 -0.19646959999E+02  0.11638323786E+02  0.13486356200E+02  0.26520471744E+02  0.51100000000E-03 0. -1.
        -11    1    3    3    0    0 -0.67307770044E+01 -0.59745733308E+01 -0.22419698668E+02  0.24158679065E+02  0.51100000000E-03 0.  1.
        -12    1    3    3    0    0 -0.42338165668E+01  0.30211006131E+01  0.68775289825E+01  0.86227986489E+01  0.00000000000E+00 0.  1.
</event>
<event>
 7    1  0.4237994E-013  0.5930175E+02  0.7816164E-02  0.1266605E+00
        -11   -1    0    0    0    0  0.00000000000E+00  0.00000000000E+00  0.45593999997E+02  0.45594000000E+02  0.51100000000E-03 0.  1.
         11   -1    0    0    0    0 -0.00000000000E+00 -0.00000000000E+00 -0.45593999997E+02  0.45594000000E+02  0.51100000000E-03 0. -1.
    9900012    2    1    2    0    0  0.29558113779E+02 -0.10539778246E+02 -0.56536421772E+01  0.59301753976E+02  0.49999653390E+02 0.  0.
         12    1    1    2    0    0 -0.29558113779E+02  0.10539778246E+02  0.56536421772E+01  0.31886246024E+02  0.00000000000E+00 0. -1.
         11    1    3    3    0    0  0.22004038416E+02  0.92155211297E+01 -0.17578660830E+02  0.29632969023E+02  0.51100000000E-03 0. -1.
        -11    1    3    3    0    0  0.89763675322E+01 -0.12777297988E+02 -0.18925215395E+00  0.15616348311E+02  0.51100000000E-03 0.  1.
         12    1    3    3    0    0 -0.14222921689E+01 -0.69780013880E+01  0.12114270807E+02  0.14052436642E+02  0.00000000000E+00 0. -1.
</event>
<event>
 7    1  0.4237994E-013  0.5930195E+02  0.7816164E-02  0.1266605E+00
        -11   -1    0    0    0    0  0.00000000000E+00  0.00000000000E+00  0.45593999997E+02  0.45594000000E+02  0.51100000000E-03 0.  1.
         11   -1    0    0    0    0 -0.00000000000E+00 -0.00000000000E+00 -0.45593999997E+02  0.45594000000E+02  0.51100000000E-03 0. -1.
    9900012    2    1    2    0    0 -0.17002931915E+02  0.24204132884E+02  0.11907164577E+02  0.59301948024E+02  0.50000007288E+02 0.  0.
         12    1    1    2    0    0  0.17002931915E+02 -0.24204132884E+02 -0.11907164577E+02  0.31886051976E+02  0.00000000000E+00 0. -1.
         11    1    3    3    0    0 -0.54555604730E+00 -0.46348329032E+01  0.67221718951E+01  0.81833307822E+01  0.51100000000E-03 0. -1.
        -11    1    3    3    0    0 -0.20830485439E+02  0.96466514248E+01 -0.11167597523E+02  0.25528067730E+02  0.51100000000E-03 0.  1.
        -12    1    3    3    0    0  0.43731095706E+01  0.19192314362E+02  0.16352590205E+02  0.25590549512E+02  0.00000000000E+00 0.  1.
</event>
<event>
 7    1  0.4237994E-013  0.5930182E+02  0.7816164E-02  0.1266605E+00
        -11   -1    0    0    0    0  0.00000000000E+00  0.00000000000E+00  0.45593999997E+02  0.45594000000E+02  0.51100000000E-03 0. -1.
         11   -1    0    0    0    0 -0.00000000000E+00 -0.00000000000E+00 -0.45593999997E+02  0.45594000000E+02  0.51100000000E-03 0.  1.
    9900012    2    1    2    0    0  0.92317159893E+01  0.17946655315E+02 -0.24686459289E+02  0.59301822912E+02  0.49999779113E+02 0.  0.
         12    1    1    2    0    0 -0.92317159893E+01 -0.17946655315E+02  0.24686459289E+02  0.31886177088E+02  0.00000000000E+00 0. -1.
         11    1    3    3    0    0 -0.11041842429E+02 -0.11542079474E+02 -0.34648408488E+01  0.16344632304E+02  0.51100000000E-03 0. -1.
        -11    1    3    3    0    0  0.13614585726E+02  0.12207627395E+02 -0.14195804205E+02  0.23149599746E+02  0.51100000000E-03 0.  1.
         12    1    3    3    0    0  0.66589726922E+01  0.17281107394E+02 -0.70258142344E+01  0.19807590861E+02  0.00000000000E+00 0. -1.
</event>
<event>
 7    1  0.4237994E-013  0.5930195E+02  0.7816164E-02  0.1266605E+00
        -11   -1    0    0    0    0  0.00000000000E+00  0.00000000000E+00  0.45593999997E+02  0.45594000000E+02  0.51100000000E-03 0. -1.
         11   -1    0    0    0    0 -0.00000000000E+00 -0.00000000000E+00 -0.45593999997E+02  0.45594000000E+02  0.51100000000E-03 0.  1.
    9900012    2    1    2    0    0  0.22207258236E+02 -0.15466081532E+02 -0.16862928519E+02  0.59301947334E+02  0.50000006031E+02 0.  0.
         12    1    1    2    0    0 -0.22207258236E+02  0.15466081532E+02  0.16862928519E+02  0.31886052666E+02  0.00000000000E+00 0. -1.
         11    1    3    3    0    0  0.13107299197E+02 -0.22859632139E+02 -0.11269834424E+02  0.28659609941E+02  0.51100000000E-03 0. -1.
        -11    1    3    3    0    0  0.52602903275E+01  0.79262574997E+01  0.10453552163E+02  0.14134106458E+02  0.51100000000E-03 0.  1.
        -12    1    3    3    0    0  0.38396687120E+01 -0.53270689344E+00 -0.16046646259E+02  0.16508230936E+02  0.00000000000E+00 0.  1.
</event>
<event>
 7    1  0.4237994E-013  0.5930193E+02  0.7816164E-02  0.1266605E+00
        -11   -1    0    0    0    0  0.00000000000E+00  0.00000000000E+00  0.45593999997E+02  0.45594000000E+02  0.51100000000E-03 0.  1.
         11   -1    0    0    0    0 -0.00000000000E+00 -0.00000000000E+00 -0.45593999997E+02  0.45594000000E+02  0.51100000000E-03 0. -1.
    9900012    2    1    2    0    0  0.19946938331E+02 -0.24504008381E+02  0.42889294634E+01  0.59301926371E+02  0.49999967799E+02 0.  0.
         12    1    1    2    0    0 -0.19946938331E+02  0.24504008381E+02 -0.42889294634E+01  0.31886073629E+02  0.00000000000E+00 0. -1.
         11    1    3    3    0    0 -0.12426574154E+01  0.13731920822E+02  0.26149967653E+01  0.14033818270E+02  0.51100000000E-03 0. -1.
        -11    1    3    3    0    0  0.42706867686E+01 -0.19132150518E+02  0.23299022076E+01  0.19740982586E+02  0.51100000000E-03 0.  1.
         12    1    3    3    0    0  0.16918908978E+02 -0.19103778685E+02 -0.65596950961E+00  0.25527125515E+02  0.00000000000E+00 0. -1.
</event>
<event>
 7    1  0.4237994E-013  0.5930193E+02  0.7816164E-02  0.1266605E+00
        -11   -1    0    0    0    0  0.00000000000E+00  0.00000000000E+00  0.45593999997E+02  0.45594000000E+02  0.51100000000E-03 0. -1.
         11   -1    0    0    0    0 -0.00000000000E+00 -0.00000000000E+00 -0.45593999997E+02  0.45594000000E+02  0.51100000000E-03 0.  1.
    9900012    2    1    2    0    0 -0.27302339564E+02  0.85971838408E+01 -0.14049634883E+02  0.59301928495E+02  0.49999971672E+02 0.  0.
         12    1    1    2    0    0  0.27302339564E+02 -0.85971838408E+01  0.14049634883E+02  0.31886071505E+02  0.00000000000E+00 0. -1.
         11    1    3    3    0    0 -0.68011087359E+01 -0.24089768761E+01  0.10353213295E+02  0.12619321512E+02  0.51100000000E-03 0. -1.
        -11    1    3    3    0    0  0.60463305130E+01  0.92133434468E+01 -0.14674984658E+02  0.18352083945E+02  0.51100000000E-03 0.  1.
        -12    1    3    3    0    0 -0.26547561341E+02  0.17928172701E+01 -0.97278635196E+01  0.28330523038E+02  0.00000000000E+00 0.  1.
</event>
<event>
 7    1  0.4237994E-013  0.5930195E+02  0.7816164E-02  0.1266605E+00
        -11   -1    0    0    0    0  0.00000000000E+00  0.00000000000E+00  0.45593999997E+02  0.45594000000E+02  0.51100000000E-03 0.  1.
         11   -1    0    0    0    0 -0.00000000000E+00 -0.00000000000E+00 -0.45593999997E+02  0.45594000000E+02  0.51100000000E-03 0. -1.
    9900012    2    1    2    0    0  0.61361452331E+01 -0.14374042320E+01  0.31257023465E+02  0.59301954069E+02  0.50000018312E+02 0.  0.
         12    1    1    2    0    0 -0.61361452331E+01  0.14374042320E+01 -0.31257023465E+02  0.31886045931E+02  0.00000000000E+00 0. -1.
         11    1    3    3    0    0  0.20730554884E+02 -0.64716859530E+01  0.75720741331E+00  0.21730439208E+02  0.51100000000E-03 0. -1.
        -11    1    3    3    0    0 -0.30918988929E+01 -0.27981265091E+01  0.19194002505E+02  0.19641768840E+02  0.51100000000E-03 0.  1.
         12    1    3    3    0    0 -0.11502510758E+02  0.78324082301E+01  0.11305813547E+02  0.17929746021E+02  0.00000000000E+00 0. -1.
</event>
<event>
 7    1  0.4237994E-013  0.5930195E+02  0.7816164E-02  0.1266605E+00
        -11   -1    0    0    0    0  0.00000000000E+00  0.00000000000E+00  0.45593999997E+02  0.45594000000E+02  0.51100000000E-03 0. -1.
         11   -1    0    0    0    0 -0.00000000000E+00 -0.00000000000E+00 -0.45593999997E+02  0.45594000000E+02  0.51100000000E-03 0.  1.
    9900012    2    1    2    0    0 -0.22056605858E+02  0.18810587732E+02 -0.13281128443E+02  0.59301945909E+02  0.50000003430E+02 0.  0.
         12    1    1    2    0    0  0.22056605858E+02 -0.18810587732E+02  0.13281128443E+02  0.31886054091E+02  0.00000000000E+00 0. -1.
         11    1    3    3    0    0 -0.25843226621E+02  0.28052032788E+02  0.21195521390E+00  0.38142284030E+02  0.51100000000E-03 0. -1.
        -11    1    3    3    0    0  0.44032696794E+01 -0.82692818072E+01 -0.19626868799E+01  0.95719353072E+01  0.51100000000E-03 0.  1.
         12    1    3    3    0    0 -0.61664891688E+00 -0.97216324904E+00 -0.11530396777E+02  0.11587726572E+02  0.00000000000E+00 0. -1.
</event>
<event>
 7    1  0.4237994E-013  0.5930191E+02  0.7816164E-02  0.1266605E+00
        -11   -1    0    0    0    0  0.00000000000E+00  0.00000000000E+00  0.45593999997E+02  0.45594000000E+02  0.51100000000E-03 0. -1.
         11   -1    0    0    0    0 -0.00000000000E+00 -0.00000000000E+00 -0.45593999997E+02  0.45594000000E+02  0.51100000000E-03 0.  1.
    9900012    2    1    2    0    0  0.92996424834E+00 -0.31860293774E+02  0.88300518109E+00  0.59301908188E+02  0.49999934637E+02 0.  0.
         12    1    1    2    0    0 -0.92996424834E+00  0.31860293774E+02 -0.88300518109E+00  0.31886091812E+02  0.00000000000E+00 0. -1.
         11    1    3    3    0    0 -0.17940180495E+02 -0.25723750672E+02  0.15970365295E+01  0.31402419505E+02  0.51100000000E-03 0. -1.
        -11    1    3    3    0    0  0.15579612521E+02  0.46013471407E+01 -0.27778131576E+01  0.16480684695E+02  0.51100000000E-03 0.  1.
         12    1    3    3    0    0  0.32905322228E+01 -0.10737890243E+02  0.20637818092E+01  0.11418803989E+02  0.00000000000E+00 0. -1.
</event>
<event>
 7    1  0.4237994E-013  0.5930193E+02  0.7816164E-02  0.1266605E+00
        -11   -1    0    0    0    0  0.00000000000E+00  0.00000000000E+00  0.45593999997E+02  0.45594000000E+02  0.51100000000E-03 0.  1.
         11   -1    0    0    0    0 -0.00000000000E+00 -0.00000000000E+00 -0.45593999997E+02  0.45594000000E+02  0.51100000000E-03 0. -1.
    9900012    2    1    2    0    0 -0.17680773003E+02 -0.80744922149E+01  0.25276759141E+02  0.59301926062E+02  0.49999967234E+02 0.  0.
         12    1    1    2    0    0  0.17680773003E+02  0.80744922149E+01 -0.25276759141E+02  0.31886073938E+02  0.00000000000E+00 0. -1.
         11    1    3    3    0    0 -0.46920129277E+01 -0.17282264615E+02 -0.93120642454E+01  0.20184305693E+02  0.51100000000E-03 0. -1.
        -11    1    3    3    0    0 -0.43665494075E+00  0.32849070024E+01  0.13280624957E+02  0.13687815058E+02  0.51100000000E-03 0.  1.
         12    1    3    3    0    0 -0.12552105134E+02  0.59228653975E+01  0.21308198430E+02  0.25429805311E+02  0.00000000000E+00 0. -1.
</event>
<event>
 7    1  0.4237994E-013  0.5930198E+02  0.7816164E-02  0.1266605E+00
        -11   -1    0    0    0    0  0.00000000000E+00  0.00000000000E+00  0.45593999997E+02  0.45594000000E+02  0.51100000000E-03 0.  1.
         11   -1    0    0    0    0 -0.00000000000E+00 -0.00000000000E+00 -0.45593999997E+02  0.45594000000E+02  0.51100000000E-03 0. -1.
    9900012    2    1    2    0    0  0.27516986067E+02 -0.12132197593E+02  0.10599230349E+02  0.59301977598E+02  0.50000061223E+02 0.  0.
         12    1    1    2    0    0 -0.27516986067E+02  0.12132197593E+02 -0.10599230349E+02  0.31886022402E+02  0.00000000000E+00 0. -1.
         11    1    3    3    0    0  0.19195132398E+02  0.17764074772E+01  0.15286989334E+02  0.24602861103E+02  0.51100000000E-03 0. -1.
        -11    1    3    3    0    0 -0.11070419392E+02 -0.85033341745E+01 -0.41397346715E+01  0.14560160748E+02  0.51100000000E-03 0.  1.
        -12    1    3    3    0    0  0.19392273061E+02 -0.54052708955E+01 -0.54802431333E+00  0.20138955747E+02  0.00000000000E+00 0.  1.
</event>
<event>
 7    1  0.4237994E-013  0.5930196E+02  0.7816164E-02  0.1266605E+00
        -11   -1    0    0    0    0  0.00000000000E+00  0.00000000000E+00  0.45593999997E+02  0.45594000000E+02  0.51100000000E-03 0.  1.
         11   -1    0    0    0    0 -0.00000000000E+00 -0.00000000000E+00 -0.45593999997E+02  0.45594000000E+02  0.51100000000E-03 0. -1.
    9900012    2    1    2    0    0  0.22573134375E+02  0.18144988048E+02 -0.13339130130E+02  0.59301962626E+02  0.50000033920E+02 0.  0.
         12    1    1    2    0    0 -0.22573134375E+02 -0.18144988048E+02  0.13339130130E+02  0.31886037374E+02  0.00000000000E+00 0. -1.
         11    1    3    3    0    0 -0.18588057895E+01  0.13629626855E+02  0.40397913511E+01  0.14336729111E+02  0.51100000000E-03 0. -1.
        -11    1    3    3    0    0  0.10165463169E+02 -0.14309468111E+02 -0.47646840232E+01  0.18187900736E+02  0.51100000000E-03 0.  1.
        -12    1    3    3    0    0  0.14266476995E+02  0.18824829304E+02 -0.12614237458E+02  0.26777332780E+02  0.00000000000E+00 0.  1.
</event>
<event>
 7    1  0.4237994E-013  0.5930195E+02  0.7816164E-02  0.1266605E+00
        -11   -1    0    0    0    0  0.00000000000E+00  0.00000000000E+00  0.45593999997E+02  0.45594000000E+02  0.51100000000E-03 0. -1.
         11   -1    0    0    0    0 -0.00000000000E+00 -0.00000000000E+00 -0.45593999997E+02  0.45594000000E+02  0.51100000000E-03 0.  1.
    9900012    2    1    2    0    0 -0.83632413709E+01 -0.16242283882E+02 -0.26133596603E+02  0.59301945630E+02  0.50000002922E+02 0.  0.
         12    1    1    2    0    0  0.83632413709E+01  0.16242283882E+02  0.26133596603E+02  0.31886054370E+02  0.00000000000E+00 0. -1.
         11    1    3    3    0    0  0.15647459591E+02 -0.12911938503E+01  0.20803088078E+01  0.15837861542E+02  0.51100000000E-03 0. -1.
        -11    1    3    3    0    0 -0.51717810375E+01 -0.11283531860E+02 -0.17586536616E+02  0.21525605235E+02  0.51100000000E-03 0.  1.
         12    1    3    3    0    0 -0.18838919925E+02 -0.36675581710E+01 -0.10627368795E+02  0.21938478853E+02  0.00000000000E+00 0. -1.
</event>
<event>
 7    1  0.4237994E-013  0.5930194E+02  0.7816164E-02  0.1266605E+00
        -11   -1    0    0    0    0  0.00000000000E+00  0.00000000000E+00  0.45593999997E+02  0.45594000000E+02  0.51100000000E-03 0.  1.
         11   -1    0    0    0    0 -0.00000000000E+00 -0.00000000000E+00 -0.45593999997E+02  0.45594000000E+02  0.51100000000E-03 0. -1.
    9900012    2    1    2    0    0  0.30767703856E+02 -0.42942663795E+01 -0.71852908567E+01  0.59301941463E+02  0.49999995323E+02 0.  0.
         12    1    1    2    0    0 -0.30767703856E+02  0.42942663795E+01  0.71852908567E+01  0.31886058537E+02  0.00000000000E+00 0. -1.
         11    1    3    3    0    0  0.23556759776E+02  0.59246889685E+00 -0.16090642106E+02  0.28533852074E+02  0.51100000000E-03 0. -1.
        -11    1    3    3    0    0  0.25636496558E+01 -0.16112732973E+02  0.89687178717E+01  0.18618011815E+02  0.51100000000E-03 0.  1.
        -12    1    3    3    0    0  0.46472944239E+01  0.11225997696E+02 -0.63366622162E-01  0.12150077574E+02  0.00000000000E+00 0.  1.
</event>
<event>
 7    1  0.4237994E-013  0.5930194E+02  0.7816164E-02  0.1266605E+00
        -11   -1    0    0    0    0  0.00000000000E+00  0.00000000000E+00  0.45593999997E+02  0.45594000000E+02  0.51100000000E-03 0. -1.
         11   -1    0    0    0    0 -0.00000000000E+00 -0.00000000000E+00 -0.45593999997E+02  0.45594000000E+02  0.51100000000E-03 0.  1.
    9900012    2    1    2    0    0 -0.27964332407E+02 -0.15231012945E+02 -0.16532475254E+01  0.59301939257E+02  0.49999991299E+02 0.  0.
         12    1    1    2    0    0  0.27964332407E+02  0.15231012945E+02  0.16532475254E+01  0.31886060743E+02  0.00000000000E+00 0. -1.
         11    1    3    3    0    0 -0.88109104563E+01  0.39075828398E+01  0.24325656481E+01  0.99407606657E+01  0.51100000000E-03 0. -1.
        -11    1    3    3    0    0 -0.51324158898E+01  0.28637714468E+01 -0.18599400361E+02  0.19505911253E+02  0.51100000000E-03 0.  1.
        -12    1    3    3    0    0 -0.14021006061E+02 -0.22002367232E+02  0.14513587188E+02  0.29855267338E+02  0.00000000000E+00 0.  1.
</event>
<event>
 7    1  0.4237994E-013  0.5930193E+02  0.7816164E-02  0.1266605E+00
        -11   -1    0    0    0    0  0.00000000000E+00  0.00000000000E+00  0.45593999997E+02  0.45594000000E+02  0.51100000000E-03 0.  1.
         11   -1    0    0    0    0 -0.00000000000E+00 -0.00000000000E+00 -0.45593999997E+02  0.45594000000E+02  0.51100000000E-03 0. -1.
    9900012    2    1    2    0    0  0.16284829719E+02  0.27371907582E+02 -0.15179422138E+01  0.59301934828E+02  0.49999983221E+02 0.  0.
         12    1    1    2    0    0 -0.16284829719E+02 -0.27371907582E+02  0.15179422138E+01  0.31886065172E+02  0.00000000000E+00 0. -1.
         11    1    3    3    0    0 -0.61497865359E+01 -0.67557615109E+01 -0.47588412430E+01  0.10300813476E+02  0.51100000000E-03 0. -1.
        -11    1    3    3    0    0  0.25815154284E+02  0.24334820098E+02  0.97171288064E+01  0.36783532353E+02  0.51100000000E-03 0.  1.
        -12    1    3    3    0    0 -0.33805380292E+01  0.97928489949E+01 -0.64762297773E+01  0.12217588998E+02  0.00000000000E+00 0.  1.
</event>
<event>
 7    1  0.4237994E-013  0.5930195E+02  0.7816164E-02  0.1266605E+00
        -11   -1    0    0    0    0  0.00000000000E+00  0.00000000000E+00  0.45593999997E+02  0.45594000000E+02  0.51100000000E-03 0.  1.
         11   -1    0    0    0    0 -0.00000000000E+00 -0.00000000000E+00 -0.45593999997E+02  0.45594000000E+02  0.51100000000E-03 0. -1.
    9900012    2    1    2    0    0 -0.54284319489E+01 -0.25163710412E+02  0.18815944139E+02  0.59301953695E+02  0.50000017630E+02 0.  0.
         12    1    1    2    0    0  0.54284319489E+01  0.25163710412E+02 -0.18815944139E+02  0.31886046305E+02  0.00000000000E+00 0. -1.
         11    1    3    3    0    0 -0.21836952309E+02 -0.73876464655E+01  0.34987305026E+01  0.23316751957E+02  0.51100000000E-03 0. -1.
        -11    1    3    3    0    0  0.20731709565E+02 -0.87412091248E+01  0.11487026923E+02  0.25261914144E+02  0.51100000000E-03 0.  1.
        -12    1    3    3    0    0 -0.43231892045E+01 -0.90348548218E+01  0.38301867133E+01  0.10723287593E+02  0.00000000000E+00 0.  1.
</event>
<event>
 7    1  0.4237994E-013  0.5930194E+02  0.7816164E-02  0.1266605E+00
        -11   -1    0    0    0    0  0.00000000000E+00  0.00000000000E+00  0.45593999997E+02  0.45594000000E+02  0.51100000000E-03 0.  1.
         11   -1    0    0    0    0 -0.00000000000E+00 -0.00000000000E+00 -0.45593999997E+02  0.45594000000E+02  0.51100000000E-03 0. -1.
    9900012    2    1    2    0    0  0.20136995482E+02  0.30849698368E+01  0.24529682020E+02  0.59301938375E+02  0.49999989690E+02 0.  0.
         12    1    1    2    0    0 -0.20136995482E+02 -0.30849698368E+01 -0.24529682020E+02  0.31886061625E+02  0.00000000000E+00 0. -1.
         11    1    3    3    0    0  0.23334118198E+02 -0.52639319193E+01 -0.53443120672E+01  0.24510237107E+02  0.51100000000E-03 0. -1.
        -11    1    3    3    0    0 -0.76299003158E+01  0.35570904923E+01  0.68286304459E+01  0.10839670919E+02  0.51100000000E-03 0.  1.
         12    1    3    3    0    0  0.44327776002E+01  0.47918112637E+01  0.23045363642E+02  0.23952030349E+02  0.00000000000E+00 0. -1.
</event>
<event>
 7    1  0.4237994E-013  0.5930203E+02  0.7816164E-02  0.1266604E+00
        -11   -1    0    0    0    0  0.00000000000E+00  0.00000000000E+00  0.45593999997E+02  0.45594000000E+02  0.51100000000E-03 0.  1.
         11   -1    0    0    0    0 -0.00000000000E+00 -0.00000000000E+00 -0.45593999997E+02  0.45594000000E+02  0.51100000000E-03 0. -1.
    9900012    2    1    2    0    0  0.16931913373E+02 -0.74924134725E+01  0.25959374935E+02  0.59302029776E+02  0.50000156383E+02 0.  0.
         12    1    1    2    0    0 -0.16931913373E+02  0.74924134725E+01 -0.25959374935E+02  0.31885970224E+02  0.00000000000E+00 0. -1.
         11    1    3    3    0    0  0.12339345344E+02 -0.17365464660E+02 -0.44820464677E+01  0.21769417704E+02  0.51100000000E-03 0. -1.
        -11    1    3    3    0    0  0.10274616338E+02  0.51527848941E-01  0.11234586306E+02  0.15224530395E+02  0.51100000000E-03 0.  1.
         12    1    3    3    0    0 -0.56820483091E+01  0.98215233382E+01  0.19206835097E+02  0.22308081677E+02  0.00000000000E+00 0. -1.
</event>
<event>
 7    1  0.4237994E-013  0.5930196E+02  0.7816164E-02  0.1266605E+00
        -11   -1    0    0    0    0  0.00000000000E+00  0.00000000000E+00  0.45593999997E+02  0.45594000000E+02  0.51100000000E-03 0. -1.
         11   -1    0    0    0    0 -0.00000000000E+00 -0.00000000000E+00 -0.45593999997E+02  0.45594000000E+02  0.51100000000E-03 0.  1.
    9900012    2    1    2    0    0  0.16084262188E+02  0.20678216879E+01 -0.27454332743E+02  0.59301956611E+02  0.50000022948E+02 0.  0.
         12    1    1    2    0    0 -0.16084262188E+02 -0.20678216879E+01  0.27454332743E+02  0.31886043389E+02  0.00000000000E+00 0. -1.
         11    1    3    3    0    0 -0.15760134808E+02 -0.22411671506E+01 -0.98190137956E+01  0.18703414436E+02  0.51100000000E-03 0. -1.
        -11    1    3    3    0    0  0.23301248077E+02  0.91554667444E+01 -0.17894361036E+02  0.30773022120E+02  0.51100000000E-03 0.  1.
        -12    1    3    3    0    0  0.85431489194E+01 -0.48464779059E+01  0.25904208831E+00  0.98255200552E+01  0.00000000000E+00 0.  1.
</event>
<event>
 7    1  0.4237994E-013  0.5930195E+02  0.7816164E-02  0.1266605E+00
        -11   -1    0    0    0    0  0.00000000000E+00  0.00000000000E+00  0.45593999997E+02  0.45594000000E+02  0.51100000000E-03 0. -1.
         11   -1    0    0    0    0 -0.00000000000E+00 -0.00000000000E+00 -0.45593999997E+02  0.45594000000E+02  0.51100000000E-03 0.  1.
    9900012    2    1    2    0    0  0.79263395226E+01 -0.29300753077E+02  0.97652042052E+01  0.59301949723E+02  0.50000010387E+02 0.  0.
         12    1    1    2    0    0 -0.79263395226E+01  0.29300753077E+02 -0.97652042052E+01  0.31886050277E+02  0.00000000000E+00 0. -1.
         11    1    3    3    0    0  0.20590727623E+02 -0.54861494618E+01  0.14958475270E+02  0.26035204678E+02  0.51100000000E-03 0. -1.
        -11    1    3    3    0    0 -0.43969559742E+00 -0.16023183326E+02 -0.88583308259E+01  0.18314086420E+02  0.51100000000E-03 0.  1.
         12    1    3    3    0    0 -0.12224692503E+02 -0.77914202895E+01  0.36650597615E+01  0.14952658626E+02  0.00000000000E+00 0. -1.
</event>
<event>
 7    1  0.4237994E-013  0.5930207E+02  0.7816164E-02  0.1266604E+00
        -11   -1    0    0    0    0  0.00000000000E+00  0.00000000000E+00  0.45593999997E+02  0.45594000000E+02  0.51100000000E-03 0. -1.
         11   -1    0    0    0    0 -0.00000000000E+00 -0.00000000000E+00 -0.45593999997E+02  0.45594000000E+02  0.51100000000E-03 0.  1.
    9900012    2    1    2    0    0 -0.24831752165E+02 -0.12826683159E+02 -0.15348390112E+02  0.59302065868E+02  0.50000222208E+02 0.  0.
         12    1    1    2    0    0  0.24831752165E+02  0.12826683159E+02  0.15348390112E+02  0.31885934132E+02  0.00000000000E+00 0. -1.
         11    1    3    3    0    0 -0.14883998748E+02 -0.66611229123E+01  0.15028159463E+02  0.22175426812E+02  0.51100000000E-03 0. -1.
        -11    1    3    3    0    0  0.12712573490E+01 -0.80519230918E+01 -0.56789110577E+01  0.99347668209E+01  0.51100000000E-03 0.  1.
         12    1    3    3    0    0 -0.11219010766E+02  0.18863628456E+01 -0.24697638517E+02  0.27191872235E+02  0.00000000000E+00 0. -1.
</event>
<event>
 7    1  0.4237994E-013  0.5930195E+02  0.7816164E-02  0.1266605E+00
        -11   -1    0    0    0    0  0.00000000000E+00  0.00000000000E+00  0.45593999997E+02  0.45594000000E+02  0.51100000000E-03 0.  1.
         11   -1    0    0    0    0 -0.00000000000E+00 -0.00000000000E+00 -0.45593999997E+02  0.45594000000E+02  0.51100000000E-03 0. -1.
    9900012    2    1    2    0    0 -0.10099202589E+02 -0.28878619488E+02  0.89862037536E+01  0.59301946397E+02  0.50000004320E+02 0.  0.
         12    1    1    2    0    0  0.10099202589E+02  0.28878619488E+02 -0.89862037536E+01  0.31886053603E+02  0.00000000000E+00 0. -1.
         11    1    3    3    0    0 -0.21517923364E+02 -0.14451036426E+02  0.12140660155E+02  0.28622527997E+02  0.51100000000E-03 0. -1.
        -11    1    3    3    0    0  0.14522217551E+02 -0.14162202914E+01  0.44981484028E+01  0.15268720373E+02  0.51100000000E-03 0.  1.
         12    1    3    3    0    0 -0.31034967762E+01 -0.13011362771E+02 -0.76526048038E+01  0.15410698027E+02  0.00000000000E+00 0. -1.
</event>
<event>
 7    1  0.4237994E-013  0.5930196E+02  0.7816164E-02  0.1266605E+00
        -11   -1    0    0    0    0  0.00000000000E+00  0.00000000000E+00  0.45593999997E+02  0.45594000000E+02  0.51100000000E-03 0.  1.
         11   -1    0    0    0    0 -0.00000000000E+00 -0.00000000000E+00 -0.45593999997E+02  0.45594000000E+02  0.51100000000E-03 0. -1.
    9900012    2    1    2    0    0 -0.17452755515E+00 -0.29073931929E+02  0.13091808972E+02  0.59301961679E+02  0.50000032191E+02 0.  0.
         12    1    1    2    0    0  0.17452755515E+00  0.29073931929E+02 -0.13091808972E+02  0.31886038321E+02  0.00000000000E+00 0. -1.
         11    1    3    3    0    0  0.42331637015E+00  0.68920003216E+01 -0.68433343446E+01  0.97216300277E+01  0.51100000000E-03 0. -1.
        -11    1    3    3    0    0 -0.25126400079E+01 -0.39656939661E+02  0.21448278402E+02  0.45155452271E+02  0.51100000000E-03 0.  1.
        -12    1    3    3    0    0  0.19147960826E+01  0.36910074110E+01 -0.15131350853E+01  0.44248793805E+01  0.00000000000E+00 0.  1.
</event>
<event>
 7    1  0.4237994E-013  0.5930196E+02  0.7816164E-02  0.1266605E+00
        -11   -1    0    0    0    0  0.00000000000E+00  0.00000000000E+00  0.45593999997E+02  0.45594000000E+02  0.51100000000E-03 0. -1.
         11   -1    0    0    0    0 -0.00000000000E+00 -0.00000000000E+00 -0.45593999997E+02  0.45594000000E+02  0.51100000000E-03 0.  1.
    9900012    2    1    2    0    0 -0.92667768821E+00 -0.26463860147E+02 -0.17763023890E+02  0.59301958491E+02  0.50000026378E+02 0.  0.
         12    1    1    2    0    0  0.92667768821E+00  0.26463860147E+02  0.17763023890E+02  0.31886041509E+02  0.00000000000E+00 0. -1.
         11    1    3    3    0    0  0.80628635846E+01 -0.18594525366E+02  0.97584364545E+01  0.22494293166E+02  0.51100000000E-03 0. -1.
        -11    1    3    3    0    0 -0.11155007257E+02  0.40231578590E+01 -0.99495639436E+01  0.15479464106E+02  0.51100000000E-03 0.  1.
        -12    1    3    3    0    0  0.21654659844E+01 -0.11892492640E+02 -0.17571896401E+02  0.21328201219E+02  0.00000000000E+00 0.  1.
</event>
<event>
 7    1  0.4237994E-013  0.5930192E+02  0.7816164E-02  0.1266605E+00
        -11   -1    0    0    0    0  0.00000000000E+00  0.00000000000E+00  0.45593999997E+02  0.45594000000E+02  0.51100000000E-03 0.  1.
         11   -1    0    0    0    0 -0.00000000000E+00 -0.00000000000E+00 -0.45593999997E+02  0.45594000000E+02  0.51100000000E-03 0. -1.
    9900012    2    1    2    0    0  0.81809360906E+01 -0.20838797177E+02  0.22705476786E+02  0.59301923741E+02  0.49999963002E+02 0.  0.
         12    1    1    2    0    0 -0.81809360906E+01  0.20838797177E+02 -0.22705476786E+02  0.31886076259E+02  0.00000000000E+00 0. -1.
         11    1    3    3    0    0 -0.15567852838E+02 -0.20659781815E+01  0.75596837652E+00  0.15722525124E+02  0.51100000000E-03 0. -1.
        -11    1    3    3    0    0  0.13636545652E+02 -0.22274482649E+02  0.19519781254E+02  0.32605671517E+02  0.51100000000E-03 0.  1.
         12    1    3    3    0    0  0.10112243276E+02  0.35016636533E+01  0.24297271559E+01  0.10973727100E+02  0.00000000000E+00 0. -1.
</event>
<event>
 7    1  0.4237994E-013  0.5930195E+02  0.7816164E-02  0.1266605E+00
        -11   -1    0    0    0    0  0.00000000000E+00  0.00000000000E+00  0.45593999997E+02  0.45594000000E+02  0.51100000000E-03 0.  1.
         11   -1    0    0    0    0 -0.00000000000E+00 -0.00000000000E+00 -0.45593999997E+02  0.45594000000E+02  0.51100000000E-03 0. -1.
    9900012    2    1    2    0    0 -0.27276015114E+02  0.15971332761E+02  0.42018744878E+01  0.59301949447E+02  0.50000009884E+02 0.  0.
         12    1    1    2    0    0  0.27276015114E+02 -0.15971332761E+02 -0.42018744878E+01  0.31886050553E+02  0.00000000000E+00 0. -1.
         11    1    3    3    0    0 -0.37179347067E+01 -0.20390257821E+01 -0.85173949813E+01  0.95145510746E+01  0.51100000000E-03 0. -1.
        -11    1    3    3    0    0 -0.45982336963E+01 -0.98374132495E+01  0.11869408452E+02  0.16087302752E+02  0.51100000000E-03 0.  1.
        -12    1    3    3    0    0 -0.18959846711E+02  0.27847771792E+02  0.84986101694E+00  0.33700095621E+02  0.00000000000E+00 0.  1.
</event>
<event>
 7    1  0.4237994E-013  0.5930194E+02  0.7816164E-02  0.1266605E+00
        -11   -1    0    0    0    0  0.00000000000E+00  0.00000000000E+00  0.45593999997E+02  0.45594000000E+02  0.51100000000E-03 0. -1.
         11   -1    0    0    0    0 -0.00000000000E+00 -0.00000000000E+00 -0.45593999997E+02  0.45594000000E+02  0.51100000000E-03 0.  1.
    9900012    2    1    2    0    0 -0.16526861755E+02 -0.22814494918E+02 -0.14935943877E+02  0.59301941019E+02  0.49999994514E+02 0.  0.
         12    1    1    2    0    0  0.16526861755E+02  0.22814494918E+02  0.14935943877E+02  0.31886058981E+02  0.00000000000E+00 0. -1.
         11    1    3    3    0    0  0.86092526751E+01 -0.14354805664E+02 -0.22088668587E+01  0.16883683554E+02  0.51100000000E-03 0. -1.
        -11    1    3    3    0    0 -0.50112895802E+01 -0.20728787581E+01 -0.19503557681E+02  0.20243483200E+02  0.51100000000E-03 0.  1.
        -12    1    3    3    0    0 -0.20124824850E+02 -0.63868104956E+01  0.67764806632E+01  0.22174774266E+02  0.00000000000E+00 0.  1.
</event>
<event>
 7    1  0.4237994E-013  0.5930196E+02  0.7816164E-02  0.1266605E+00
        -11   -1    0    0    0    0  0.00000000000E+00  0.00000000000E+00  0.45593999997E+02  0.45594000000E+02  0.51100000000E-03 0.  1.
         11   -1    0    0    0    0 -0.00000000000E+00 -0.00000000000E+00 -0.45593999997E+02  0.45594000000E+02  0.51100000000E-03 0. -1.
    9900012    2    1    2    0    0 -0.18700621195E+02  0.22933619943E+02  0.11876673335E+02  0.59301960323E+02  0.50000029719E+02 0.  0.
         12    1    1    2    0    0  0.18700621195E+02 -0.22933619943E+02 -0.11876673335E+02  0.31886039677E+02  0.00000000000E+00 0. -1.
         11    1    3    3    0    0 -0.11130824929E+00 -0.18372894414E+01  0.16242610428E+02  0.16346571989E+02  0.51100000000E-03 0. -1.
        -11    1    3    3    0    0 -0.16965454738E+02  0.27419287011E+02 -0.12241622424E+02  0.34489147199E+02  0.51100000000E-03 0.  1.
        -12    1    3    3    0    0 -0.16238582070E+01 -0.26483776263E+01  0.78756853314E+01  0.84662411357E+01  0.00000000000E+00 0.  1.
</event>
<event>
 7    1  0.4237994E-013  0.5930195E+02  0.7816164E-02  0.1266605E+00
        -11   -1    0    0    0    0  0.00000000000E+00  0.00000000000E+00  0.45593999997E+02  0.45594000000E+02  0.51100000000E-03 0.  1.
         11   -1    0    0    0    0 -0.00000000000E+00 -0.00000000000E+00 -0.45593999997E+02  0.45594000000E+02  0.51100000000E-03 0. -1.
    9900012    2    1    2    0    0 -0.31677926635E+02  0.35945206483E+01 -0.55526530193E+00  0.59301953928E+02  0.50000018055E+02 0.  0.
         12    1    1    2    0    0  0.31677926635E+02 -0.35945206483E+01  0.55526530193E+00  0.31886046072E+02  0.00000000000E+00 0. -1.
         11    1    3    3    0    0  0.49422513507E+01 -0.44823388052E+01 -0.59681408140E+01  0.89518665437E+01  0.51100000000E-03 0. -1.
        -11    1    3    3    0    0 -0.27627990283E+02  0.10953219166E+02  0.17901095070E+02  0.34694784365E+02  0.51100000000E-03 0.  1.
         12    1    3    3    0    0 -0.89921877028E+01 -0.28763597127E+01 -0.12488219558E+02  0.15655303019E+02  0.00000000000E+00 0. -1.
</event>
<event>
 7    1  0.4279582E-013  0.5930194E+02  0.7816164E-02  0.1266605E+00
        -11   -1    0    0    0    0  0.00000000000E+00  0.00000000000E+00  0.45593999997E+02  0.45594000000E+02  0.51100000000E-03 0.  1.
         11   -1    0    0    0    0 -0.00000000000E+00 -0.00000000000E+00 -0.45593999997E+02  0.45594000000E+02  0.51100000000E-03 0. -1.
    9900012    2    1    2    0    0  0.93322714200E+01 -0.29596579292E+02  0.73261173869E+01  0.59301940482E+02  0.49999993533E+02 0.  0.
         12    1    1    2    0    0 -0.93322714200E+01  0.29596579292E+02 -0.73261173869E+01  0.31886059518E+02  0.00000000000E+00 0. -1.
         11    1    3    3    0    0 -0.47133375247E+01  0.56901188843E+01 -0.51634640554E+01  0.90141203039E+01  0.51100000000E-03 0. -1.
        -11    1    3    3    0    0 -0.25181279938E+01 -0.30728001496E+02  0.12051229326E+02  0.33102615804E+02  0.51100000000E-03 0.  1.
        -12    1    3    3    0    0  0.16563736938E+02 -0.45586966797E+01  0.43835211600E+00  0.17185204374E+02  0.00000000000E+00 0.  1.
</event>
<event>
 7    1  0.4237994E-013  0.5930188E+02  0.7816164E-02  0.1266605E+00
        -11   -1    0    0    0    0  0.00000000000E+00  0.00000000000E+00  0.45593999997E+02  0.45594000000E+02  0.51100000000E-03 0. -1.
         11   -1    0    0    0    0 -0.00000000000E+00 -0.00000000000E+00 -0.45593999997E+02  0.45594000000E+02  0.51100000000E-03 0.  1.
    9900012    2    1    2    0    0 -0.22746941777E+02  0.96327100212E+01 -0.20162140941E+02  0.59301884058E+02  0.49999890629E+02 0.  0.
         12    1    1    2    0    0  0.22746941777E+02 -0.96327100212E+01  0.20162140941E+02  0.31886115942E+02  0.00000000000E+00 0. -1.
         11    1    3    3    0    0 -0.43519506001E+01 -0.70219080146E+01 -0.20942210028E+02  0.22512725897E+02  0.51100000000E-03 0. -1.
        -11    1    3    3    0    0 -0.25061418969E+01  0.20212991108E+02 -0.11065082982E+01  0.20397796882E+02  0.51100000000E-03 0.  1.
        -12    1    3    3    0    0 -0.15888849280E+02 -0.35583730723E+01  0.18865773850E+01  0.16391361279E+02  0.00000000000E+00 0.  1.
</event>
<event>
 7    1  0.4237994E-013  0.5930200E+02  0.7816164E-02  0.1266605E+00
        -11   -1    0    0    0    0  0.00000000000E+00  0.00000000000E+00  0.45593999997E+02  0.45594000000E+02  0.51100000000E-03 0.  1.
         11   -1    0    0    0    0 -0.00000000000E+00 -0.00000000000E+00 -0.45593999997E+02  0.45594000000E+02  0.51100000000E-03 0. -1.
    9900012    2    1    2    0    0  0.34088384860E+01  0.24836695564E+02  0.19703695810E+02  0.59301995940E+02  0.50000094675E+02 0.  0.
         12    1    1    2    0    0 -0.34088384860E+01 -0.24836695564E+02 -0.19703695810E+02  0.31886004060E+02  0.00000000000E+00 0. -1.
         11    1    3    3    0    0  0.35445098444E+01  0.40103056110E+01 -0.43454850329E+01  0.68941527081E+01  0.51100000000E-03 0. -1.
        -11    1    3    3    0    0 -0.15933678837E+02 -0.41261401607E+01  0.12618963212E+02  0.20739946642E+02  0.51100000000E-03 0.  1.
        -12    1    3    3    0    0  0.15798007479E+02  0.24952530113E+02  0.11430217631E+02  0.31667896590E+02  0.00000000000E+00 0.  1.
</event>
<event>
 7    1  0.4237994E-013  0.5930195E+02  0.7816164E-02  0.1266605E+00
        -11   -1    0    0    0    0  0.00000000000E+00  0.00000000000E+00  0.45593999997E+02  0.45594000000E+02  0.51100000000E-03 0.  1.
         11   -1    0    0    0    0 -0.00000000000E+00 -0.00000000000E+00 -0.45593999997E+02  0.45594000000E+02  0.51100000000E-03 0. -1.
    9900012    2    1    2    0    0 -0.45326148741E+01 -0.83642492917E+01  0.30433776906E+02  0.59301952259E+02  0.50000015011E+02 0.  0.
         12    1    1    2    0    0  0.45326148741E+01  0.83642492917E+01 -0.30433776906E+02  0.31886047741E+02  0.00000000000E+00 0. -1.
         11    1    3    3    0    0 -0.20998614504E+02 -0.11233729958E+02  0.24690800364E+02  0.34304141480E+02  0.51100000000E-03 0. -1.
        -11    1    3    3    0    0  0.97563871343E+01  0.10245171506E+02  0.17428556543E+01  0.14254408974E+02  0.51100000000E-03 0.  1.
         12    1    3    3    0    0  0.67096124952E+01 -0.73756908400E+01  0.40001208879E+01  0.10743401804E+02  0.00000000000E+00 0. -1.
</event>
<event>
 7    1  0.4237994E-013  0.5930197E+02  0.7816164E-02  0.1266605E+00
        -11   -1    0    0    0    0  0.00000000000E+00  0.00000000000E+00  0.45593999997E+02  0.45594000000E+02  0.51100000000E-03 0.  1.
         11   -1    0    0    0    0 -0.00000000000E+00 -0.00000000000E+00 -0.45593999997E+02  0.45594000000E+02  0.51100000000E-03 0. -1.
    9900012    2    1    2    0    0 -0.35232312618E+01  0.25275314055E+02  0.19117127304E+02  0.59301965197E+02  0.50000038608E+02 0.  0.
         12    1    1    2    0    0  0.35232312618E+01 -0.25275314055E+02 -0.19117127304E+02  0.31886034803E+02  0.00000000000E+00 0. -1.
         11    1    3    3    0    0 -0.21975272519E+02  0.22936845800E+02  0.23936967589E+02  0.39774236827E+02  0.51100000000E-03 0. -1.
        -11    1    3    3    0    0  0.10734767126E+02  0.70717646406E+00 -0.11227108118E+01  0.10816459847E+02  0.51100000000E-03 0.  1.
         12    1    3    3    0    0  0.77172741313E+01  0.16312917909E+01 -0.36971294736E+01  0.87112685223E+01  0.00000000000E+00 0. -1.
</event>
<event>
 7    1  0.4237994E-013  0.5930192E+02  0.7816164E-02  0.1266605E+00
        -11   -1    0    0    0    0  0.00000000000E+00  0.00000000000E+00  0.45593999997E+02  0.45594000000E+02  0.51100000000E-03 0.  1.
         11   -1    0    0    0    0 -0.00000000000E+00 -0.00000000000E+00 -0.45593999997E+02  0.45594000000E+02  0.51100000000E-03 0. -1.
    9900012    2    1    2    0    0  0.13601412159E+02 -0.28753397222E+02  0.22283666604E+01  0.59301923376E+02  0.49999962336E+02 0.  0.
         12    1    1    2    0    0 -0.13601412159E+02  0.28753397222E+02 -0.22283666604E+01  0.31886076624E+02  0.00000000000E+00 0. -1.
         11    1    3    3    0    0 -0.44889445159E+00  0.80993472491E+01 -0.57324432530E+01  0.99328665550E+01  0.51100000000E-03 0. -1.
        -11    1    3    3    0    0  0.26066200182E+01 -0.31968756384E+02  0.14628009693E+02  0.35253007254E+02  0.51100000000E-03 0.  1.
         12    1    3    3    0    0  0.11443686593E+02 -0.48839880868E+01 -0.66671997793E+01  0.14116049566E+02  0.00000000000E+00 0. -1.
</event>
<event>
 7    1  0.4237994E-013  0.5930184E+02  0.7816164E-02  0.1266605E+00
        -11   -1    0    0    0    0  0.00000000000E+00  0.00000000000E+00  0.45593999997E+02  0.45594000000E+02  0.51100000000E-03 0.  1.
         11   -1    0    0    0    0 -0.00000000000E+00 -0.00000000000E+00 -0.45593999997E+02  0.45594000000E+02  0.51100000000E-03 0. -1.
    9900012    2    1    2    0    0 -0.12351974971E+02 -0.24354758832E+02  0.16462122979E+02  0.59301842244E+02  0.49999814371E+02 0.  0.
         12    1    1    2    0    0  0.12351974971E+02  0.24354758832E+02 -0.16462122979E+02  0.31886157756E+02  0.00000000000E+00 0. -1.
         11    1    3    3    0    0 -0.49150116017E+01  0.66607713509E+01 -0.23607925711E+01  0.86079356328E+01  0.51100000000E-03 0. -1.
        -11    1    3    3    0    0 -0.10591442276E+02 -0.24947121851E+02 -0.35178454167E+01  0.27329704989E+02  0.51100000000E-03 0.  1.
        -12    1    3    3    0    0  0.31544789067E+01 -0.60684083315E+01  0.22340760967E+02  0.23364201622E+02  0.00000000000E+00 0.  1.
</event>
<event>
 7    1  0.4237994E-013  0.5930196E+02  0.7816164E-02  0.1266605E+00
        -11   -1    0    0    0    0  0.00000000000E+00  0.00000000000E+00  0.45593999997E+02  0.45594000000E+02  0.51100000000E-03 0.  1.
         11   -1    0    0    0    0 -0.00000000000E+00 -0.00000000000E+00 -0.45593999997E+02  0.45594000000E+02  0.51100000000E-03 0. -1.
    9900012    2    1    2    0    0  0.23551393886E+02  0.18828168045E+02 -0.10370715746E+02  0.59301955859E+02  0.50000021577E+02 0.  0.
         12    1    1    2    0    0 -0.23551393886E+02 -0.18828168045E+02  0.10370715746E+02  0.31886044141E+02  0.00000000000E+00 0. -1.
         11    1    3    3    0    0 -0.85869738296E+00 -0.11534231230E+02  0.79610393429E+01  0.14041153761E+02  0.51100000000E-03 0. -1.
        -11    1    3    3    0    0  0.11044769225E+01  0.82681694276E+01 -0.12033448615E+00  0.83424801831E+01  0.51100000000E-03 0.  1.
         12    1    3    3    0    0  0.23305614346E+02  0.22094229847E+02 -0.18211420603E+02  0.36918321914E+02  0.00000000000E+00 0. -1.
</event>
<event>
 7    1  0.4237994E-013  0.5930199E+02  0.7816164E-02  0.1266605E+00
        -11   -1    0    0    0    0  0.00000000000E+00  0.00000000000E+00  0.45593999997E+02  0.45594000000E+02  0.51100000000E-03 0.  1.
         11   -1    0    0    0    0 -0.00000000000E+00 -0.00000000000E+00 -0.45593999997E+02  0.45594000000E+02  0.51100000000E-03 0. -1.
    9900012    2    1    2    0    0  0.83613398048E+01 -0.51333341325E+01  0.30338989628E+02  0.59301993441E+02  0.50000090117E+02 0.  0.
         12    1    1    2    0    0 -0.83613398048E+01  0.51333341325E+01 -0.30338989628E+02  0.31886006559E+02  0.00000000000E+00 0. -1.
         11    1    3    3    0    0  0.31936896122E+01 -0.18492247279E+02 -0.15103212311E+01  0.18826681419E+02  0.51100000000E-03 0. -1.
        -11    1    3    3    0    0 -0.51696503816E+01  0.35032084084E+01  0.22629438698E+02  0.23475290206E+02  0.51100000000E-03 0.  1.
         12    1    3    3    0    0  0.10337300574E+02  0.98557047383E+01  0.92198721614E+01  0.17000021815E+02  0.00000000000E+00 0. -1.
</event>
<event>
 7    1  0.4237994E-013  0.5930197E+02  0.7816164E-02  0.1266605E+00
        -11   -1    0    0    0    0  0.00000000000E+00  0.00000000000E+00  0.45593999997E+02  0.45594000000E+02  0.51100000000E-03 0.  1.
         11   -1    0    0    0    0 -0.00000000000E+00 -0.00000000000E+00 -0.45593999997E+02  0.45594000000E+02  0.51100000000E-03 0. -1.
    9900012    2    1    2    0    0 -0.70100566700E+01 -0.43498816662E+01  0.30800272893E+02  0.59301965827E+02  0.50000039756E+02 0.  0.
         12    1    1    2    0    0  0.70100566700E+01  0.43498816662E+01 -0.30800272893E+02  0.31886034173E+02  0.00000000000E+00 0. -1.
         11    1    3    3    0    0 -0.12186756747E+02 -0.23443037187E+01 -0.40524761447E+01  0.13055089548E+02  0.51100000000E-03 0. -1.
        -11    1    3    3    0    0  0.64493495905E+01  0.12029984798E+02  0.26645223518E+02  0.29937978906E+02  0.51100000000E-03 0.  1.
         12    1    3    3    0    0 -0.12726495137E+01 -0.14035562746E+02  0.82075255199E+01  0.16308897373E+02  0.00000000000E+00 0. -1.
</event>
<event>
 7    1  0.4237994E-013  0.5930195E+02  0.7816164E-02  0.1266605E+00
        -11   -1    0    0    0    0  0.00000000000E+00  0.00000000000E+00  0.45593999997E+02  0.45594000000E+02  0.51100000000E-03 0.  1.
         11   -1    0    0    0    0 -0.00000000000E+00 -0.00000000000E+00 -0.45593999997E+02  0.45594000000E+02  0.51100000000E-03 0. -1.
    9900012    2    1    2    0    0  0.98152967892E+00  0.87154526099E+00  0.31859020817E+02  0.59301949773E+02  0.50000010478E+02 0.  0.
         12    1    1    2    0    0 -0.98152967892E+00 -0.87154526099E+00 -0.31859020817E+02  0.31886050227E+02  0.00000000000E+00 0. -1.
         11    1    3    3    0    0  0.16138821933E+02  0.10673885621E+02  0.29046380376E+02  0.34901083376E+02  0.51100000000E-03 0. -1.
        -11    1    3    3    0    0 -0.11908285609E+02  0.60459087120E+00 -0.26379890144E+01  0.12211952447E+02  0.51100000000E-03 0.  1.
        -12    1    3    3    0    0 -0.32490066451E+01 -0.10406931231E+02  0.54506294559E+01  0.12188913950E+02  0.00000000000E+00 0.  1.
</event>
<event>
 7    1  0.4237994E-013  0.5930193E+02  0.7816164E-02  0.1266605E+00
        -11   -1    0    0    0    0  0.00000000000E+00  0.00000000000E+00  0.45593999997E+02  0.45594000000E+02  0.51100000000E-03 0. -1.
         11   -1    0    0    0    0 -0.00000000000E+00 -0.00000000000E+00 -0.45593999997E+02  0.45594000000E+02  0.51100000000E-03 0.  1.
    9900012    2    1    2    0    0 -0.10069101748E+02  0.87416598814E+01 -0.28964078214E+02  0.59301933226E+02  0.49999980301E+02 0.  0.
         12    1    1    2    0    0  0.10069101748E+02 -0.87416598814E+01  0.28964078214E+02  0.31886066774E+02  0.00000000000E+00 0. -1.
         11    1    3    3    0    0  0.12747895227E+02  0.78385545204E+00 -0.28015030354E+02  0.30789043312E+02  0.51100000000E-03 0. -1.
        -11    1    3    3    0    0 -0.16406965459E+02 -0.20288672944E+01  0.61526865533E+00  0.16543378550E+02  0.51100000000E-03 0.  1.
         12    1    3    3    0    0 -0.64100315158E+01  0.99866717237E+01 -0.15643165160E+01  0.11969511365E+02  0.00000000000E+00 0. -1.
</event>
<event>
 7    1  0.4237994E-013  0.5930197E+02  0.7816164E-02  0.1266605E+00
        -11   -1    0    0    0    0  0.00000000000E+00  0.00000000000E+00  0.45593999997E+02  0.45594000000E+02  0.51100000000E-03 0.  1.
         11   -1    0    0    0    0 -0.00000000000E+00 -0.00000000000E+00 -0.45593999997E+02  0.45594000000E+02  0.51100000000E-03 0. -1.
    9900012    2    1    2    0    0  0.20527413120E+02  0.47310324159E+01  0.23936613859E+02  0.59301971082E+02  0.50000049341E+02 0.  0.
         12    1    1    2    0    0 -0.20527413120E+02 -0.47310324159E+01 -0.23936613859E+02  0.31886028918E+02  0.00000000000E+00 0. -1.
         11    1    3    3    0    0 -0.91266778080E+01 -0.48147542631E+01 -0.28050322600E+01  0.10693283531E+02  0.51100000000E-03 0. -1.
        -11    1    3    3    0    0  0.16596001724E+02  0.70210125344E+00  0.28243777701E+02  0.32766311945E+02  0.51100000000E-03 0.  1.
        -12    1    3    3    0    0  0.13058089204E+02  0.88436854256E+01 -0.15021315825E+01  0.15842375606E+02  0.00000000000E+00 0.  1.
</event>
<event>
 7    1  0.4237994E-013  0.5930193E+02  0.7816164E-02  0.1266605E+00
        -11   -1    0    0    0    0  0.00000000000E+00  0.00000000000E+00  0.45593999997E+02  0.45594000000E+02  0.51100000000E-03 0.  1.
         11   -1    0    0    0    0 -0.00000000000E+00 -0.00000000000E+00 -0.45593999997E+02  0.45594000000E+02  0.51100000000E-03 0. -1.
    9900012    2    1    2    0    0  0.29268341975E+02 -0.35836222801E+01  0.12134371411E+02  0.59301934702E+02  0.49999982993E+02 0.  0.
         12    1    1    2    0    0 -0.29268341975E+02  0.35836222801E+01 -0.12134371411E+02  0.31886065298E+02  0.00000000000E+00 0. -1.
         11    1    3    3    0    0 -0.85596332226E+01 -0.14067877931E+02  0.11312583901E+01  0.16506127838E+02  0.51100000000E-03 0. -1.
        -11    1    3    3    0    0  0.30150729850E+02  0.24638493692E+01  0.78077796450E+01  0.31242574917E+02  0.51100000000E-03 0.  1.
         12    1    3    3    0    0  0.76772453481E+01  0.80204062817E+01  0.31953333754E+01  0.11553231948E+02  0.00000000000E+00 0. -1.
</event>
<event>
 7    1  0.4237994E-013  0.5930198E+02  0.7816164E-02  0.1266605E+00
        -11   -1    0    0    0    0  0.00000000000E+00  0.00000000000E+00  0.45593999997E+02  0.45594000000E+02  0.51100000000E-03 0.  1.
         11   -1    0    0    0    0 -0.00000000000E+00 -0.00000000000E+00 -0.45593999997E+02  0.45594000000E+02  0.51100000000E-03 0. -1.
    9900012    2    1    2    0    0  0.27105259896E+02 -0.68824481907E+01  0.15318453612E+02  0.59301980679E+02  0.50000066842E+02 0.  0.
         12    1    1    2    0    0 -0.27105259896E+02  0.68824481907E+01 -0.15318453612E+02  0.31886019321E+02  0.00000000000E+00 0. -1.
         11    1    3    3    0    0  0.87051109575E+01  0.19850316506E+01  0.13900596753E+01  0.90361260282E+01  0.51100000000E-03 0. -1.
        -11    1    3    3    0    0 -0.75517693373E+01  0.46375816177E+01  0.18634234917E+02  0.20634221443E+02  0.51100000000E-03 0.  1.
        -12    1    3    3    0    0  0.25951918275E+02 -0.13505061459E+02 -0.47058409799E+01  0.29631633207E+02  0.00000000000E+00 0.  1.
</event>
<event>
 7    1  0.4237994E-013  0.5930196E+02  0.7816164E-02  0.1266605E+00
        -11   -1    0    0    0    0  0.00000000000E+00  0.00000000000E+00  0.45593999997E+02  0.45594000000E+02  0.51100000000E-03 0.  1.
         11   -1    0    0    0    0 -0.00000000000E+00 -0.00000000000E+00 -0.45593999997E+02  0.45594000000E+02  0.51100000000E-03 0. -1.
    9900012    2    1    2    0    0  0.72792184875E+01 -0.73849890402E+01  0.30152856042E+02  0.59301955836E+02  0.50000021536E+02 0.  0.
         12    1    1    2    0    0 -0.72792184875E+01  0.73849890402E+01 -0.30152856042E+02  0.31886044164E+02  0.00000000000E+00 0. -1.
         11    1    3    3    0    0  0.64339505817E+01 -0.73307835194E+01 -0.10273625229E+02  0.14166279776E+02  0.51100000000E-03 0. -1.
        -11    1    3    3    0    0  0.18657736060E+01  0.70620743523E+01  0.35910534121E+02  0.36645879256E+02  0.51100000000E-03 0.  1.
        -12    1    3    3    0    0 -0.10205057001E+01 -0.71162798730E+01  0.45159471498E+01  0.84897968041E+01  0.00000000000E+00 0.  1.
</event>
<event>
 7    1  0.4237994E-013  0.5930195E+02  0.7816164E-02  0.1266605E+00
        -11   -1    0    0    0    0  0.00000000000E+00  0.00000000000E+00  0.45593999997E+02  0.45594000000E+02  0.51100000000E-03 0. -1.
         11   -1    0    0    0    0 -0.00000000000E+00 -0.00000000000E+00 -0.45593999997E+02  0.45594000000E+02  0.51100000000E-03 0.  1.
    9900012    2    1    2    0    0 -0.18704323815E+02  0.84695297552E+01 -0.24395397065E+02  0.59301951929E+02  0.50000014409E+02 0.  0.
         12    1    1    2    0    0  0.18704323815E+02 -0.84695297552E+01  0.24395397065E+02  0.31886048071E+02  0.00000000000E+00 0. -1.
         11    1    3    3    0    0 -0.39964552887E+01  0.18460761321E+02 -0.17182742836E+02  0.25534643429E+02  0.51100000000E-03 0. -1.
        -11    1    3    3    0    0 -0.21927959927E+02 -0.93378874034E+01 -0.10202575663E+02  0.25925356664E+02  0.51100000000E-03 0.  1.
         12    1    3    3    0    0  0.72200914004E+01 -0.65334416202E+00  0.29899214340E+01  0.78419518364E+01  0.00000000000E+00 0. -1.
</event>
<event>
 7    1  0.4237994E-013  0.5930181E+02  0.7816164E-02  0.1266605E+00
        -11   -1    0    0    0    0  0.00000000000E+00  0.00000000000E+00  0.45593999997E+02  0.45594000000E+02  0.51100000000E-03 0.  1.
         11   -1    0    0    0    0 -0.00000000000E+00 -0.00000000000E+00 -0.45593999997E+02  0.45594000000E+02  0.51100000000E-03 0. -1.
    9900012    2    1    2    0    0 -0.22123745722E+02  0.11230092443E+02  0.20028830014E+02  0.59301809685E+02  0.49999754991E+02 0.  0.
         12    1    1    2    0    0  0.22123745722E+02 -0.11230092443E+02 -0.20028830014E+02  0.31886190315E+02  0.00000000000E+00 0. -1.
         11    1    3    3    0    0 -0.14380431848E+02 -0.10230815674E+02 -0.10025070121E+02  0.20297005708E+02  0.51100000000E-03 0. -1.
        -11    1    3    3    0    0 -0.49004640966E+01  0.72171023575E+01  0.50267946165E+01  0.10068256015E+02  0.51100000000E-03 0.  1.
         12    1    3    3    0    0 -0.28428497774E+01  0.14243805759E+02  0.25027105518E+02  0.28936547963E+02  0.00000000000E+00 0. -1.
</event>
<event>
 7    1  0.4237994E-013  0.5930192E+02  0.7816164E-02  0.1266605E+00
        -11   -1    0    0    0    0  0.00000000000E+00  0.00000000000E+00  0.45593999997E+02  0.45594000000E+02  0.51100000000E-03 0.  1.
         11   -1    0    0    0    0 -0.00000000000E+00 -0.00000000000E+00 -0.45593999997E+02  0.45594000000E+02  0.51100000000E-03 0. -1.
    9900012    2    1    2    0    0 -0.23523953344E+02 -0.53359379374E+01  0.20853616403E+02  0.59301922604E+02  0.49999960928E+02 0.  0.
         12    1    1    2    0    0  0.23523953344E+02  0.53359379374E+01 -0.20853616403E+02  0.31886077396E+02  0.00000000000E+00 0. -1.
         11    1    3    3    0    0 -0.48760125605E+01  0.56629385022E+01 -0.11146438007E+02  0.13419666593E+02  0.51100000000E-03 0. -1.
        -11    1    3    3    0    0 -0.30980930362E+01 -0.14450456319E+02  0.23676125984E+02  0.27910084381E+02  0.51100000000E-03 0.  1.
         12    1    3    3    0    0 -0.15549847748E+02  0.34515798793E+01  0.83239284257E+01  0.17972171629E+02  0.00000000000E+00 0. -1.
</event>
<event>
 7    1  0.4237994E-013  0.5930199E+02  0.7816164E-02  0.1266605E+00
        -11   -1    0    0    0    0  0.00000000000E+00  0.00000000000E+00  0.45593999997E+02  0.45594000000E+02  0.51100000000E-03 0. -1.
         11   -1    0    0    0    0 -0.00000000000E+00 -0.00000000000E+00 -0.45593999997E+02  0.45594000000E+02  0.51100000000E-03 0.  1.
    9900012    2    1    2    0    0  0.68760099961E+01  0.13374151218E+01 -0.31107066367E+02  0.59301987853E+02  0.50000079926E+02 0.  0.
         12    1    1    2    0    0 -0.68760099961E+01 -0.13374151218E+01  0.31107066367E+02  0.31886012147E+02  0.00000000000E+00 0. -1.
         11    1    3    3    0    0  0.17124343853E+02  0.11711667262E+02 -0.12876925250E+02  0.24417647442E+02  0.51100000000E-03 0. -1.
        -11    1    3    3    0    0 -0.12662815931E+02 -0.10906441884E+02 -0.23631600537E+02  0.28943910000E+02  0.51100000000E-03 0.  1.
        -12    1    3    3    0    0  0.24144820737E+01  0.53218974308E+00  0.54014594193E+01  0.59404304108E+01  0.00000000000E+00 0.  1.
</event>
<event>
 7    1  0.4237994E-013  0.5930194E+02  0.7816164E-02  0.1266605E+00
        -11   -1    0    0    0    0  0.00000000000E+00  0.00000000000E+00  0.45593999997E+02  0.45594000000E+02  0.51100000000E-03 0.  1.
         11   -1    0    0    0    0 -0.00000000000E+00 -0.00000000000E+00 -0.45593999997E+02  0.45594000000E+02  0.51100000000E-03 0. -1.
    9900012    2    1    2    0    0 -0.30993471649E+02 -0.41566353187E+01  0.62328019452E+01  0.59301941571E+02  0.49999995520E+02 0.  0.
         12    1    1    2    0    0  0.30993471649E+02  0.41566353187E+01 -0.62328019452E+01  0.31886058429E+02  0.00000000000E+00 0. -1.
         11    1    3    3    0    0 -0.49360734562E+00  0.80246617522E+01 -0.58249824944E+01  0.99282055665E+01  0.51100000000E-03 0. -1.
        -11    1    3    3    0    0  0.13522588362E+01 -0.15745146873E+02  0.32371118355E+01  0.16131247544E+02  0.51100000000E-03 0.  1.
        -12    1    3    3    0    0 -0.31852123139E+02  0.35638498024E+01  0.88206726042E+01  0.33242488461E+02  0.00000000000E+00 0.  1.
</event>
<event>
 7    1  0.4237994E-013  0.5930193E+02  0.7816164E-02  0.1266605E+00
        -11   -1    0    0    0    0  0.00000000000E+00  0.00000000000E+00  0.45593999997E+02  0.45594000000E+02  0.51100000000E-03 0. -1.
         11   -1    0    0    0    0 -0.00000000000E+00 -0.00000000000E+00 -0.45593999997E+02  0.45594000000E+02  0.51100000000E-03 0.  1.
    9900012    2    1    2    0    0 -0.40481529642E+01 -0.23434955833E+02  0.21239978947E+02  0.59301930895E+02  0.49999976049E+02 0.  0.
         12    1    1    2    0    0  0.40481529642E+01  0.23434955833E+02 -0.21239978947E+02  0.31886069105E+02  0.00000000000E+00 0. -1.
         11    1    3    3    0    0  0.61772201458E+01 -0.16502235623E+02  0.23443202764E+02  0.29326874797E+02  0.51100000000E-03 0. -1.
        -11    1    3    3    0    0  0.30004136657E+01  0.39571138076E+01 -0.99900941723E+01  0.11156308246E+02  0.51100000000E-03 0.  1.
         12    1    3    3    0    0 -0.13225786776E+02 -0.10889834018E+02  0.77868703552E+01  0.18818747851E+02  0.00000000000E+00 0. -1.
</event>
<event>
 7    1  0.4237994E-013  0.5930158E+02  0.7816164E-02  0.1266606E+00
        -11   -1    0    0    0    0  0.00000000000E+00  0.00000000000E+00  0.45593999997E+02  0.45594000000E+02  0.51100000000E-03 0.  1.
         11   -1    0    0    0    0 -0.00000000000E+00 -0.00000000000E+00 -0.45593999997E+02  0.45594000000E+02  0.51100000000E-03 0. -1.
    9900012    2    1    2    0    0 -0.22200200573E+02  0.11485510699E+02  0.19798434014E+02  0.59301578895E+02  0.49999334080E+02 0.  0.
         12    1    1    2    0    0  0.22200200573E+02 -0.11485510699E+02 -0.19798434014E+02  0.31886421105E+02  0.00000000000E+00 0. -1.
         11    1    3    3    0    0 -0.18437530058E+02  0.13193368993E+02 -0.69854936027E+01  0.23723503560E+02  0.51100000000E-03 0. -1.
        -11    1    3    3    0    0  0.34045137961E+01  0.70700100783E+01  0.21853690235E+02  0.23219809083E+02  0.51100000000E-03 0.  1.
         12    1    3    3    0    0 -0.71671843111E+01 -0.87778683724E+01  0.49302373821E+01  0.12358266252E+02  0.00000000000E+00 0. -1.
</event>
<event>
 7    1  0.4237994E-013  0.5930197E+02  0.7816164E-02  0.1266605E+00
        -11   -1    0    0    0    0  0.00000000000E+00  0.00000000000E+00  0.45593999997E+02  0.45594000000E+02  0.51100000000E-03 0. -1.
         11   -1    0    0    0    0 -0.00000000000E+00 -0.00000000000E+00 -0.45593999997E+02  0.45594000000E+02  0.51100000000E-03 0.  1.
    9900012    2    1    2    0    0 -0.11268584523E+02 -0.18646741318E+02 -0.23281692197E+02  0.59301966216E+02  0.50000040465E+02 0.  0.
         12    1    1    2    0    0  0.11268584523E+02  0.18646741318E+02  0.23281692197E+02  0.31886033784E+02  0.00000000000E+00 0. -1.
         11    1    3    3    0    0  0.13526973387E+02 -0.66523249597E+01 -0.12354954978E+02  0.19490442508E+02  0.51100000000E-03 0. -1.
        -11    1    3    3    0    0 -0.10232196468E+02 -0.10440840291E+02 -0.18293560653E+02  0.23417159353E+02  0.51100000000E-03 0.  1.
         12    1    3    3    0    0 -0.14563361441E+02 -0.15535760679E+01  0.73668234347E+01  0.16394364354E+02  0.00000000000E+00 0. -1.
</event>
<event>
 7    1  0.4237994E-013  0.5930196E+02  0.7816164E-02  0.1266605E+00
        -11   -1    0    0    0    0  0.00000000000E+00  0.00000000000E+00  0.45593999997E+02  0.45594000000E+02  0.51100000000E-03 0.  1.
         11   -1    0    0    0    0 -0.00000000000E+00 -0.00000000000E+00 -0.45593999997E+02  0.45594000000E+02  0.51100000000E-03 0. -1.
    9900012    2    1    2    0    0 -0.77161262147E+01 -0.48724270450E+01  0.30552261929E+02  0.59301955121E+02  0.50000020232E+02 0.  0.
         12    1    1    2    0    0  0.77161262147E+01  0.48724270450E+01 -0.30552261929E+02  0.31886044879E+02  0.00000000000E+00 0. -1.
         11    1    3    3    0    0  0.58858148958E+00  0.37148051762E+01 -0.63131686695E+01  0.73486260333E+01  0.51100000000E-03 0. -1.
        -11    1    3    3    0    0  0.17610986043E+01 -0.18003777353E+02  0.33008079764E+02  0.37640015903E+02  0.51100000000E-03 0.  1.
         12    1    3    3    0    0 -0.10065806309E+02  0.94165451314E+01  0.38573508343E+01  0.14313313184E+02  0.00000000000E+00 0. -1.
</event>
<event>
 7    1  0.4237994E-013  0.5930194E+02  0.7816164E-02  0.1266605E+00
        -11   -1    0    0    0    0  0.00000000000E+00  0.00000000000E+00  0.45593999997E+02  0.45594000000E+02  0.51100000000E-03 0.  1.
         11   -1    0    0    0    0 -0.00000000000E+00 -0.00000000000E+00 -0.45593999997E+02  0.45594000000E+02  0.51100000000E-03 0. -1.
    9900012    2    1    2    0    0  0.13423141642E+02 -0.28417438001E+02 -0.53841822297E+01  0.59301938275E+02  0.49999989508E+02 0.  0.
         12    1    1    2    0    0 -0.13423141642E+02  0.28417438001E+02  0.53841822297E+01  0.31886061725E+02  0.00000000000E+00 0. -1.
         11    1    3    3    0    0 -0.47533242119E+01  0.50533981786E+01 -0.12872494408E+02  0.14622996846E+02  0.51100000000E-03 0. -1.
        -11    1    3    3    0    0  0.13458407472E+02 -0.58348415900E+01  0.78573476310E+01  0.16640673668E+02  0.51100000000E-03 0.  1.
         12    1    3    3    0    0  0.47180583813E+01 -0.27635994590E+02 -0.36903545286E+00  0.28038267761E+02  0.00000000000E+00 0. -1.
</event>
<event>
 7    1  0.4237994E-013  0.5930193E+02  0.7816164E-02  0.1266605E+00
        -11   -1    0    0    0    0  0.00000000000E+00  0.00000000000E+00  0.45593999997E+02  0.45594000000E+02  0.51100000000E-03 0. -1.
         11   -1    0    0    0    0 -0.00000000000E+00 -0.00000000000E+00 -0.45593999997E+02  0.45594000000E+02  0.51100000000E-03 0.  1.
    9900012    2    1    2    0    0 -0.20818811745E+02  0.11023107168E+02 -0.21489284746E+02  0.59301934500E+02  0.49999982624E+02 0.  0.
         12    1    1    2    0    0  0.20818811745E+02 -0.11023107168E+02  0.21489284746E+02  0.31886065500E+02  0.00000000000E+00 0. -1.
         11    1    3    3    0    0 -0.14698647793E+02 -0.10076962167E+02 -0.25175450147E+02  0.30844751641E+02  0.51100000000E-03 0. -1.
        -11    1    3    3    0    0  0.31818616996E+01  0.27563321482E+01  0.64527188289E+01  0.77044916336E+01  0.51100000000E-03 0.  1.
        -12    1    3    3    0    0 -0.93020256519E+01  0.18343737187E+02 -0.27665534284E+01  0.20752691225E+02  0.00000000000E+00 0.  1.
</event>
<event>
 7    1  0.4237994E-013  0.5930193E+02  0.7816164E-02  0.1266605E+00
        -11   -1    0    0    0    0  0.00000000000E+00  0.00000000000E+00  0.45593999997E+02  0.45594000000E+02  0.51100000000E-03 0. -1.
         11   -1    0    0    0    0 -0.00000000000E+00 -0.00000000000E+00 -0.45593999997E+02  0.45594000000E+02  0.51100000000E-03 0.  1.
    9900012    2    1    2    0    0  0.76161552691E+01 -0.15172684079E+02 -0.26990842127E+02  0.59301925893E+02  0.49999966926E+02 0.  0.
         12    1    1    2    0    0 -0.76161552691E+01  0.15172684079E+02  0.26990842127E+02  0.31886074107E+02  0.00000000000E+00 0. -1.
         11    1    3    3    0    0  0.11921425611E+02  0.10956580098E+02 -0.16645666820E+02  0.23221654984E+02  0.51100000000E-03 0. -1.
        -11    1    3    3    0    0  0.71026412915E+01 -0.18953653440E+02 -0.10053673887E+02  0.22600107321E+02  0.51100000000E-03 0.  1.
         12    1    3    3    0    0 -0.11407911633E+02 -0.71756107371E+01 -0.29150141952E+00  0.13480163588E+02  0.00000000000E+00 0. -1.
</event>
<event>
 7    1  0.4237994E-013  0.5930190E+02  0.7816164E-02  0.1266605E+00
        -11   -1    0    0    0    0  0.00000000000E+00  0.00000000000E+00  0.45593999997E+02  0.45594000000E+02  0.51100000000E-03 0. -1.
         11   -1    0    0    0    0 -0.00000000000E+00 -0.00000000000E+00 -0.45593999997E+02  0.45594000000E+02  0.51100000000E-03 0.  1.
    9900012    2    1    2    0    0 -0.10646437947E+02  0.19771304965E+02 -0.22637853112E+02  0.59301897471E+02  0.49999915092E+02 0.  0.
         12    1    1    2    0    0  0.10646437947E+02 -0.19771304965E+02  0.22637853112E+02  0.31886102529E+02  0.00000000000E+00 0. -1.
         11    1    3    3    0    0 -0.13479711195E+02  0.33828524761E+02 -0.85260773232E+01  0.37400076152E+02  0.51100000000E-03 0. -1.
        -11    1    3    3    0    0 -0.17922576427E+01 -0.10041065887E+02 -0.63537236553E+01  0.12016862991E+02  0.51100000000E-03 0.  1.
         12    1    3    3    0    0  0.46255308904E+01 -0.40161539091E+01 -0.77580521335E+01  0.98849583280E+01  0.00000000000E+00 0. -1.
</event>
<event>
 7    1  0.4237994E-013  0.5930192E+02  0.7816164E-02  0.1266605E+00
        -11   -1    0    0    0    0  0.00000000000E+00  0.00000000000E+00  0.45593999997E+02  0.45594000000E+02  0.51100000000E-03 0.  1.
         11   -1    0    0    0    0 -0.00000000000E+00 -0.00000000000E+00 -0.45593999997E+02  0.45594000000E+02  0.51100000000E-03 0. -1.
    9900012    2    1    2    0    0  0.19003650905E+01 -0.71486289790E+01  0.31016254269E+02  0.59301916631E+02  0.49999950035E+02 0.  0.
         12    1    1    2    0    0 -0.19003650905E+01  0.71486289790E+01 -0.31016254269E+02  0.31886083369E+02  0.00000000000E+00 0. -1.
         11    1    3    3    0    0 -0.37697197404E+01 -0.98994762808E+01 -0.11256999004E+02  0.15457375081E+02  0.51100000000E-03 0. -1.
        -11    1    3    3    0    0 -0.10775779913E+01 -0.26398170151E+01  0.13745759555E+02  0.14038365796E+02  0.51100000000E-03 0.  1.
         12    1    3    3    0    0  0.67476628221E+01  0.53906643169E+01  0.28527493717E+02  0.29806175755E+02  0.00000000000E+00 0. -1.
</event>
<event>
 7    1  0.4237994E-013  0.5930193E+02  0.7816164E-02  0.1266605E+00
        -11   -1    0    0    0    0  0.00000000000E+00  0.00000000000E+00  0.45593999997E+02  0.45594000000E+02  0.51100000000E-03 0.  1.
         11   -1    0    0    0    0 -0.00000000000E+00 -0.00000000000E+00 -0.45593999997E+02  0.45594000000E+02  0.51100000000E-03 0. -1.
    9900012    2    1    2    0    0  0.12071524435E+02 -0.76089615137E+00  0.29502893241E+02  0.59301931338E+02  0.49999976857E+02 0.  0.
         12    1    1    2    0    0 -0.12071524435E+02  0.76089615137E+00 -0.29502893241E+02  0.31886068662E+02  0.00000000000E+00 0. -1.
         11    1    3    3    0    0 -0.12142242809E+02 -0.10247200136E+02  0.20955257759E+02  0.26297566410E+02  0.51100000000E-03 0. -1.
        -11    1    3    3    0    0  0.19620400030E+02  0.13301118950E+02  0.11496665924E+02  0.26344889263E+02  0.51100000000E-03 0.  1.
         12    1    3    3    0    0  0.45933672134E+01 -0.38148149654E+01 -0.29490304431E+01  0.66594756649E+01  0.00000000000E+00 0. -1.
</event>
<event>
 7    1  0.4237994E-013  0.5930193E+02  0.7816164E-02  0.1266605E+00
        -11   -1    0    0    0    0  0.00000000000E+00  0.00000000000E+00  0.45593999997E+02  0.45594000000E+02  0.51100000000E-03 0.  1.
         11   -1    0    0    0    0 -0.00000000000E+00 -0.00000000000E+00 -0.45593999997E+02  0.45594000000E+02  0.51100000000E-03 0. -1.
    9900012    2    1    2    0    0 -0.21594025169E+02 -0.12285647988E+02  0.19987056083E+02  0.59301929681E+02  0.49999973835E+02 0.  0.
         12    1    1    2    0    0  0.21594025169E+02  0.12285647988E+02 -0.19987056083E+02  0.31886070319E+02  0.00000000000E+00 0. -1.
         11    1    3    3    0    0  0.21313981960E+01 -0.45671742007E+01  0.27471372267E+02  0.27929880647E+02  0.51100000000E-03 0.  1.
        -11    1    3    3    0    0 -0.25496998474E+02 -0.75896726342E+01 -0.32751975396E+01  0.26803488226E+02  0.51100000000E-03 0. -1.
         12    1    3    3    0    0  0.17715751084E+01 -0.12880115352E+00 -0.42091186441E+01  0.45685608086E+01  0.00000000000E+00 0. -1.
</event>
<event>
 7    1  0.4237994E-013  0.5930203E+02  0.7816164E-02  0.1266604E+00
        -11   -1    0    0    0    0  0.00000000000E+00  0.00000000000E+00  0.45593999997E+02  0.45594000000E+02  0.51100000000E-03 0.  1.
         11   -1    0    0    0    0 -0.00000000000E+00 -0.00000000000E+00 -0.45593999997E+02  0.45594000000E+02  0.51100000000E-03 0. -1.
    9900012    2    1    2    0    0  0.17942385686E+02 -0.15267267404E+02  0.21487125544E+02  0.59302027815E+02  0.50000152807E+02 0.  0.
         12    1    1    2    0    0 -0.17942385686E+02  0.15267267404E+02 -0.21487125544E+02  0.31885972185E+02  0.00000000000E+00 0. -1.
         11    1    3    3    0    0 -0.92923399735E+01  0.19339560890E+01 -0.58440268443E+01  0.11146318601E+02  0.51100000000E-03 0. -1.
        -11    1    3    3    0    0  0.13266574358E+01 -0.54534741385E+01  0.16980560092E+02  0.17884066132E+02  0.51100000000E-03 0.  1.
         12    1    3    3    0    0  0.25908068223E+02 -0.11747749354E+02  0.10350592297E+02  0.30271643081E+02  0.00000000000E+00 0. -1.
</event>
<event>
 7    1  0.4237994E-013  0.5930193E+02  0.7816164E-02  0.1266605E+00
        -11   -1    0    0    0    0  0.00000000000E+00  0.00000000000E+00  0.45593999997E+02  0.45594000000E+02  0.51100000000E-03 0.  1.
         11   -1    0    0    0    0 -0.00000000000E+00 -0.00000000000E+00 -0.45593999997E+02  0.45594000000E+02  0.51100000000E-03 0. -1.
    9900012    2    1    2    0    0 -0.49679624940E+00  0.57327276633E+01  0.31362567174E+02  0.59301927920E+02  0.49999970623E+02 0.  0.
         12    1    1    2    0    0  0.49679624940E+00 -0.57327276633E+01 -0.31362567174E+02  0.31886072080E+02  0.00000000000E+00 0. -1.
         11    1    3    3    0    0  0.18151948763E+02 -0.10004291906E+02  0.61193335233E+01  0.21610769154E+02  0.51100000000E-03 0. -1.
        -11    1    3    3    0    0 -0.14150891893E+02  0.53137017517E+01  0.81535738929E+01  0.17174514117E+02  0.51100000000E-03 0.  1.
         12    1    3    3    0    0 -0.44978531189E+01  0.10423317817E+02  0.17089659757E+02  0.20516644648E+02  0.00000000000E+00 0. -1.
</event>
<event>
 7    1  0.4237994E-013  0.5930193E+02  0.7816164E-02  0.1266605E+00
        -11   -1    0    0    0    0  0.00000000000E+00  0.00000000000E+00  0.45593999997E+02  0.45594000000E+02  0.51100000000E-03 0.  1.
         11   -1    0    0    0    0 -0.00000000000E+00 -0.00000000000E+00 -0.45593999997E+02  0.45594000000E+02  0.51100000000E-03 0. -1.
    9900012    2    1    2    0    0 -0.19747503051E+02 -0.77639384065E+00  0.25023084526E+02  0.59301930575E+02  0.49999975466E+02 0.  0.
         12    1    1    2    0    0  0.19747503051E+02  0.77639384065E+00 -0.25023084526E+02  0.31886069425E+02  0.00000000000E+00 0. -1.
         11    1    3    3    0    0 -0.77807381333E+01 -0.56819688837E+01 -0.98738238895E+01  0.13795544743E+02  0.51100000000E-03 0. -1.
        -11    1    3    3    0    0 -0.13261768428E+02 -0.75159462345E+01  0.26117281575E+02  0.30240309965E+02  0.51100000000E-03 0.  1.
        -12    1    3    3    0    0  0.12950035101E+01  0.12421521278E+02  0.87796268402E+01  0.15266075867E+02  0.00000000000E+00 0.  1.
</event>
<event>
 7    1  0.4237994E-013  0.5930193E+02  0.7816164E-02  0.1266605E+00
        -11   -1    0    0    0    0  0.00000000000E+00  0.00000000000E+00  0.45593999997E+02  0.45594000000E+02  0.51100000000E-03 0.  1.
         11   -1    0    0    0    0 -0.00000000000E+00 -0.00000000000E+00 -0.45593999997E+02  0.45594000000E+02  0.51100000000E-03 0. -1.
    9900012    2    1    2    0    0 -0.31632089405E+02  0.30290654195E+01 -0.26376178358E+01  0.59301931799E+02  0.49999977698E+02 0.  0.
         12    1    1    2    0    0  0.31632089405E+02 -0.30290654195E+01  0.26376178358E+01  0.31886068201E+02  0.00000000000E+00 0. -1.
         11    1    3    3    0    0  0.92858402162E+01 -0.30304268942E+01  0.74305186161E+01  0.12272853085E+02  0.51100000000E-03 0. -1.
        -11    1    3    3    0    0 -0.26405043787E+02 -0.58380250736E+01 -0.76752032008E+01  0.28110809640E+02  0.51100000000E-03 0.  1.
        -12    1    3    3    0    0 -0.14512885835E+02  0.11897517387E+02 -0.23929332512E+01  0.18918269074E+02  0.00000000000E+00 0.  1.
</event>
<event>
 7    1  0.4237994E-013  0.5930193E+02  0.7816164E-02  0.1266605E+00
        -11   -1    0    0    0    0  0.00000000000E+00  0.00000000000E+00  0.45593999997E+02  0.45594000000E+02  0.51100000000E-03 0.  1.
         11   -1    0    0    0    0 -0.00000000000E+00 -0.00000000000E+00 -0.45593999997E+02  0.45594000000E+02  0.51100000000E-03 0. -1.
    9900012    2    1    2    0    0 -0.18994498961E+02  0.60119730168E+01  0.24895513632E+02  0.59301930795E+02  0.49999975866E+02 0.  0.
         12    1    1    2    0    0  0.18994498961E+02 -0.60119730168E+01 -0.24895513632E+02  0.31886069205E+02  0.00000000000E+00 0. -1.
         11    1    3    3    0    0 -0.69516594587E+01  0.10973895091E+02 -0.47380457292E+01  0.13827545707E+02  0.51100000000E-03 0. -1.
        -11    1    3    3    0    0 -0.15732797769E+02 -0.54904305407E+01  0.35101973546E+02  0.38856328960E+02  0.51100000000E-03 0.  1.
        -12    1    3    3    0    0  0.36899582662E+01  0.52850846686E+00 -0.54684141848E+01  0.66180561272E+01  0.00000000000E+00 0.  1.
</event>
<event>
 7    1  0.4237994E-013  0.5930198E+02  0.7816164E-02  0.1266605E+00
        -11   -1    0    0    0    0  0.00000000000E+00  0.00000000000E+00  0.45593999997E+02  0.45594000000E+02  0.51100000000E-03 0.  1.
         11   -1    0    0    0    0 -0.00000000000E+00 -0.00000000000E+00 -0.45593999997E+02  0.45594000000E+02  0.51100000000E-03 0. -1.
    9900012    2    1    2    0    0  0.21157677378E+02 -0.15216694446E+01  0.23806631291E+02  0.59301976677E+02  0.50000059545E+02 0.  0.
         12    1    1    2    0    0 -0.21157677378E+02  0.15216694446E+01 -0.23806631291E+02  0.31886023323E+02  0.00000000000E+00 0. -1.
         11    1    3    3    0    0 -0.29749998318E+01  0.10549901044E+01 -0.12771767066E+02  0.13156050410E+02  0.51100000000E-03 0. -1.
        -11    1    3    3    0    0  0.14921042520E+02 -0.79467477946E+01  0.26752609819E+02  0.31646333797E+02  0.51100000000E-03 0.  1.
         12    1    3    3    0    0  0.92116346897E+01  0.53700882456E+01  0.98257885385E+01  0.14499592471E+02  0.00000000000E+00 0. -1.
</event>
<event>
 7    1  0.4237994E-013  0.5930195E+02  0.7816164E-02  0.1266605E+00
        -11   -1    0    0    0    0  0.00000000000E+00  0.00000000000E+00  0.45593999997E+02  0.45594000000E+02  0.51100000000E-03 0.  1.
         11   -1    0    0    0    0 -0.00000000000E+00 -0.00000000000E+00 -0.45593999997E+02  0.45594000000E+02  0.51100000000E-03 0. -1.
    9900012    2    1    2    0    0  0.19384579677E+02  0.30873578702E+01  0.25128204154E+02  0.59301947377E+02  0.50000006108E+02 0.  0.
         12    1    1    2    0    0 -0.19384579677E+02 -0.30873578702E+01 -0.25128204154E+02  0.31886052623E+02  0.00000000000E+00 0. -1.
         11    1    3    3    0    0  0.22946511538E+01 -0.10137272873E+01 -0.11979801202E+02  0.12239636597E+02  0.51100000000E-03 0. -1.
        -11    1    3    3    0    0  0.16645400980E+02  0.10250236139E+02  0.35755701623E+02  0.40750544948E+02  0.51100000000E-03 0.  1.
        -12    1    3    3    0    0  0.44452754289E+00 -0.61491509816E+01  0.13523037331E+01  0.63117658319E+01  0.00000000000E+00 0.  1.
</event>
<event>
 7    1  0.4237994E-013  0.5930208E+02  0.7816164E-02  0.1266604E+00
        -11   -1    0    0    0    0  0.00000000000E+00  0.00000000000E+00  0.45593999997E+02  0.45594000000E+02  0.51100000000E-03 0. -1.
         11   -1    0    0    0    0 -0.00000000000E+00 -0.00000000000E+00 -0.45593999997E+02  0.45594000000E+02  0.51100000000E-03 0.  1.
    9900012    2    1    2    0    0  0.12609231006E+02 -0.20636333180E+02 -0.20781263619E+02  0.59302080360E+02  0.50000248637E+02 0.  0.
         12    1    1    2    0    0 -0.12609231006E+02  0.20636333180E+02  0.20781263619E+02  0.31885919640E+02  0.00000000000E+00 0. -1.
         11    1    3    3    0    0  0.20395615297E+02 -0.14499712530E+02  0.97916512815E+01  0.26871903950E+02  0.51100000000E-03 0. -1.
        -11    1    3    3    0    0 -0.66860988696E+01 -0.40231129473E+01 -0.27223061675E+02  0.28319329849E+02  0.51100000000E-03 0.  1.
        -12    1    3    3    0    0 -0.11002854211E+01 -0.21135077024E+01 -0.33498532264E+01  0.41108465618E+01  0.00000000000E+00 0.  1.
</event>
<event>
 7    1  0.4237994E-013  0.5930195E+02  0.7816164E-02  0.1266605E+00
        -11   -1    0    0    0    0  0.00000000000E+00  0.00000000000E+00  0.45593999997E+02  0.45594000000E+02  0.51100000000E-03 0. -1.
         11   -1    0    0    0    0 -0.00000000000E+00 -0.00000000000E+00 -0.45593999997E+02  0.45594000000E+02  0.51100000000E-03 0.  1.
    9900012    2    1    2    0    0  0.21188176557E+02  0.74013065287E+01 -0.22649550442E+02  0.59301948200E+02  0.50000007610E+02 0.  0.
         12    1    1    2    0    0 -0.21188176557E+02 -0.74013065287E+01  0.22649550442E+02  0.31886051800E+02  0.00000000000E+00 0. -1.
         11    1    3    3    0    0 -0.13717706802E+02  0.65232239944E+01 -0.11397489664E+02  0.18990279147E+02  0.51100000000E-03 0. -1.
        -11    1    3    3    0    0  0.26743287007E+02  0.12961611925E+01 -0.46607310484E+00  0.26778735186E+02  0.51100000000E-03 0.  1.
        -12    1    3    3    0    0  0.81625963520E+01 -0.41807865817E+00 -0.10785987673E+02  0.13532933867E+02  0.00000000000E+00 0.  1.
</event>
<event>
 7    1  0.4237994E-013  0.5930195E+02  0.7816164E-02  0.1266605E+00
        -11   -1    0    0    0    0  0.00000000000E+00  0.00000000000E+00  0.45593999997E+02  0.45594000000E+02  0.51100000000E-03 0.  1.
         11   -1    0    0    0    0 -0.00000000000E+00 -0.00000000000E+00 -0.45593999997E+02  0.45594000000E+02  0.51100000000E-03 0. -1.
    9900012    2    1    2    0    0 -0.12619834863E+01 -0.25085260430E+02  0.19643242501E+02  0.59301954947E+02  0.50000019915E+02 0.  0.
         12    1    1    2    0    0  0.12619834863E+01  0.25085260430E+02 -0.19643242501E+02  0.31886045053E+02  0.00000000000E+00 0. -1.
         11    1    3    3    0    0 -0.36464458492E+01 -0.11776440207E+01 -0.12099693482E+01  0.40183875940E+01  0.51100000000E-03 0. -1.
        -11    1    3    3    0    0  0.79737297179E+01  0.68259206491E+01  0.21623515451E+02  0.24036430248E+02  0.51100000000E-03 0.  1.
        -12    1    3    3    0    0 -0.55892673550E+01 -0.30733537058E+02 -0.77030360162E+00  0.31247137106E+02  0.00000000000E+00 0.  1.
</event>
<event>
 7    1  0.4237994E-013  0.5930198E+02  0.7816164E-02  0.1266605E+00
        -11   -1    0    0    0    0  0.00000000000E+00  0.00000000000E+00  0.45593999997E+02  0.45594000000E+02  0.51100000000E-03 0.  1.
         11   -1    0    0    0    0 -0.00000000000E+00 -0.00000000000E+00 -0.45593999997E+02  0.45594000000E+02  0.51100000000E-03 0. -1.
    9900012    2    1    2    0    0 -0.74610627404E+01  0.25222691032E+02  0.18024064681E+02  0.59301976295E+02  0.50000058847E+02 0.  0.
         12    1    1    2    0    0  0.74610627404E+01 -0.25222691032E+02 -0.18024064681E+02  0.31886023705E+02  0.00000000000E+00 0. -1.
         11    1    3    3    0    0 -0.14031414624E+02 -0.40218291301E+01  0.18301522631E+02  0.23409430509E+02  0.51100000000E-03 0. -1.
        -11    1    3    3    0    0  0.21736061884E+01  0.30971562954E+02 -0.12366884453E+01  0.31072361903E+02  0.51100000000E-03 0.  1.
         12    1    3    3    0    0  0.43967456954E+01 -0.17270427917E+01  0.95923049585E+00  0.48201838823E+01  0.00000000000E+00 0. -1.
</event>
<event>
 7    1  0.4237994E-013  0.5930195E+02  0.7816164E-02  0.1266605E+00
        -11   -1    0    0    0    0  0.00000000000E+00  0.00000000000E+00  0.45593999997E+02  0.45594000000E+02  0.51100000000E-03 0.  1.
         11   -1    0    0    0    0 -0.00000000000E+00 -0.00000000000E+00 -0.45593999997E+02  0.45594000000E+02  0.51100000000E-03 0. -1.
    9900012    2    1    2    0    0  0.17287591995E+02  0.23676011561E+02 -0.12542159317E+02  0.59301951001E+02  0.50000012718E+02 0.  0.
         12    1    1    2    0    0 -0.17287591995E+02 -0.23676011561E+02  0.12542159317E+02  0.31886048999E+02  0.00000000000E+00 0. -1.
         11    1    3    3    0    0 -0.23231654123E+01 -0.37146301479E+01  0.13615072724E+01  0.45879491042E+01  0.51100000000E-03 0. -1.
        -11    1    3    3    0    0  0.22062450845E+02  0.31084910760E+02  0.20323536769E+01  0.38172684946E+02  0.51100000000E-03 0.  1.
        -12    1    3    3    0    0 -0.24516934375E+01 -0.36942690515E+01 -0.15936020266E+02  0.16541316951E+02  0.00000000000E+00 0.  1.
</event>
<event>
 7    1  0.4237994E-013  0.5930194E+02  0.7816164E-02  0.1266605E+00
        -11   -1    0    0    0    0  0.00000000000E+00  0.00000000000E+00  0.45593999997E+02  0.45594000000E+02  0.51100000000E-03 0.  1.
         11   -1    0    0    0    0 -0.00000000000E+00 -0.00000000000E+00 -0.45593999997E+02  0.45594000000E+02  0.51100000000E-03 0. -1.
    9900012    2    1    2    0    0  0.19510409200E+02 -0.14591358476E+02  0.20570780784E+02  0.59301939858E+02  0.49999992396E+02 0.  0.
         12    1    1    2    0    0 -0.19510409200E+02  0.14591358476E+02 -0.20570780784E+02  0.31886060142E+02  0.00000000000E+00 0. -1.
         11    1    3    3    0    0 -0.17177779854E+01  0.10012055238E+02  0.22184165276E+02  0.24399368856E+02  0.51100000000E-03 0.  1.
        -11    1    3    3    0    0  0.20656698000E+02 -0.16011336032E+02 -0.24548512179E+01  0.26250492349E+02  0.51100000000E-03 0. -1.
        -12    1    3    3    0    0  0.57148918513E+00 -0.85920776824E+01  0.84146672537E+00  0.86520786542E+01  0.00000000000E+00 0.  1.
</event>
<event>
 7    1  0.4237994E-013  0.5930196E+02  0.7816164E-02  0.1266605E+00
        -11   -1    0    0    0    0  0.00000000000E+00  0.00000000000E+00  0.45593999997E+02  0.45594000000E+02  0.51100000000E-03 0.  1.
         11   -1    0    0    0    0 -0.00000000000E+00 -0.00000000000E+00 -0.45593999997E+02  0.45594000000E+02  0.51100000000E-03 0. -1.
    9900012    2    1    2    0    0 -0.24042346874E+02 -0.19209037087E+02  0.83485267551E+01  0.59301961551E+02  0.50000031957E+02 0.  0.
         12    1    1    2    0    0  0.24042346874E+02  0.19209037087E+02 -0.83485267551E+01  0.31886038449E+02  0.00000000000E+00 0. -1.
         11    1    3    3    0    0 -0.10764021035E+02 -0.96986930122E+01 -0.15583682091E+02  0.21278626430E+02  0.51100000000E-03 0. -1.
        -11    1    3    3    0    0 -0.17136997367E+02  0.21215674223E+01  0.14748147537E+02  0.22708711613E+02  0.51100000000E-03 0.  1.
         12    1    3    3    0    0  0.38586715282E+01 -0.11631911497E+02  0.91840613095E+01  0.15314623507E+02  0.00000000000E+00 0. -1.
</event>
<event>
 7    1  0.4237994E-013  0.5930195E+02  0.7816164E-02  0.1266605E+00
        -11   -1    0    0    0    0  0.00000000000E+00  0.00000000000E+00  0.45593999997E+02  0.45594000000E+02  0.51100000000E-03 0.  1.
         11   -1    0    0    0    0 -0.00000000000E+00 -0.00000000000E+00 -0.45593999997E+02  0.45594000000E+02  0.51100000000E-03 0. -1.
    9900012    2    1    2    0    0 -0.18239256215E+02 -0.23873312556E+02  0.10682435218E+02  0.59301953807E+02  0.50000017835E+02 0.  0.
         12    1    1    2    0    0  0.18239256215E+02  0.23873312556E+02 -0.10682435218E+02  0.31886046193E+02  0.00000000000E+00 0. -1.
         11    1    3    3    0    0 -0.33184120159E+01 -0.20268921772E+02 -0.85268751726E+01  0.22238449779E+02  0.51100000000E-03 0. -1.
        -11    1    3    3    0    0 -0.99360697256E+01 -0.41590530747E+01  0.26275857892E+02  0.28397956129E+02  0.51100000000E-03 0.  1.
        -12    1    3    3    0    0 -0.49847744732E+01  0.55466229122E+00 -0.70665475014E+01  0.86655478994E+01  0.00000000000E+00 0.  1.
</event>
<event>
 7    1  0.4237994E-013  0.5930194E+02  0.7816164E-02  0.1266605E+00
        -11   -1    0    0    0    0  0.00000000000E+00  0.00000000000E+00  0.45593999997E+02  0.45594000000E+02  0.51100000000E-03 0.  1.
         11   -1    0    0    0    0 -0.00000000000E+00 -0.00000000000E+00 -0.45593999997E+02  0.45594000000E+02  0.51100000000E-03 0. -1.
    9900012    2    1    2    0    0  0.15540202550E+02  0.41278183779E+01  0.27535140448E+02  0.59301941301E+02  0.49999995027E+02 0.  0.
         12    1    1    2    0    0 -0.15540202550E+02 -0.41278183779E+01 -0.27535140448E+02  0.31886058699E+02  0.00000000000E+00 0. -1.
         11    1    3    3    0    0  0.44302489131E+01  0.16008850270E+02  0.99772375589E+01  0.19376678300E+02  0.51100000000E-03 0. -1.
        -11    1    3    3    0    0  0.19783249895E+00 -0.81747235419E+01  0.24935271312E+02  0.26241817741E+02  0.51100000000E-03 0.  1.
        -12    1    3    3    0    0  0.10912121138E+02 -0.37063083499E+01 -0.73773684234E+01  0.13683445260E+02  0.00000000000E+00 0.  1.
</event>
<event>
 7    1  0.4237994E-013  0.5930182E+02  0.7816164E-02  0.1266605E+00
        -11   -1    0    0    0    0  0.00000000000E+00  0.00000000000E+00  0.45593999997E+02  0.45594000000E+02  0.51100000000E-03 0.  1.
         11   -1    0    0    0    0 -0.00000000000E+00 -0.00000000000E+00 -0.45593999997E+02  0.45594000000E+02  0.51100000000E-03 0. -1.
    9900012    2    1    2    0    0  0.25623057992E+02 -0.13006592235E+02  0.13820846569E+02  0.59301822081E+02  0.49999777597E+02 0.  0.
         12    1    1    2    0    0 -0.25623057992E+02  0.13006592235E+02 -0.13820846569E+02  0.31886177919E+02  0.00000000000E+00 0. -1.
         11    1    3    3    0    0  0.27977187414E+02  0.10254942820E+02 -0.75633853099E+00  0.29807027965E+02  0.51100000000E-03 0. -1.
        -11    1    3    3    0    0 -0.18931134599E+01 -0.19986313160E+02  0.70580155928E+01  0.21280323698E+02  0.51100000000E-03 0.  1.
         12    1    3    3    0    0 -0.46101596239E+00 -0.32752218952E+01  0.75191695068E+01  0.82144704183E+01  0.00000000000E+00 0. -1.
</event>
<event>
 7    1  0.4237994E-013  0.5930194E+02  0.7816164E-02  0.1266605E+00
        -11   -1    0    0    0    0  0.00000000000E+00  0.00000000000E+00  0.45593999997E+02  0.45594000000E+02  0.51100000000E-03 0.  1.
         11   -1    0    0    0    0 -0.00000000000E+00 -0.00000000000E+00 -0.45593999997E+02  0.45594000000E+02  0.51100000000E-03 0. -1.
    9900012    2    1    2    0    0 -0.37856687136E+01  0.24691900545E+02  0.19816655453E+02  0.59301936061E+02  0.49999985471E+02 0.  0.
         12    1    1    2    0    0  0.37856687136E+01 -0.24691900545E+02 -0.19816655453E+02  0.31886063939E+02  0.00000000000E+00 0. -1.
         11    1    3    3    0    0  0.30296426259E-01 -0.12982896010E+02  0.24650919906E+01  0.13214884996E+02  0.51100000000E-03 0. -1.
        -11    1    3    3    0    0  0.72321164892E+01  0.71297353884E+01  0.31168375431E+01  0.10623149823E+02  0.51100000000E-03 0.  1.
         12    1    3    3    0    0 -0.11048081629E+02  0.30545061167E+02  0.14234725919E+02  0.35463901243E+02  0.00000000000E+00 0. -1.
</event>
<event>
 7    1  0.4237994E-013  0.5930194E+02  0.7816164E-02  0.1266605E+00
        -11   -1    0    0    0    0  0.00000000000E+00  0.00000000000E+00  0.45593999997E+02  0.45594000000E+02  0.51100000000E-03 0.  1.
         11   -1    0    0    0    0 -0.00000000000E+00 -0.00000000000E+00 -0.45593999997E+02  0.45594000000E+02  0.51100000000E-03 0. -1.
    9900012    2    1    2    0    0  0.85132058047E+01 -0.28191595566E+02 -0.12226200114E+02  0.59301941874E+02  0.49999996071E+02 0.  0.
         12    1    1    2    0    0 -0.85132058047E+01  0.28191595566E+02  0.12226200114E+02  0.31886058126E+02  0.00000000000E+00 0. -1.
         11    1    3    3    0    0  0.16885215463E+02 -0.37806126800E+01  0.52898366246E+00  0.17311364979E+02  0.51100000000E-03 0. -1.
        -11    1    3    3    0    0 -0.17250667293E+02 -0.10484448799E+02  0.14045315043E+01  0.20235659062E+02  0.51100000000E-03 0.  1.
        -12    1    3    3    0    0  0.88786576343E+01 -0.13926534086E+02 -0.14159715281E+02  0.21754917832E+02  0.00000000000E+00 0.  1.
</event>
<event>
 7    1  0.4237994E-013  0.5930192E+02  0.7816164E-02  0.1266605E+00
        -11   -1    0    0    0    0  0.00000000000E+00  0.00000000000E+00  0.45593999997E+02  0.45594000000E+02  0.51100000000E-03 0. -1.
         11   -1    0    0    0    0 -0.00000000000E+00 -0.00000000000E+00 -0.45593999997E+02  0.45594000000E+02  0.51100000000E-03 0.  1.
    9900012    2    1    2    0    0 -0.22315040100E+02 -0.22729500731E+02 -0.14597199343E+01  0.59301921526E+02  0.49999958962E+02 0.  0.
         12    1    1    2    0    0  0.22315040100E+02  0.22729500731E+02  0.14597199343E+01  0.31886078474E+02  0.00000000000E+00 0. -1.
         11    1    3    3    0    0 -0.11604993703E+02 -0.34083591292E+02 -0.35177903765E+01  0.36176538303E+02  0.51100000000E-03 0. -1.
        -11    1    3    3    0    0 -0.10973255359E+02  0.15147011514E+02 -0.19645272939E+00  0.18705156639E+02  0.51100000000E-03 0.  1.
        -12    1    3    3    0    0  0.26320896189E+00 -0.37929209531E+01  0.22545231715E+01  0.44202265830E+01  0.00000000000E+00 0.  1.
</event>
<event>
 7    1  0.4237994E-013  0.5930190E+02  0.7816164E-02  0.1266605E+00
        -11   -1    0    0    0    0  0.00000000000E+00  0.00000000000E+00  0.45593999997E+02  0.45594000000E+02  0.51100000000E-03 0.  1.
         11   -1    0    0    0    0 -0.00000000000E+00 -0.00000000000E+00 -0.45593999997E+02  0.45594000000E+02  0.51100000000E-03 0. -1.
    9900012    2    1    2    0    0 -0.29650562432E+02  0.69228927272E+01  0.94678825311E+01  0.59301904349E+02  0.49999927635E+02 0.  0.
         12    1    1    2    0    0  0.29650562432E+02 -0.69228927272E+01 -0.94678825311E+01  0.31886095651E+02  0.00000000000E+00 0. -1.
         11    1    3    3    0    0  0.39746523039E+00  0.57023016410E+01 -0.13543356540E+01  0.58743891546E+01  0.51100000000E-03 0. -1.
        -11    1    3    3    0    0 -0.35474982804E+02 -0.79410256036E+01  0.18020622727E+02  0.40574340861E+02  0.51100000000E-03 0.  1.
        -12    1    3    3    0    0  0.54269551415E+01  0.91616166897E+01 -0.71984045422E+01  0.12853174333E+02  0.00000000000E+00 0.  1.
</event>
<event>
 7    1  0.4237994E-013  0.5930194E+02  0.7816164E-02  0.1266605E+00
        -11   -1    0    0    0    0  0.00000000000E+00  0.00000000000E+00  0.45593999997E+02  0.45594000000E+02  0.51100000000E-03 0. -1.
         11   -1    0    0    0    0 -0.00000000000E+00 -0.00000000000E+00 -0.45593999997E+02  0.45594000000E+02  0.51100000000E-03 0.  1.
    9900012    2    1    2    0    0  0.88553668549E+01 -0.29131613673E+02 -0.94684853076E+01  0.59301942681E+02  0.49999997543E+02 0.  0.
         12    1    1    2    0    0 -0.88553668549E+01  0.29131613673E+02  0.94684853076E+01  0.31886057319E+02  0.00000000000E+00 0. -1.
         11    1    3    3    0    0  0.20107445667E+02 -0.22979429600E+02  0.23785547767E+01  0.30627129788E+02  0.51100000000E-03 0. -1.
        -11    1    3    3    0    0 -0.11941766934E+02 -0.13100681662E+02 -0.12456542206E+02  0.21665620266E+02  0.51100000000E-03 0.  1.
         12    1    3    3    0    0  0.68968812229E+00  0.69484975886E+01  0.60950212150E+00  0.70091926269E+01  0.00000000000E+00 0. -1.
</event>
<event>
 7    1  0.4237994E-013  0.5930195E+02  0.7816164E-02  0.1266605E+00
        -11   -1    0    0    0    0  0.00000000000E+00  0.00000000000E+00  0.45593999997E+02  0.45594000000E+02  0.51100000000E-03 0.  1.
         11   -1    0    0    0    0 -0.00000000000E+00 -0.00000000000E+00 -0.45593999997E+02  0.45594000000E+02  0.51100000000E-03 0. -1.
    9900012    2    1    2    0    0  0.16345579246E+02  0.76059931907E+01  0.26300021311E+02  0.59301949535E+02  0.50000010044E+02 0.  0.
         12    1    1    2    0    0 -0.16345579246E+02 -0.76059931907E+01 -0.26300021311E+02  0.31886050465E+02  0.00000000000E+00 0. -1.
         11    1    3    3    0    0  0.41521682833E+01 -0.49317260690E+00 -0.43352047873E+01  0.60230989932E+01  0.51100000000E-03 0. -1.
        -11    1    3    3    0    0 -0.93796567654E+01 -0.11220887803E+02  0.98691056854E+01  0.17643285732E+02  0.51100000000E-03 0.  1.
        -12    1    3    3    0    0  0.21573067728E+02  0.19320053601E+02  0.20766120413E+02  0.35635564810E+02  0.00000000000E+00 0.  1.
</event>
<event>
 7    1  0.4237994E-013  0.5930192E+02  0.7816164E-02  0.1266605E+00
        -11   -1    0    0    0    0  0.00000000000E+00  0.00000000000E+00  0.45593999997E+02  0.45594000000E+02  0.51100000000E-03 0.  1.
         11   -1    0    0    0    0 -0.00000000000E+00 -0.00000000000E+00 -0.45593999997E+02  0.45594000000E+02  0.51100000000E-03 0. -1.
    9900012    2    1    2    0    0  0.29060448735E+02 -0.98345100780E+01  0.86887812962E+01  0.59301918560E+02  0.49999953553E+02 0.  0.
         12    1    1    2    0    0 -0.29060448735E+02  0.98345100780E+01 -0.86887812962E+01  0.31886081440E+02  0.00000000000E+00 0. -1.
         11    1    3    3    0    0  0.24319887723E+02 -0.21258011997E+02  0.41195736595E+01  0.32562722557E+02  0.51100000000E-03 0. -1.
        -11    1    3    3    0    0 -0.61478669785E+01 -0.86182290203E+00  0.78402384369E+01  0.10000417297E+02  0.51100000000E-03 0.  1.
         12    1    3    3    0    0  0.10888427991E+02  0.12285324821E+02 -0.32710308003E+01  0.16738778706E+02  0.00000000000E+00 0. -1.
</event>
<event>
 7    1  0.4237994E-013  0.5930197E+02  0.7816164E-02  0.1266605E+00
        -11   -1    0    0    0    0  0.00000000000E+00  0.00000000000E+00  0.45593999997E+02  0.45594000000E+02  0.51100000000E-03 0.  1.
         11   -1    0    0    0    0 -0.00000000000E+00 -0.00000000000E+00 -0.45593999997E+02  0.45594000000E+02  0.51100000000E-03 0. -1.
    9900012    2    1    2    0    0  0.42696777776E+01 -0.30032279574E+02 -0.98260471132E+01  0.59301965963E+02  0.50000040005E+02 0.  0.
         12    1    1    2    0    0 -0.42696777776E+01  0.30032279574E+02  0.98260471132E+01  0.31886034037E+02  0.00000000000E+00 0. -1.
         11    1    3    3    0    0  0.82278166519E+01 -0.29212403779E+02 -0.23910691801E+02  0.38636545965E+02  0.51100000000E-03 0. -1.
        -11    1    3    3    0    0 -0.76266282302E+01 -0.53238338388E+01  0.90731757779E+01  0.12993505449E+02  0.51100000000E-03 0.  1.
        -12    1    3    3    0    0  0.36684893559E+01  0.45039580438E+01  0.50114689097E+01  0.76719145491E+01  0.00000000000E+00 0.  1.
</event>
<event>
 7    1  0.4237994E-013  0.5930192E+02  0.7816164E-02  0.1266605E+00
        -11   -1    0    0    0    0  0.00000000000E+00  0.00000000000E+00  0.45593999997E+02  0.45594000000E+02  0.51100000000E-03 0. -1.
         11   -1    0    0    0    0 -0.00000000000E+00 -0.00000000000E+00 -0.45593999997E+02  0.45594000000E+02  0.51100000000E-03 0.  1.
    9900012    2    1    2    0    0 -0.21245839542E+02  0.50065941823E+01 -0.23243715244E+02  0.59301921824E+02  0.49999959505E+02 0.  0.
         12    1    1    2    0    0  0.21245839542E+02 -0.50065941823E+01  0.23243715244E+02  0.31886078176E+02  0.00000000000E+00 0. -1.
         11    1    3    3    0    0 -0.14288080031E+02  0.22909499818E+02 -0.22054668946E+02  0.34862628063E+02  0.51100000000E-03 0. -1.
        -11    1    3    3    0    0 -0.10689171089E+01 -0.92072364907E+01 -0.77278855683E+01  0.12067974279E+02  0.51100000000E-03 0.  1.
         12    1    3    3    0    0 -0.58888424015E+01 -0.86956691450E+01  0.65388392706E+01  0.12371319482E+02  0.00000000000E+00 0. -1.
</event>
<event>
 7    1  0.4237994E-013  0.5930158E+02  0.7816164E-02  0.1266606E+00
        -11   -1    0    0    0    0  0.00000000000E+00  0.00000000000E+00  0.45593999997E+02  0.45594000000E+02  0.51100000000E-03 0.  1.
         11   -1    0    0    0    0 -0.00000000000E+00 -0.00000000000E+00 -0.45593999997E+02  0.45594000000E+02  0.51100000000E-03 0. -1.
    9900012    2    1    2    0    0  0.10723107065E+02  0.29970736961E+02 -0.18744030989E+01  0.59301584615E+02  0.49999344513E+02 0.  0.
         12    1    1    2    0    0 -0.10723107065E+02 -0.29970736961E+02  0.18744030989E+01  0.31886415385E+02  0.00000000000E+00 0. -1.
         11    1    3    3    0    0 -0.11956838546E+02  0.21631675840E+02 -0.14073888270E+02  0.28442392990E+02  0.51100000000E-03 0. -1.
        -11    1    3    3    0    0  0.20395627268E+02  0.49127537618E+01  0.35469326510E+01  0.21276688950E+02  0.51100000000E-03 0.  1.
         12    1    3    3    0    0  0.22843183436E+01  0.34263073592E+01  0.86525525201E+01  0.95825026756E+01  0.00000000000E+00 0. -1.
</event>
<event>
 7    1  0.4237994E-013  0.5930197E+02  0.7816164E-02  0.1266605E+00
        -11   -1    0    0    0    0  0.00000000000E+00  0.00000000000E+00  0.45593999997E+02  0.45594000000E+02  0.51100000000E-03 0.  1.
         11   -1    0    0    0    0 -0.00000000000E+00 -0.00000000000E+00 -0.45593999997E+02  0.45594000000E+02  0.51100000000E-03 0. -1.
    9900012    2    1    2    0    0  0.93584717710E+01  0.30381729781E+02 -0.24674781105E+01  0.59301969413E+02  0.50000046296E+02 0.  0.
         12    1    1    2    0    0 -0.93584717710E+01 -0.30381729781E+02  0.24674781105E+01  0.31886030587E+02  0.00000000000E+00 0. -1.
         11    1    3    3    0    0  0.13063167990E+02 -0.74804062885E+01  0.66394401575E+01  0.16452507470E+02  0.51100000000E-03 0. -1.
        -11    1    3    3    0    0 -0.80989693648E+01  0.27046310263E+02 -0.31481496372E+00  0.28234647374E+02  0.51100000000E-03 0.  1.
         12    1    3    3    0    0  0.43942731457E+01  0.10815825806E+02 -0.87921033043E+01  0.14614814568E+02  0.00000000000E+00 0. -1.
</event>
<event>
 7    1  0.4237994E-013  0.5930194E+02  0.7816164E-02  0.1266605E+00
        -11   -1    0    0    0    0  0.00000000000E+00  0.00000000000E+00  0.45593999997E+02  0.45594000000E+02  0.51100000000E-03 0.  1.
         11   -1    0    0    0    0 -0.00000000000E+00 -0.00000000000E+00 -0.45593999997E+02  0.45594000000E+02  0.51100000000E-03 0. -1.
    9900012    2    1    2    0    0 -0.15996673820E+02 -0.15289877835E+02  0.22957503343E+02  0.59301938825E+02  0.49999990511E+02 0.  0.
         12    1    1    2    0    0  0.15996673820E+02  0.15289877835E+02 -0.22957503343E+02  0.31886061175E+02  0.00000000000E+00 0. -1.
         11    1    3    3    0    0 -0.26500289346E+01 -0.30419988120E+02  0.15524273693E+02  0.34254947155E+02  0.51100000000E-03 0. -1.
        -11    1    3    3    0    0  0.10703273845E+01  0.31846300458E+01  0.52007570774E+01  0.61915542215E+01  0.51100000000E-03 0.  1.
         12    1    3    3    0    0 -0.14416972270E+02  0.11945480240E+02  0.22324725726E+01  0.18855437449E+02  0.00000000000E+00 0. -1.
</event>
<event>
 7    1  0.4237994E-013  0.5930177E+02  0.7816164E-02  0.1266605E+00
        -11   -1    0    0    0    0  0.00000000000E+00  0.00000000000E+00  0.45593999997E+02  0.45594000000E+02  0.51100000000E-03 0.  1.
         11   -1    0    0    0    0 -0.00000000000E+00 -0.00000000000E+00 -0.45593999997E+02  0.45594000000E+02  0.51100000000E-03 0. -1.
    9900012    2    1    2    0    0 -0.26405633116E+02 -0.72101763290E+01  0.16355056420E+02  0.59301765141E+02  0.49999673753E+02 0.  0.
         12    1    1    2    0    0  0.26405633116E+02  0.72101763290E+01 -0.16355056420E+02  0.31886234859E+02  0.00000000000E+00 0. -1.
         11    1    3    3    0    0  0.44408103647E+01 -0.58860268205E+01  0.18836599796E+02  0.20228287139E+02  0.51100000000E-03 0. -1.
        -11    1    3    3    0    0 -0.34382961782E+02  0.11981303003E+01 -0.79290212328E+00  0.34412966613E+02  0.51100000000E-03 0.  1.
         12    1    3    3    0    0  0.35365183004E+01 -0.25222798088E+01 -0.16886412530E+01  0.46605113887E+01  0.00000000000E+00 0. -1.
</event>
<event>
 7    1  0.4237994E-013  0.5930195E+02  0.7816164E-02  0.1266605E+00
        -11   -1    0    0    0    0  0.00000000000E+00  0.00000000000E+00  0.45593999997E+02  0.45594000000E+02  0.51100000000E-03 0.  1.
         11   -1    0    0    0    0 -0.00000000000E+00 -0.00000000000E+00 -0.45593999997E+02  0.45594000000E+02  0.51100000000E-03 0. -1.
    9900012    2    1    2    0    0 -0.87143174963E+00 -0.44567520451E+01  0.31561021182E+02  0.59301951481E+02  0.50000013593E+02 0.  0.
         12    1    1    2    0    0  0.87143174963E+00  0.44567520451E+01 -0.31561021182E+02  0.31886048519E+02  0.00000000000E+00 0. -1.
         11    1    3    3    0    0 -0.10518668227E+02 -0.13404216846E+02  0.43499654901E+00  0.17044196455E+02  0.51100000000E-03 0. -1.
        -11    1    3    3    0    0  0.88318414889E+01  0.12704149021E+02  0.34068066521E+02  0.37416974533E+02  0.51100000000E-03 0.  1.
        -12    1    3    3    0    0  0.81539498860E+00 -0.37566842203E+01 -0.29420418878E+01  0.48407804937E+01  0.00000000000E+00 0.  1.
</event>
<event>
 7    1  0.4237994E-013  0.5930195E+02  0.7816164E-02  0.1266605E+00
        -11   -1    0    0    0    0  0.00000000000E+00  0.00000000000E+00  0.45593999997E+02  0.45594000000E+02  0.51100000000E-03 0.  1.
         11   -1    0    0    0    0 -0.00000000000E+00 -0.00000000000E+00 -0.45593999997E+02  0.45594000000E+02  0.51100000000E-03 0. -1.
    9900012    2    1    2    0    0  0.99735693480E+01  0.14508751328E+02  0.26584656306E+02  0.59301954439E+02  0.50000018987E+02 0.  0.
         12    1    1    2    0    0 -0.99735693480E+01 -0.14508751328E+02 -0.26584656306E+02  0.31886045561E+02  0.00000000000E+00 0. -1.
         11    1    3    3    0    0 -0.39487564397E+01 -0.55701861372E+01 -0.55649469154E+01  0.88084212806E+01  0.51100000000E-03 0. -1.
        -11    1    3    3    0    0  0.17784859003E+02  0.10483149677E+01  0.22817471110E+02  0.28948871517E+02  0.51100000000E-03 0.  1.
        -12    1    3    3    0    0 -0.38625332153E+01  0.19030622497E+02  0.93321321117E+01  0.21544661641E+02  0.00000000000E+00 0.  1.
</event>
<event>
 7    1  0.4237994E-013  0.5930199E+02  0.7816164E-02  0.1266605E+00
        -11   -1    0    0    0    0  0.00000000000E+00  0.00000000000E+00  0.45593999997E+02  0.45594000000E+02  0.51100000000E-03 0. -1.
         11   -1    0    0    0    0 -0.00000000000E+00 -0.00000000000E+00 -0.45593999997E+02  0.45594000000E+02  0.51100000000E-03 0.  1.
    9900012    2    1    2    0    0 -0.21016002749E+01  0.27556724197E+02 -0.15903702211E+02  0.59301991842E+02  0.50000087202E+02 0.  0.
         12    1    1    2    0    0  0.21016002749E+01 -0.27556724197E+02  0.15903702211E+02  0.31886008158E+02  0.00000000000E+00 0. -1.
         11    1    3    3    0    0 -0.16942769971E+01 -0.59541514855E+01  0.15652679618E+01  0.63853393417E+01  0.51100000000E-03 0. -1.
        -11    1    3    3    0    0  0.10437069340E+02  0.12222526100E+02 -0.23317311328E+02  0.28319950009E+02  0.51100000000E-03 0.  1.
        -12    1    3    3    0    0 -0.10844392618E+02  0.21288349583E+02  0.58483411547E+01  0.24596702492E+02  0.00000000000E+00 0.  1.
</event>
<event>
 7    1  0.4237994E-013  0.5930195E+02  0.7816164E-02  0.1266605E+00
        -11   -1    0    0    0    0  0.00000000000E+00  0.00000000000E+00  0.45593999997E+02  0.45594000000E+02  0.51100000000E-03 0. -1.
         11   -1    0    0    0    0 -0.00000000000E+00 -0.00000000000E+00 -0.45593999997E+02  0.45594000000E+02  0.51100000000E-03 0.  1.
    9900012    2    1    2    0    0  0.22369554350E+02 -0.12942781406E+02 -0.18676383848E+02  0.59301954996E+02  0.50000020004E+02 0.  0.
         12    1    1    2    0    0 -0.22369554350E+02  0.12942781406E+02  0.18676383848E+02  0.31886045004E+02  0.00000000000E+00 0. -1.
         11    1    3    3    0    0  0.10135153316E+02  0.64655904938E+01  0.32576882945E+01  0.12455429598E+02  0.51100000000E-03 0. -1.
        -11    1    3    3    0    0  0.41581580217E+01 -0.23936157230E+02 -0.26976411800E+02  0.36303673298E+02  0.51100000000E-03 0.  1.
        -12    1    3    3    0    0  0.80762430126E+01  0.45277853299E+01  0.50423396580E+01  0.10542852101E+02  0.00000000000E+00 0.  1.
</event>
<event>
 7    1  0.4237994E-013  0.5930194E+02  0.7816164E-02  0.1266605E+00
        -11   -1    0    0    0    0  0.00000000000E+00  0.00000000000E+00  0.45593999997E+02  0.45594000000E+02  0.51100000000E-03 0. -1.
         11   -1    0    0    0    0 -0.00000000000E+00 -0.00000000000E+00 -0.45593999997E+02  0.45594000000E+02  0.51100000000E-03 0.  1.
    9900012    2    1    2    0    0  0.25996637792E+02  0.61842031439E+01  0.17396869994E+02  0.59301943007E+02  0.49999998138E+02 0.  0.
         12    1    1    2    0    0 -0.25996637792E+02 -0.61842031439E+01 -0.17396869994E+02  0.31886056993E+02  0.00000000000E+00 0. -1.
         11    1    3    3    0    0 -0.63464926725E+01  0.13562708621E+02  0.83352028451E+01  0.17137696494E+02  0.51100000000E-03 0. -1.
        -11    1    3    3    0    0  0.33104159302E+02 -0.10965639319E+02  0.28993105150E+01  0.34993379524E+02  0.51100000000E-03 0.  1.
         12    1    3    3    0    0 -0.76102883822E+00  0.35871338415E+01  0.61623566342E+01  0.71708669891E+01  0.00000000000E+00 0. -1.
</event>
<event>
 7    1  0.4237994E-013  0.5930194E+02  0.7816164E-02  0.1266605E+00
        -11   -1    0    0    0    0  0.00000000000E+00  0.00000000000E+00  0.45593999997E+02  0.45594000000E+02  0.51100000000E-03 0. -1.
         11   -1    0    0    0    0 -0.00000000000E+00 -0.00000000000E+00 -0.45593999997E+02  0.45594000000E+02  0.51100000000E-03 0.  1.
    9900012    2    1    2    0    0 -0.41269885371E+01  0.29454194333E+02 -0.11495170065E+02  0.59301944536E+02  0.50000000928E+02 0.  0.
         12    1    1    2    0    0  0.41269885371E+01 -0.29454194333E+02  0.11495170065E+02  0.31886055464E+02  0.00000000000E+00 0. -1.
         11    1    3    3    0    0  0.39359207649E+00 -0.73161375546E+01  0.11125049226E+02  0.13320942308E+02  0.51100000000E-03 0. -1.
        -11    1    3    3    0    0 -0.38695844980E+01  0.36187017915E+02 -0.24524722618E+02  0.43885487003E+02  0.51100000000E-03 0.  1.
        -12    1    3    3    0    0 -0.65099611565E+00  0.58331397328E+00  0.19045033275E+01  0.20955152250E+01  0.00000000000E+00 0.  1.
</event>
<event>
 7    1  0.4237994E-013  0.5930197E+02  0.7816164E-02  0.1266605E+00
        -11   -1    0    0    0    0  0.00000000000E+00  0.00000000000E+00  0.45593999997E+02  0.45594000000E+02  0.51100000000E-03 0. -1.
         11   -1    0    0    0    0 -0.00000000000E+00 -0.00000000000E+00 -0.45593999997E+02  0.45594000000E+02  0.51100000000E-03 0.  1.
    9900012    2    1    2    0    0 -0.14324317715E+02  0.16036999141E+02 -0.23544590913E+02  0.59301965742E+02  0.50000039602E+02 0.  0.
         12    1    1    2    0    0  0.14324317715E+02 -0.16036999141E+02  0.23544590913E+02  0.31886034258E+02  0.00000000000E+00 0. -1.
         11    1    3    3    0    0 -0.79221137723E+01 -0.10676767941E+02 -0.16314107125E+02  0.21045269108E+02  0.51100000000E-03 0. -1.
        -11    1    3    3    0    0 -0.94365983705E+01  0.29206611309E+02 -0.11200033396E+02  0.32672867663E+02  0.51100000000E-03 0.  1.
         12    1    3    3    0    0  0.30343944275E+01 -0.24928442273E+01  0.39695496085E+01  0.55838289710E+01  0.00000000000E+00 0. -1.
</event>
<event>
 7    1  0.4237994E-013  0.5930198E+02  0.7816164E-02  0.1266605E+00
        -11   -1    0    0    0    0  0.00000000000E+00  0.00000000000E+00  0.45593999997E+02  0.45594000000E+02  0.51100000000E-03 0.  1.
         11   -1    0    0    0    0 -0.00000000000E+00 -0.00000000000E+00 -0.45593999997E+02  0.45594000000E+02  0.51100000000E-03 0. -1.
    9900012    2    1    2    0    0  0.29911786807E+02  0.54785827841E+01 -0.95910550246E+01  0.59301981186E+02  0.50000067768E+02 0.  0.
         12    1    1    2    0    0 -0.29911786807E+02 -0.54785827841E+01  0.95910550246E+01  0.31886018814E+02  0.00000000000E+00 0. -1.
         11    1    3    3    0    0  0.28915877249E+02  0.97906880502E+01 -0.75840478473E+00  0.30537856959E+02  0.51100000000E-03 0.  1.
        -11    1    3    3    0    0 -0.24093680077E+01  0.12356796270E+01 -0.17620835698E+02  0.17827669767E+02  0.51100000000E-03 0. -1.
         12    1    3    3    0    0  0.34052775661E+01 -0.55477848931E+01  0.87881854585E+01  0.10936454461E+02  0.00000000000E+00 0. -1.
</event>
<event>
 7    1  0.4237994E-013  0.5930196E+02  0.7816164E-02  0.1266605E+00
        -11   -1    0    0    0    0  0.00000000000E+00  0.00000000000E+00  0.45593999997E+02  0.45594000000E+02  0.51100000000E-03 0. -1.
         11   -1    0    0    0    0 -0.00000000000E+00 -0.00000000000E+00 -0.45593999997E+02  0.45594000000E+02  0.51100000000E-03 0.  1.
    9900012    2    1    2    0    0 -0.22584018654E+01 -0.21025293092E+02 -0.23865373714E+02  0.59301962442E+02  0.50000033584E+02 0.  0.
         12    1    1    2    0    0  0.22584018654E+01  0.21025293092E+02  0.23865373714E+02  0.31886037558E+02  0.00000000000E+00 0. -1.
         11    1    3    3    0    0 -0.24905752658E+01  0.96778230500E+01 -0.71505345439E+01  0.12287935899E+02  0.51100000000E-03 0. -1.
        -11    1    3    3    0    0 -0.45463674844E+01 -0.21778913349E+02 -0.25335572857E+02  0.33717677504E+02  0.51100000000E-03 0.  1.
        -12    1    3    3    0    0  0.47785408847E+01 -0.89242027932E+01  0.86207336870E+01  0.13296349040E+02  0.00000000000E+00 0.  1.
</event>
<event>
 7    1  0.4237994E-013  0.5930194E+02  0.7816164E-02  0.1266605E+00
        -11   -1    0    0    0    0  0.00000000000E+00  0.00000000000E+00  0.45593999997E+02  0.45594000000E+02  0.51100000000E-03 0.  1.
         11   -1    0    0    0    0 -0.00000000000E+00 -0.00000000000E+00 -0.45593999997E+02  0.45594000000E+02  0.51100000000E-03 0. -1.
    9900012    2    1    2    0    0 -0.17435217698E+02  0.22814454499E+02  0.13864862435E+02  0.59301944104E+02  0.50000000140E+02 0.  0.
         12    1    1    2    0    0  0.17435217698E+02 -0.22814454499E+02 -0.13864862435E+02  0.31886055896E+02  0.00000000000E+00 0. -1.
         11    1    3    3    0    0  0.75743930093E+01  0.22694789138E+02  0.13932772901E+02  0.27686586002E+02  0.51100000000E-03 0. -1.
        -11    1    3    3    0    0 -0.26124995721E+02  0.19478939293E+01  0.44898909913E+01  0.26579481063E+02  0.51100000000E-03 0.  1.
         12    1    3    3    0    0  0.11153850144E+01 -0.18282285686E+01 -0.45578014575E+01  0.50358770393E+01  0.00000000000E+00 0. -1.
</event>
<event>
 7    1  0.4237994E-013  0.5930195E+02  0.7816164E-02  0.1266605E+00
        -11   -1    0    0    0    0  0.00000000000E+00  0.00000000000E+00  0.45593999997E+02  0.45594000000E+02  0.51100000000E-03 0. -1.
         11   -1    0    0    0    0 -0.00000000000E+00 -0.00000000000E+00 -0.45593999997E+02  0.45594000000E+02  0.51100000000E-03 0.  1.
    9900012    2    1    2    0    0  0.23181660255E+02  0.94718540183E+01 -0.19738657020E+02  0.59301953339E+02  0.50000016982E+02 0.  0.
         12    1    1    2    0    0 -0.23181660255E+02 -0.94718540183E+01  0.19738657020E+02  0.31886046661E+02  0.00000000000E+00 0. -1.
         11    1    3    3    0    0  0.25429206062E+02  0.24872601973E+02 -0.16562536841E+02  0.39237844955E+02  0.51100000000E-03 0.  1.
        -11    1    3    3    0    0  0.36625526198E+01 -0.95207916324E+01 -0.52507163885E+01  0.11473002565E+02  0.51100000000E-03 0. -1.
         12    1    3    3    0    0 -0.59100984272E+01 -0.58799563221E+01  0.20745962101E+01  0.85911058196E+01  0.00000000000E+00 0. -1.
</event>
<event>
 7    1  0.4237994E-013  0.5930193E+02  0.7816164E-02  0.1266605E+00
        -11   -1    0    0    0    0  0.00000000000E+00  0.00000000000E+00  0.45593999997E+02  0.45594000000E+02  0.51100000000E-03 0. -1.
         11   -1    0    0    0    0 -0.00000000000E+00 -0.00000000000E+00 -0.45593999997E+02  0.45594000000E+02  0.51100000000E-03 0.  1.
    9900012    2    1    2    0    0 -0.30810384938E+02 -0.71080830708E+01 -0.41130314702E+01  0.59301926349E+02  0.49999967759E+02 0.  0.
         12    1    1    2    0    0  0.30810384938E+02  0.71080830708E+01  0.41130314702E+01  0.31886073651E+02  0.00000000000E+00 0. -1.
         11    1    3    3    0    0 -0.12278218807E+02 -0.26221977842E+01 -0.19885140674E+02  0.23517002322E+02  0.51100000000E-03 0. -1.
        -11    1    3    3    0    0 -0.24397460149E+02 -0.18238319686E+01  0.81090347348E+01  0.25774383977E+02  0.51100000000E-03 0.  1.
         12    1    3    3    0    0  0.58652940185E+01 -0.26620533179E+01  0.76630744693E+01  0.10010540051E+02  0.00000000000E+00 0. -1.
</event>
<event>
 7    1  0.4237994E-013  0.5930187E+02  0.7816164E-02  0.1266605E+00
        -11   -1    0    0    0    0  0.00000000000E+00  0.00000000000E+00  0.45593999997E+02  0.45594000000E+02  0.51100000000E-03 0.  1.
         11   -1    0    0    0    0 -0.00000000000E+00 -0.00000000000E+00 -0.45593999997E+02  0.45594000000E+02  0.51100000000E-03 0. -1.
    9900012    2    1    2    0    0  0.10928406684E+02  0.29942896843E+02 -0.84745533990E+00  0.59301869401E+02  0.49999863899E+02 0.  0.
         12    1    1    2    0    0 -0.10928406684E+02 -0.29942896843E+02  0.84745533990E+00  0.31886130599E+02  0.00000000000E+00 0. -1.
         11    1    3    3    0    0  0.11109591384E+02  0.32671816761E+02  0.96884205357E-03  0.34508993500E+02  0.51100000000E-03 0.  1.
        -11    1    3    3    0    0  0.82676137305E+01 -0.76330021707E+01  0.61051004011E+01  0.12801890880E+02  0.51100000000E-03 0. -1.
        -12    1    3    3    0    0 -0.84487984305E+01  0.49040822532E+01 -0.69535245831E+01  0.11990985022E+02  0.00000000000E+00 0.  1.
</event>
<event>
 7    1  0.4237994E-013  0.5930195E+02  0.7816164E-02  0.1266605E+00
        -11   -1    0    0    0    0  0.00000000000E+00  0.00000000000E+00  0.45593999997E+02  0.45594000000E+02  0.51100000000E-03 0.  1.
         11   -1    0    0    0    0 -0.00000000000E+00 -0.00000000000E+00 -0.45593999997E+02  0.45594000000E+02  0.51100000000E-03 0. -1.
    9900012    2    1    2    0    0 -0.25395134467E+02  0.42873807426E+01  0.18799620965E+02  0.59301949183E+02  0.50000009402E+02 0.  0.
         12    1    1    2    0    0  0.25395134467E+02 -0.42873807426E+01 -0.18799620965E+02  0.31886050817E+02  0.00000000000E+00 0. -1.
         11    1    3    3    0    0 -0.26081676833E+02 -0.45926519371E+01  0.23767630127E+02  0.35584358367E+02  0.51100000000E-03 0. -1.
        -11    1    3    3    0    0  0.10988809431E+02  0.50274109561E+01 -0.14570665599E+01  0.12171763917E+02  0.51100000000E-03 0.  1.
         12    1    3    3    0    0 -0.10302267065E+02  0.38526217236E+01 -0.35109426022E+01  0.11545826899E+02  0.00000000000E+00 0. -1.
</event>
<event>
 7    1  0.4237994E-013  0.5930192E+02  0.7816164E-02  0.1266605E+00
        -11   -1    0    0    0    0  0.00000000000E+00  0.00000000000E+00  0.45593999997E+02  0.45594000000E+02  0.51100000000E-03 0. -1.
         11   -1    0    0    0    0 -0.00000000000E+00 -0.00000000000E+00 -0.45593999997E+02  0.45594000000E+02  0.51100000000E-03 0.  1.
    9900012    2    1    2    0    0 -0.24049976009E+02 -0.19215975343E+02 -0.83106770430E+01  0.59301915146E+02  0.49999947326E+02 0.  0.
         12    1    1    2    0    0  0.24049976009E+02  0.19215975343E+02  0.83106770430E+01  0.31886084854E+02  0.00000000000E+00 0. -1.
         11    1    3    3    0    0 -0.86256255603E+01  0.12655551965E+02 -0.13473991504E+02  0.20398844555E+02  0.51100000000E-03 0. -1.
        -11    1    3    3    0    0 -0.11376937676E+02 -0.25338501723E+02 -0.27019136221E+01  0.27906535398E+02  0.51100000000E-03 0.  1.
         12    1    3    3    0    0 -0.40474127729E+01 -0.65330255852E+01  0.78652280832E+01  0.10996535193E+02  0.00000000000E+00 0. -1.
</event>
<event>
 7    1  0.4237994E-013  0.5930196E+02  0.7816164E-02  0.1266605E+00
        -11   -1    0    0    0    0  0.00000000000E+00  0.00000000000E+00  0.45593999997E+02  0.45594000000E+02  0.51100000000E-03 0.  1.
         11   -1    0    0    0    0 -0.00000000000E+00 -0.00000000000E+00 -0.45593999997E+02  0.45594000000E+02  0.51100000000E-03 0. -1.
    9900012    2    1    2    0    0  0.96220360949E+01  0.12907208251E+02  0.27523443220E+02  0.59301960262E+02  0.50000029608E+02 0.  0.
         12    1    1    2    0    0 -0.96220360949E+01 -0.12907208251E+02 -0.27523443220E+02  0.31886039738E+02  0.00000000000E+00 0. -1.
         11    1    3    3    0    0  0.13205448681E+01 -0.76883116526E+01 -0.30367430988E+01  0.83711279840E+01  0.51100000000E-03 0. -1.
        -11    1    3    3    0    0  0.17839670908E+01  0.28554008159E+02  0.15069622515E+02  0.32335853839E+02  0.51100000000E-03 0.  1.
        -12    1    3    3    0    0  0.65175241360E+01 -0.79584882552E+01  0.15490563804E+02  0.18594978439E+02  0.00000000000E+00 0.  1.
</event>
<event>
 7    1  0.4237994E-013  0.5930195E+02  0.7816164E-02  0.1266605E+00
        -11   -1    0    0    0    0  0.00000000000E+00  0.00000000000E+00  0.45593999997E+02  0.45594000000E+02  0.51100000000E-03 0. -1.
         11   -1    0    0    0    0 -0.00000000000E+00 -0.00000000000E+00 -0.45593999997E+02  0.45594000000E+02  0.51100000000E-03 0.  1.
    9900012    2    1    2    0    0  0.14912116472E+02 -0.24117713799E+02 -0.14583718560E+02  0.59301950016E+02  0.50000010920E+02 0.  0.
         12    1    1    2    0    0 -0.14912116472E+02  0.24117713799E+02  0.14583718560E+02  0.31886049984E+02  0.00000000000E+00 0. -1.
         11    1    3    3    0    0 -0.11091884587E+01  0.98889886286E+01  0.96003700295E+01  0.13827129134E+02  0.51100000000E-03 0. -1.
        -11    1    3    3    0    0  0.71356825435E+01 -0.83941050208E+01 -0.99975010925E+01  0.14877129858E+02  0.51100000000E-03 0.  1.
         12    1    3    3    0    0  0.88856223872E+01 -0.25612597407E+02 -0.14186587497E+02  0.30597691023E+02  0.00000000000E+00 0. -1.
</event>
<event>
 7    1  0.4237994E-013  0.5930197E+02  0.7816164E-02  0.1266605E+00
        -11   -1    0    0    0    0  0.00000000000E+00  0.00000000000E+00  0.45593999997E+02  0.45594000000E+02  0.51100000000E-03 0. -1.
         11   -1    0    0    0    0 -0.00000000000E+00 -0.00000000000E+00 -0.45593999997E+02  0.45594000000E+02  0.51100000000E-03 0.  1.
    9900012    2    1    2    0    0 -0.23808449276E+02  0.19609264634E+02 -0.80841447169E+01  0.59301969952E+02  0.50000047280E+02 0.  0.
         12    1    1    2    0    0  0.23808449276E+02 -0.19609264634E+02  0.80841447169E+01  0.31886030048E+02  0.00000000000E+00 0. -1.
         11    1    3    3    0    0 -0.20697782562E+02 -0.28551096256E+01 -0.14108428407E+01  0.20941354583E+02  0.51100000000E-03 0. -1.
        -11    1    3    3    0    0 -0.15951493881E+01  0.25734671103E+02 -0.14615831068E+02  0.29638493829E+02  0.51100000000E-03 0.  1.
        -12    1    3    3    0    0 -0.15155173257E+01 -0.32702968437E+01  0.79425291920E+01  0.87221215409E+01  0.00000000000E+00 0.  1.
</event>
<event>
 7    1  0.4237994E-013  0.5930193E+02  0.7816164E-02  0.1266605E+00
        -11   -1    0    0    0    0  0.00000000000E+00  0.00000000000E+00  0.45593999997E+02  0.45594000000E+02  0.51100000000E-03 0.  1.
         11   -1    0    0    0    0 -0.00000000000E+00 -0.00000000000E+00 -0.45593999997E+02  0.45594000000E+02  0.51100000000E-03 0. -1.
    9900012    2    1    2    0    0  0.14546693130E+02 -0.11265433201E+01  0.28352175336E+02  0.59301933652E+02  0.49999981077E+02 0.  0.
         12    1    1    2    0    0 -0.14546693130E+02  0.11265433201E+01 -0.28352175336E+02  0.31886066348E+02  0.00000000000E+00 0. -1.
         11    1    3    3    0    0  0.43786182356E+01  0.22641622169E+02  0.65083727196E+01  0.23961933724E+02  0.51100000000E-03 0. -1.
        -11    1    3    3    0    0  0.93919125534E+01 -0.92851981148E+01  0.11665218867E+02  0.17621017477E+02  0.51100000000E-03 0.  1.
         12    1    3    3    0    0  0.77616234082E+00 -0.14482967374E+02  0.10178583750E+02  0.17718982451E+02  0.00000000000E+00 0. -1.
</event>
<event>
 7    1  0.4237994E-013  0.5930193E+02  0.7816164E-02  0.1266605E+00
        -11   -1    0    0    0    0  0.00000000000E+00  0.00000000000E+00  0.45593999997E+02  0.45594000000E+02  0.51100000000E-03 0. -1.
         11   -1    0    0    0    0 -0.00000000000E+00 -0.00000000000E+00 -0.45593999997E+02  0.45594000000E+02  0.51100000000E-03 0.  1.
    9900012    2    1    2    0    0  0.22799721671E+01  0.24154395856E+02 -0.20690301376E+02  0.59301926499E+02  0.49999968033E+02 0.  0.
         12    1    1    2    0    0 -0.22799721671E+01 -0.24154395856E+02  0.20690301376E+02  0.31886073501E+02  0.00000000000E+00 0. -1.
         11    1    3    3    0    0 -0.11127940290E+02  0.95279928964E+01 -0.76072484747E+01  0.16507087368E+02  0.51100000000E-03 0. -1.
        -11    1    3    3    0    0  0.22876004698E+02  0.19525113013E+02 -0.92401921434E+01  0.31463038319E+02  0.51100000000E-03 0.  1.
         12    1    3    3    0    0 -0.94680922408E+01 -0.48987100535E+01 -0.38428607581E+01  0.11331800813E+02  0.00000000000E+00 0. -1.
</event>
<event>
 7    1  0.4237994E-013  0.5930195E+02  0.7816164E-02  0.1266605E+00
        -11   -1    0    0    0    0  0.00000000000E+00  0.00000000000E+00  0.45593999997E+02  0.45594000000E+02  0.51100000000E-03 0.  1.
         11   -1    0    0    0    0 -0.00000000000E+00 -0.00000000000E+00 -0.45593999997E+02  0.45594000000E+02  0.51100000000E-03 0. -1.
    9900012    2    1    2    0    0 -0.16049288924E+02  0.20968174492E+02 -0.17873893560E+02  0.59301951523E+02  0.50000013670E+02 0.  0.
         12    1    1    2    0    0  0.16049288924E+02 -0.20968174492E+02  0.17873893560E+02  0.31886048477E+02  0.00000000000E+00 0. -1.
         11    1    3    3    0    0 -0.19795738604E+02  0.10468589463E+02 -0.24051417228E+02  0.32862338675E+02  0.51100000000E-03 0. -1.
        -11    1    3    3    0    0 -0.53716760054E+01 -0.99488388296E+00  0.98960955581E+01  0.11303866799E+02  0.51100000000E-03 0.  1.
        -12    1    3    3    0    0  0.91181256853E+01  0.11494468912E+02 -0.37185718896E+01  0.15135746049E+02  0.00000000000E+00 0.  1.
</event>
<event>
 7    1  0.4237994E-013  0.5930194E+02  0.7816164E-02  0.1266605E+00
        -11   -1    0    0    0    0  0.00000000000E+00  0.00000000000E+00  0.45593999997E+02  0.45594000000E+02  0.51100000000E-03 0. -1.
         11   -1    0    0    0    0 -0.00000000000E+00 -0.00000000000E+00 -0.45593999997E+02  0.45594000000E+02  0.51100000000E-03 0.  1.
    9900012    2    1    2    0    0  0.29692498423E+02  0.29495692267E+01  0.11241722055E+02  0.59301941354E+02  0.49999995124E+02 0.  0.
         12    1    1    2    0    0 -0.29692498423E+02 -0.29495692267E+01 -0.11241722055E+02  0.31886058646E+02  0.00000000000E+00 0. -1.
         11    1    3    3    0    0 -0.54473826311E+01  0.47189011743E+01  0.20821992219E+02  0.22034004766E+02  0.51100000000E-03 0. -1.
        -11    1    3    3    0    0  0.20963463787E+02 -0.47763722128E+01 -0.50689264894E+01  0.22090146253E+02  0.51100000000E-03 0.  1.
        -12    1    3    3    0    0  0.14176417267E+02  0.30070402652E+01 -0.45113436747E+01  0.15177790335E+02  0.00000000000E+00 0.  1.
</event>
<event>
 7    1  0.4237994E-013  0.5930190E+02  0.7816164E-02  0.1266605E+00
        -11   -1    0    0    0    0  0.00000000000E+00  0.00000000000E+00  0.45593999997E+02  0.45594000000E+02  0.51100000000E-03 0.  1.
         11   -1    0    0    0    0 -0.00000000000E+00 -0.00000000000E+00 -0.45593999997E+02  0.45594000000E+02  0.51100000000E-03 0. -1.
    9900012    2    1    2    0    0  0.10867689421E+02 -0.25995315472E+02  0.14928498961E+02  0.59301903013E+02  0.49999925199E+02 0.  0.
         12    1    1    2    0    0 -0.10867689421E+02  0.25995315472E+02 -0.14928498961E+02  0.31886096987E+02  0.00000000000E+00 0. -1.
         11    1    3    3    0    0  0.94562709784E+01 -0.71353331669E+01 -0.13963035032E+02  0.18311209348E+02  0.51100000000E-03 0. -1.
        -11    1    3    3    0    0  0.10976403847E+02 -0.46696711919E+01  0.12881594270E+02  0.17556273569E+02  0.51100000000E-03 0.  1.
         12    1    3    3    0    0 -0.95649854043E+01 -0.14190311113E+02  0.16009939723E+02  0.23434420096E+02  0.00000000000E+00 0. -1.
</event>
<event>
 7    1  0.4237994E-013  0.5930195E+02  0.7816164E-02  0.1266605E+00
        -11   -1    0    0    0    0  0.00000000000E+00  0.00000000000E+00  0.45593999997E+02  0.45594000000E+02  0.51100000000E-03 0.  1.
         11   -1    0    0    0    0 -0.00000000000E+00 -0.00000000000E+00 -0.45593999997E+02  0.45594000000E+02  0.51100000000E-03 0. -1.
    9900012    2    1    2    0    0 -0.12205931872E+02  0.19871304999E+02  0.21745500950E+02  0.59301947457E+02  0.50000006254E+02 0.  0.
         12    1    1    2    0    0  0.12205931872E+02 -0.19871304999E+02 -0.21745500950E+02  0.31886052543E+02  0.00000000000E+00 0. -1.
         11    1    3    3    0    0  0.69152969250E+01 -0.10909185708E+02  0.16910786960E+02  0.21279247643E+02  0.51100000000E-03 0. -1.
        -11    1    3    3    0    0 -0.61651598711E+01  0.58205510820E+01 -0.27184701117E+01  0.89038245234E+01  0.51100000000E-03 0.  1.
         12    1    3    3    0    0 -0.12956068926E+02  0.24959939626E+02  0.75531841018E+01  0.29118875291E+02  0.00000000000E+00 0. -1.
</event>
<event>
 7    1  0.4237994E-013  0.5930193E+02  0.7816164E-02  0.1266605E+00
        -11   -1    0    0    0    0  0.00000000000E+00  0.00000000000E+00  0.45593999997E+02  0.45594000000E+02  0.51100000000E-03 0.  1.
         11   -1    0    0    0    0 -0.00000000000E+00 -0.00000000000E+00 -0.45593999997E+02  0.45594000000E+02  0.51100000000E-03 0. -1.
    9900012    2    1    2    0    0  0.52335858772E+01 -0.23518921706E+01  0.31365582892E+02  0.59301927679E+02  0.49999970184E+02 0.  0.
         12    1    1    2    0    0 -0.52335858772E+01  0.23518921706E+01 -0.31365582892E+02  0.31886072321E+02  0.00000000000E+00 0. -1.
         11    1    3    3    0    0 -0.12908799017E+02  0.36795227958E+01 -0.17419398251E+01  0.13535521220E+02  0.51100000000E-03 0. -1.
        -11    1    3    3    0    0  0.65081232702E+01 -0.15351189613E+02  0.16713672731E+02  0.23608505829E+02  0.51100000000E-03 0.  1.
         12    1    3    3    0    0  0.11634261624E+02  0.93197746470E+01  0.16393849986E+02  0.22157900631E+02  0.00000000000E+00 0. -1.
</event>
<event>
 7    1  0.4237994E-013  0.5930194E+02  0.7816164E-02  0.1266605E+00
        -11   -1    0    0    0    0  0.00000000000E+00  0.00000000000E+00  0.45593999997E+02  0.45594000000E+02  0.51100000000E-03 0.  1.
         11   -1    0    0    0    0 -0.00000000000E+00 -0.00000000000E+00 -0.45593999997E+02  0.45594000000E+02  0.51100000000E-03 0. -1.
    9900012    2    1    2    0    0 -0.24998396383E+02  0.18802166626E+02 -0.61870295602E+01  0.59301943073E+02  0.49999998259E+02 0.  0.
         12    1    1    2    0    0  0.24998396383E+02 -0.18802166626E+02  0.61870295602E+01  0.31886056927E+02  0.00000000000E+00 0. -1.
         11    1    3    3    0    0  0.47750727746E+01 -0.12903060263E+02 -0.14049582780E+01  0.13829829796E+02  0.51100000000E-03 0. -1.
        -11    1    3    3    0    0 -0.21838251406E+02  0.20294678961E+02  0.22474379481E+01  0.29897059993E+02  0.51100000000E-03 0.  1.
        -12    1    3    3    0    0 -0.79352177518E+01  0.11410547928E+02 -0.70295092303E+01  0.15575053284E+02  0.00000000000E+00 0.  1.
</event>
<event>
 7    1  0.4237994E-013  0.5930195E+02  0.7816164E-02  0.1266605E+00
        -11   -1    0    0    0    0  0.00000000000E+00  0.00000000000E+00  0.45593999997E+02  0.45594000000E+02  0.51100000000E-03 0.  1.
         11   -1    0    0    0    0 -0.00000000000E+00 -0.00000000000E+00 -0.45593999997E+02  0.45594000000E+02  0.51100000000E-03 0. -1.
    9900012    2    1    2    0    0  0.27597523494E+01  0.22926355698E+02  0.21988325477E+02  0.59301945432E+02  0.50000002561E+02 0.  0.
         12    1    1    2    0    0 -0.27597523494E+01 -0.22926355698E+02 -0.21988325477E+02  0.31886054568E+02  0.00000000000E+00 0. -1.
         11    1    3    3    0    0  0.50013943569E+01 -0.12726349396E+02 -0.30213616674E+01  0.14003661702E+02  0.51100000000E-03 0. -1.
        -11    1    3    3    0    0  0.48869685333E+01  0.14972610492E+02  0.12435595713E+02  0.20067525193E+02  0.51100000000E-03 0.  1.
         12    1    3    3    0    0 -0.71286105408E+01  0.20680094603E+02  0.12574091431E+02  0.25230758537E+02  0.00000000000E+00 0. -1.
</event>
<event>
 7    1  0.4237994E-013  0.5930194E+02  0.7816164E-02  0.1266605E+00
        -11   -1    0    0    0    0  0.00000000000E+00  0.00000000000E+00  0.45593999997E+02  0.45594000000E+02  0.51100000000E-03 0. -1.
         11   -1    0    0    0    0 -0.00000000000E+00 -0.00000000000E+00 -0.45593999997E+02  0.45594000000E+02  0.51100000000E-03 0.  1.
    9900012    2    1    2    0    0 -0.28686590410E+02  0.38779856547E+01 -0.13370175707E+02  0.59301939715E+02  0.49999992134E+02 0.  0.
         12    1    1    2    0    0  0.28686590410E+02 -0.38779856547E+01  0.13370175707E+02  0.31886060285E+02  0.00000000000E+00 0. -1.
         11    1    3    3    0    0 -0.40109500085E+01 -0.17648883076E+02 -0.35632001682E+01  0.18446332684E+02  0.51100000000E-03 0. -1.
        -11    1    3    3    0    0 -0.14727267899E+02  0.19322712844E+02  0.30108163172E+01  0.24481108361E+02  0.51100000000E-03 0.  1.
        -12    1    3    3    0    0 -0.99483725024E+01  0.22041558865E+01 -0.12817791856E+02  0.16374498670E+02  0.00000000000E+00 0.  1.
</event>
<event>
 7    1  0.4237994E-013  0.5930193E+02  0.7816164E-02  0.1266605E+00
        -11   -1    0    0    0    0  0.00000000000E+00  0.00000000000E+00  0.45593999997E+02  0.45594000000E+02  0.51100000000E-03 0.  1.
         11   -1    0    0    0    0 -0.00000000000E+00 -0.00000000000E+00 -0.45593999997E+02  0.45594000000E+02  0.51100000000E-03 0. -1.
    9900012    2    1    2    0    0  0.13426933681E+01  0.43128366071E+01  0.31564505260E+02  0.59301931296E+02  0.49999976781E+02 0.  0.
         12    1    1    2    0    0 -0.13426933681E+01 -0.43128366071E+01 -0.31564505260E+02  0.31886068704E+02  0.00000000000E+00 0. -1.
         11    1    3    3    0    0 -0.12045183051E+02 -0.12801566185E+02  0.17409965083E+02  0.24740117542E+02  0.51100000000E-03 0. -1.
        -11    1    3    3    0    0  0.93940146830E+01  0.15819185132E+02  0.20122089920E+02  0.27265227546E+02  0.51100000000E-03 0.  1.
         12    1    3    3    0    0  0.39938617364E+01  0.12952176601E+01 -0.59675497436E+01  0.72965862085E+01  0.00000000000E+00 0. -1.
</event>
<event>
 7    1  0.4237994E-013  0.5930198E+02  0.7816164E-02  0.1266605E+00
        -11   -1    0    0    0    0  0.00000000000E+00  0.00000000000E+00  0.45593999997E+02  0.45594000000E+02  0.51100000000E-03 0. -1.
         11   -1    0    0    0    0 -0.00000000000E+00 -0.00000000000E+00 -0.45593999997E+02  0.45594000000E+02  0.51100000000E-03 0.  1.
    9900012    2    1    2    0    0  0.15181098258E+02  0.28022878504E+02 -0.98523178622E+00  0.59301981973E+02  0.50000069202E+02 0.  0.
         12    1    1    2    0    0 -0.15181098258E+02 -0.28022878504E+02  0.98523178622E+00  0.31886018027E+02  0.00000000000E+00 0. -1.
         11    1    3    3    0    0  0.50331164302E+01 -0.99050821716E+01  0.71838511914E+01  0.13230670128E+02  0.51100000000E-03 0. -1.
        -11    1    3    3    0    0  0.22579431409E+01  0.35654899314E+02 -0.19655030851E+01  0.35780348726E+02  0.51100000000E-03 0.  1.
        -12    1    3    3    0    0  0.78900386865E+01  0.22730613615E+01 -0.62035798926E+01  0.10290963119E+02  0.00000000000E+00 0.  1.
</event>
<event>
 7    1  0.4237994E-013  0.5930194E+02  0.7816164E-02  0.1266605E+00
        -11   -1    0    0    0    0  0.00000000000E+00  0.00000000000E+00  0.45593999997E+02  0.45594000000E+02  0.51100000000E-03 0.  1.
         11   -1    0    0    0    0 -0.00000000000E+00 -0.00000000000E+00 -0.45593999997E+02  0.45594000000E+02  0.51100000000E-03 0. -1.
    9900012    2    1    2    0    0  0.18803018536E+01  0.25186933298E+01  0.31730761417E+02  0.59301943937E+02  0.49999999834E+02 0.  0.
         12    1    1    2    0    0 -0.18803018536E+01 -0.25186933298E+01 -0.31730761417E+02  0.31886056063E+02  0.00000000000E+00 0. -1.
         11    1    3    3    0    0 -0.46343114814E+01  0.14050941538E+02 -0.29951041097E+01  0.15095577163E+02  0.51100000000E-03 0. -1.
        -11    1    3    3    0    0  0.74016016057E+01 -0.59764451339E+01  0.36951147719E+02  0.38156112496E+02  0.51100000000E-03 0.  1.
         12    1    3    3    0    0 -0.88698827067E+00 -0.55558030739E+01 -0.22252821921E+01  0.60502542775E+01  0.00000000000E+00 0. -1.
</event>
<event>
 7    1  0.4237994E-013  0.5930194E+02  0.7816164E-02  0.1266605E+00
        -11   -1    0    0    0    0  0.00000000000E+00  0.00000000000E+00  0.45593999997E+02  0.45594000000E+02  0.51100000000E-03 0.  1.
         11   -1    0    0    0    0 -0.00000000000E+00 -0.00000000000E+00 -0.45593999997E+02  0.45594000000E+02  0.51100000000E-03 0. -1.
    9900012    2    1    2    0    0  0.13217682054E+02 -0.73038289219E+01  0.28083229585E+02  0.59301940040E+02  0.49999992728E+02 0.  0.
         12    1    1    2    0    0 -0.13217682054E+02  0.73038289219E+01 -0.28083229585E+02  0.31886059960E+02  0.00000000000E+00 0. -1.
         11    1    3    3    0    0  0.71431233651E+01  0.16705043624E+02  0.20374643541E+02  0.27298512662E+02  0.51100000000E-03 0. -1.
        -11    1    3    3    0    0  0.43823974422E+01 -0.15920780319E+02 -0.46333850521E+01  0.17150653358E+02  0.51100000000E-03 0.  1.
        -12    1    3    3    0    0  0.16921612466E+01 -0.80880922265E+01  0.12341971097E+02  0.14852774020E+02  0.00000000000E+00 0.  1.
</event>
<event>
 7    1  0.4237994E-013  0.5930195E+02  0.7816164E-02  0.1266605E+00
        -11   -1    0    0    0    0  0.00000000000E+00  0.00000000000E+00  0.45593999997E+02  0.45594000000E+02  0.51100000000E-03 0. -1.
         11   -1    0    0    0    0 -0.00000000000E+00 -0.00000000000E+00 -0.45593999997E+02  0.45594000000E+02  0.51100000000E-03 0.  1.
    9900012    2    1    2    0    0 -0.46276642307E+01 -0.15428237408E+02 -0.27518620075E+02  0.59301949185E+02  0.50000009406E+02 0.  0.
         12    1    1    2    0    0  0.46276642307E+01  0.15428237408E+02  0.27518620075E+02  0.31886050815E+02  0.00000000000E+00 0. -1.
         11    1    3    3    0    0 -0.39985184832E+01 -0.14652822930E+02  0.86977391082E+01  0.17502686529E+02  0.51100000000E-03 0. -1.
        -11    1    3    3    0    0 -0.29641281261E+00  0.88839001255E+01 -0.27071883494E+02  0.28493831230E+02  0.51100000000E-03 0.  1.
        -12    1    3    3    0    0 -0.33273293494E+00 -0.96593146033E+01 -0.91444756889E+01  0.13305431426E+02  0.00000000000E+00 0.  1.
</event>
<event>
 7    1  0.4237994E-013  0.5930195E+02  0.7816164E-02  0.1266605E+00
        -11   -1    0    0    0    0  0.00000000000E+00  0.00000000000E+00  0.45593999997E+02  0.45594000000E+02  0.51100000000E-03 0. -1.
         11   -1    0    0    0    0 -0.00000000000E+00 -0.00000000000E+00 -0.45593999997E+02  0.45594000000E+02  0.51100000000E-03 0.  1.
    9900012    2    1    2    0    0  0.29497155481E+02  0.40214739661E+01 -0.11422167601E+02  0.59301947453E+02  0.50000006246E+02 0.  0.
         12    1    1    2    0    0 -0.29497155481E+02 -0.40214739661E+01  0.11422167601E+02  0.31886052547E+02  0.00000000000E+00 0. -1.
         11    1    3    3    0    0 -0.25409426373E+01 -0.14772627022E+02 -0.15816790604E+01  0.15072777034E+02  0.51100000000E-03 0. -1.
        -11    1    3    3    0    0  0.32954840940E+02  0.11088386675E+02 -0.51176115620E+01  0.35144897337E+02  0.51100000000E-03 0.  1.
        -12    1    3    3    0    0 -0.91674282138E+00  0.77057143127E+01 -0.47228769783E+01  0.90842730816E+01  0.00000000000E+00 0.  1.
</event>
<event>
 7    1  0.4237994E-013  0.5930196E+02  0.7816164E-02  0.1266605E+00
        -11   -1    0    0    0    0  0.00000000000E+00  0.00000000000E+00  0.45593999997E+02  0.45594000000E+02  0.51100000000E-03 0. -1.
         11   -1    0    0    0    0 -0.00000000000E+00 -0.00000000000E+00 -0.45593999997E+02  0.45594000000E+02  0.51100000000E-03 0.  1.
    9900012    2    1    2    0    0  0.10892388795E+01 -0.20645105031E+02 -0.24275769288E+02  0.59301956382E+02  0.50000022532E+02 0.  0.
         12    1    1    2    0    0 -0.10892388795E+01  0.20645105031E+02  0.24275769288E+02  0.31886043618E+02  0.00000000000E+00 0. -1.
         11    1    3    3    0    0  0.93258263105E+01 -0.15253612919E+02 -0.32247876048E+02  0.36872337237E+02  0.51100000000E-03 0.  1.
        -11    1    3    3    0    0 -0.24948525515E+01 -0.55817648536E+01  0.13272568941E+02  0.14613058362E+02  0.51100000000E-03 0. -1.
        -12    1    3    3    0    0 -0.57417348796E+01  0.19027274202E+00 -0.53004621812E+01  0.78165607832E+01  0.00000000000E+00 0.  1.
</event>
<event>
 7    1  0.4237994E-013  0.5930193E+02  0.7816164E-02  0.1266605E+00
        -11   -1    0    0    0    0  0.00000000000E+00  0.00000000000E+00  0.45593999997E+02  0.45594000000E+02  0.51100000000E-03 0. -1.
         11   -1    0    0    0    0 -0.00000000000E+00 -0.00000000000E+00 -0.45593999997E+02  0.45594000000E+02  0.51100000000E-03 0.  1.
    9900012    2    1    2    0    0  0.78351000396E+01  0.26776661066E+02 -0.15438363720E+02  0.59301930239E+02  0.49999974852E+02 0.  0.
         12    1    1    2    0    0 -0.78351000396E+01 -0.26776661066E+02  0.15438363720E+02  0.31886069761E+02  0.00000000000E+00 0. -1.
         11    1    3    3    0    0 -0.11100229837E+02  0.12100789034E+02  0.10941468950E+02  0.19732205673E+02  0.51100000000E-03 0. -1.
        -11    1    3    3    0    0  0.15871812875E+02  0.14170044755E+02 -0.11139902537E+02  0.24016703377E+02  0.51100000000E-03 0.  1.
         12    1    3    3    0    0  0.30635170013E+01  0.50582727697E+00 -0.15239930132E+02  0.15553021189E+02  0.00000000000E+00 0. -1.
</event>
<event>
 7    1  0.4237994E-013  0.5930194E+02  0.7816164E-02  0.1266605E+00
        -11   -1    0    0    0    0  0.00000000000E+00  0.00000000000E+00  0.45593999997E+02  0.45594000000E+02  0.51100000000E-03 0.  1.
         11   -1    0    0    0    0 -0.00000000000E+00 -0.00000000000E+00 -0.45593999997E+02  0.45594000000E+02  0.51100000000E-03 0. -1.
    9900012    2    1    2    0    0  0.25355281562E+02 -0.12717007886E+02  0.14563931580E+02  0.59301941985E+02  0.49999996274E+02 0.  0.
         12    1    1    2    0    0 -0.25355281562E+02  0.12717007886E+02 -0.14563931580E+02  0.31886058015E+02  0.00000000000E+00 0. -1.
         11    1    3    3    0    0 -0.80056689282E+01  0.84328094782E+01  0.10680381680E+02  0.15788399658E+02  0.51100000000E-03 0. -1.
        -11    1    3    3    0    0  0.10221265086E+02 -0.13924229858E+02  0.78089264576E+01  0.18956206630E+02  0.51100000000E-03 0.  1.
         12    1    3    3    0    0  0.23139685404E+02 -0.72255875064E+01 -0.39253765573E+01  0.24557335697E+02  0.00000000000E+00 0. -1.
</event>
<event>
 7    1  0.4237994E-013  0.5930196E+02  0.7816164E-02  0.1266605E+00
        -11   -1    0    0    0    0  0.00000000000E+00  0.00000000000E+00  0.45593999997E+02  0.45594000000E+02  0.51100000000E-03 0.  1.
         11   -1    0    0    0    0 -0.00000000000E+00 -0.00000000000E+00 -0.45593999997E+02  0.45594000000E+02  0.51100000000E-03 0. -1.
    9900012    2    1    2    0    0  0.51649045026E+01  0.11531955722E+02  0.29275536286E+02  0.59301964402E+02  0.50000037158E+02 0.  0.
         12    1    1    2    0    0 -0.51649045026E+01 -0.11531955722E+02 -0.29275536286E+02  0.31886035598E+02  0.00000000000E+00 0. -1.
         11    1    3    3    0    0  0.18347182032E+02  0.14062725559E+02  0.14126143052E+01  0.23159767229E+02  0.51100000000E-03 0. -1.
        -11    1    3    3    0    0  0.24472060096E+00  0.26101178297E+00  0.20638371936E+02  0.20641473101E+02  0.51100000000E-03 0.  1.
         12    1    3    3    0    0 -0.13426998130E+02 -0.27917816199E+01  0.72245500447E+01  0.15500724072E+02  0.00000000000E+00 0. -1.
</event>
<event>
 7    1  0.4237994E-013  0.5930195E+02  0.7816164E-02  0.1266605E+00
        -11   -1    0    0    0    0  0.00000000000E+00  0.00000000000E+00  0.45593999997E+02  0.45594000000E+02  0.51100000000E-03 0. -1.
         11   -1    0    0    0    0 -0.00000000000E+00 -0.00000000000E+00 -0.45593999997E+02  0.45594000000E+02  0.51100000000E-03 0.  1.
    9900012    2    1    2    0    0 -0.10018935960E+02  0.66977697272E+01 -0.29520853735E+02  0.59301952858E+02  0.50000016105E+02 0.  0.
         12    1    1    2    0    0  0.10018935960E+02 -0.66977697272E+01  0.29520853735E+02  0.31886047142E+02  0.00000000000E+00 0. -1.
         11    1    3    3    0    0  0.39959340781E+01 -0.27981938922E+01  0.60496728859E+01  0.77714812297E+01  0.51100000000E-03 0. -1.
        -11    1    3    3    0    0 -0.25017319857E+02  0.58780604270E+01 -0.24178198943E+02  0.35284602756E+02  0.51100000000E-03 0.  1.
        -12    1    3    3    0    0  0.11002449819E+02  0.36179031924E+01 -0.11392327677E+02  0.16245868873E+02  0.00000000000E+00 0.  1.
</event>
<event>
 7    1  0.4237994E-013  0.5930179E+02  0.7816164E-02  0.1266605E+00
        -11   -1    0    0    0    0  0.00000000000E+00  0.00000000000E+00  0.45593999997E+02  0.45594000000E+02  0.51100000000E-03 0.  1.
         11   -1    0    0    0    0 -0.00000000000E+00 -0.00000000000E+00 -0.45593999997E+02  0.45594000000E+02  0.51100000000E-03 0. -1.
    9900012    2    1    2    0    0 -0.15217016806E+02 -0.20884955825E+02  0.18681317207E+02  0.59301786789E+02  0.49999713234E+02 0.  0.
         12    1    1    2    0    0  0.15217016806E+02  0.20884955825E+02 -0.18681317207E+02  0.31886213211E+02  0.00000000000E+00 0. -1.
         11    1    3    3    0    0 -0.17572277659E+02 -0.11860127307E+02 -0.45099809176E+01  0.21674581657E+02  0.51100000000E-03 0. -1.
        -11    1    3    3    0    0  0.11966829753E+02 -0.10094434217E+02  0.40337513381E+01  0.16167058069E+02  0.51100000000E-03 0.  1.
        -12    1    3    3    0    0 -0.96115689008E+01  0.10696056986E+01  0.19157546787E+02  0.21460147063E+02  0.00000000000E+00 0.  1.
</event>
<event>
 7    1  0.4237994E-013  0.5930194E+02  0.7816164E-02  0.1266605E+00
        -11   -1    0    0    0    0  0.00000000000E+00  0.00000000000E+00  0.45593999997E+02  0.45594000000E+02  0.51100000000E-03 0.  1.
         11   -1    0    0    0    0 -0.00000000000E+00 -0.00000000000E+00 -0.45593999997E+02  0.45594000000E+02  0.51100000000E-03 0. -1.
    9900012    2    1    2    0    0 -0.19980375242E+02  0.10583222552E+02  0.22483352055E+02  0.59301935426E+02  0.49999984312E+02 0.  0.
         12    1    1    2    0    0  0.19980375242E+02 -0.10583222552E+02 -0.22483352055E+02  0.31886064574E+02  0.00000000000E+00 0. -1.
         11    1    3    3    0    0 -0.26894014931E+02 -0.11472466120E+01  0.92047143852E+01  0.28448743049E+02  0.51100000000E-03 0. -1.
        -11    1    3    3    0    0 -0.17704159432E+01  0.10261307950E+02  0.18048607916E+02  0.20837011816E+02  0.51100000000E-03 0.  1.
         12    1    3    3    0    0  0.86840556318E+01  0.14691612147E+01 -0.47699702456E+01  0.10016180561E+02  0.00000000000E+00 0. -1.
</event>
<event>
 7    1  0.4237994E-013  0.5930192E+02  0.7816164E-02  0.1266605E+00
        -11   -1    0    0    0    0  0.00000000000E+00  0.00000000000E+00  0.45593999997E+02  0.45594000000E+02  0.51100000000E-03 0. -1.
         11   -1    0    0    0    0 -0.00000000000E+00 -0.00000000000E+00 -0.45593999997E+02  0.45594000000E+02  0.51100000000E-03 0.  1.
    9900012    2    1    2    0    0  0.13920501596E+02 -0.13584739830E+02 -0.25266505082E+02  0.59301924670E+02  0.49999964696E+02 0.  0.
         12    1    1    2    0    0 -0.13920501596E+02  0.13584739830E+02  0.25266505082E+02  0.31886075330E+02  0.00000000000E+00 0. -1.
         11    1    3    3    0    0 -0.47875158374E+01  0.95544087221E+01 -0.20906841523E+02  0.23479843625E+02  0.51100000000E-03 0. -1.
        -11    1    3    3    0    0  0.57114680710E+01 -0.17503891949E+02 -0.95425005133E+01  0.20738042752E+02  0.51100000000E-03 0.  1.
         12    1    3    3    0    0  0.12996549362E+02 -0.56352566029E+01  0.51828369547E+01  0.15084038293E+02  0.00000000000E+00 0. -1.
</event>
<event>
 7    1  0.4237994E-013  0.5930194E+02  0.7816164E-02  0.1266605E+00
        -11   -1    0    0    0    0  0.00000000000E+00  0.00000000000E+00  0.45593999997E+02  0.45594000000E+02  0.51100000000E-03 0.  1.
         11   -1    0    0    0    0 -0.00000000000E+00 -0.00000000000E+00 -0.45593999997E+02  0.45594000000E+02  0.51100000000E-03 0. -1.
    9900012    2    1    2    0    0  0.29233371156E+01  0.16251100693E+02  0.27277765606E+02  0.59301942387E+02  0.49999997008E+02 0.  0.
         12    1    1    2    0    0 -0.29233371156E+01 -0.16251100693E+02 -0.27277765606E+02  0.31886057613E+02  0.00000000000E+00 0. -1.
         11    1    3    3    0    0  0.63419948623E+01  0.12090037378E+02  0.62691244958E+01  0.15023043128E+02  0.51100000000E-03 0. -1.
        -11    1    3    3    0    0 -0.11204240695E+02 -0.12120957071E+02  0.20372411691E+02  0.26219987953E+02  0.51100000000E-03 0.  1.
        -12    1    3    3    0    0  0.77855829482E+01  0.16282020386E+02  0.63622941866E+00  0.18058911306E+02  0.00000000000E+00 0.  1.
</event>
<event>
 7    1  0.4237994E-013  0.5930203E+02  0.7816164E-02  0.1266604E+00
        -11   -1    0    0    0    0  0.00000000000E+00  0.00000000000E+00  0.45593999997E+02  0.45594000000E+02  0.51100000000E-03 0. -1.
         11   -1    0    0    0    0 -0.00000000000E+00 -0.00000000000E+00 -0.45593999997E+02  0.45594000000E+02  0.51100000000E-03 0.  1.
    9900012    2    1    2    0    0  0.13695501986E+02 -0.28501238998E+02  0.41021200016E+01  0.59302034629E+02  0.50000165235E+02 0.  0.
         12    1    1    2    0    0 -0.13695501986E+02  0.28501238998E+02 -0.41021200016E+01  0.31885965371E+02  0.00000000000E+00 0. -1.
         11    1    3    3    0    0  0.37485331262E+01 -0.19948815233E+02  0.19015528995E+02  0.27813613088E+02  0.51100000000E-03 0. -1.
        -11    1    3    3    0    0  0.16306200362E+02 -0.38946419051E+01 -0.16416248372E+02  0.23463878978E+02  0.51100000000E-03 0.  1.
        -12    1    3    3    0    0 -0.63592315019E+01 -0.46577818607E+01  0.15028393787E+01  0.80245425636E+01  0.00000000000E+00 0.  1.
</event>
<event>
 7    1  0.4237994E-013  0.5930193E+02  0.7816164E-02  0.1266605E+00
        -11   -1    0    0    0    0  0.00000000000E+00  0.00000000000E+00  0.45593999997E+02  0.45594000000E+02  0.51100000000E-03 0.  1.
         11   -1    0    0    0    0 -0.00000000000E+00 -0.00000000000E+00 -0.45593999997E+02  0.45594000000E+02  0.51100000000E-03 0. -1.
    9900012    2    1    2    0    0  0.30774365270E+00  0.60256226853E+01  0.31310044999E+02  0.59301925410E+02  0.49999966045E+02 0.  0.
         12    1    1    2    0    0 -0.30774365270E+00 -0.60256226853E+01 -0.31310044999E+02  0.31886074590E+02  0.00000000000E+00 0. -1.
         11    1    3    3    0    0  0.91492154370E+00 -0.14889744602E+02  0.32374463701E+01  0.15265078938E+02  0.51100000000E-03 0. -1.
        -11    1    3    3    0    0 -0.96446788377E+01  0.14568882905E+02  0.45558514811E+01  0.18056244404E+02  0.51100000000E-03 0.  1.
         12    1    3    3    0    0  0.90375009467E+01  0.63464843818E+01  0.23516747148E+02  0.25980602068E+02  0.00000000000E+00 0. -1.
</event>
<event>
 7    1  0.4237994E-013  0.5930195E+02  0.7816164E-02  0.1266605E+00
        -11   -1    0    0    0    0  0.00000000000E+00  0.00000000000E+00  0.45593999997E+02  0.45594000000E+02  0.51100000000E-03 0.  1.
         11   -1    0    0    0    0 -0.00000000000E+00 -0.00000000000E+00 -0.45593999997E+02  0.45594000000E+02  0.51100000000E-03 0. -1.
    9900012    2    1    2    0    0 -0.15620599474E+02 -0.27755955481E+02 -0.15244274099E+01  0.59301951774E+02  0.50000014126E+02 0.  0.
         12    1    1    2    0    0  0.15620599474E+02  0.27755955481E+02  0.15244274099E+01  0.31886048226E+02  0.00000000000E+00 0. -1.
         11    1    3    3    0    0  0.56944044715E+00 -0.18657954370E+02 -0.17256783122E+02  0.25421252678E+02  0.51100000000E-03 0. -1.
        -11    1    3    3    0    0 -0.16963334357E+02  0.35317927630E+01  0.97872452847E+01  0.19900212138E+02  0.51100000000E-03 0.  1.
        -12    1    3    3    0    0  0.77329443619E+00 -0.12629793874E+02  0.59451104276E+01  0.13980486958E+02  0.00000000000E+00 0.  1.
</event>
<event>
 7    1  0.4237994E-013  0.5930195E+02  0.7816164E-02  0.1266605E+00
        -11   -1    0    0    0    0  0.00000000000E+00  0.00000000000E+00  0.45593999997E+02  0.45594000000E+02  0.51100000000E-03 0.  1.
         11   -1    0    0    0    0 -0.00000000000E+00 -0.00000000000E+00 -0.45593999997E+02  0.45594000000E+02  0.51100000000E-03 0. -1.
    9900012    2    1    2    0    0  0.67121223886E+01 -0.24791391196E+02  0.18895884682E+02  0.59301950976E+02  0.50000012673E+02 0.  0.
         12    1    1    2    0    0 -0.67121223886E+01  0.24791391196E+02 -0.18895884682E+02  0.31886049024E+02  0.00000000000E+00 0. -1.
         11    1    3    3    0    0  0.23085066386E+02  0.30992817514E+01  0.64053256681E+01  0.24156863096E+02  0.51100000000E-03 0. -1.
        -11    1    3    3    0    0 -0.11088282908E+02 -0.17082716263E+02  0.10623970259E+02  0.22970371288E+02  0.51100000000E-03 0.  1.
         12    1    3    3    0    0 -0.52846610895E+01 -0.10807956685E+02  0.18665887550E+01  0.12174716593E+02  0.00000000000E+00 0. -1.
</event>
<event>
 7    1  0.4237994E-013  0.5930192E+02  0.7816164E-02  0.1266605E+00
        -11   -1    0    0    0    0  0.00000000000E+00  0.00000000000E+00  0.45593999997E+02  0.45594000000E+02  0.51100000000E-03 0.  1.
         11   -1    0    0    0    0 -0.00000000000E+00 -0.00000000000E+00 -0.45593999997E+02  0.45594000000E+02  0.51100000000E-03 0. -1.
    9900012    2    1    2    0    0 -0.88390756405E+01  0.30576436012E+02 -0.19169065034E+01  0.59301917959E+02  0.49999952457E+02 0.  0.
         12    1    1    2    0    0  0.88390756405E+01 -0.30576436012E+02  0.19169065034E+01  0.31886082041E+02  0.00000000000E+00 0. -1.
         11    1    3    3    0    0  0.53141055601E+01  0.29195607197E+01  0.63405017564E+01  0.87729992297E+01  0.51100000000E-03 0.  1.
        -11    1    3    3    0    0 -0.46725262475E+01 -0.16313740121E+01 -0.17660111716E+02  0.18340486056E+02  0.51100000000E-03 0. -1.
        -12    1    3    3    0    0 -0.94806549531E+01  0.29288249305E+02  0.94027034560E+01  0.32188432673E+02  0.00000000000E+00 0.  1.
</event>
<event>
 7    1  0.4237994E-013  0.5930194E+02  0.7816164E-02  0.1266605E+00
        -11   -1    0    0    0    0  0.00000000000E+00  0.00000000000E+00  0.45593999997E+02  0.45594000000E+02  0.51100000000E-03 0.  1.
         11   -1    0    0    0    0 -0.00000000000E+00 -0.00000000000E+00 -0.45593999997E+02  0.45594000000E+02  0.51100000000E-03 0. -1.
    9900012    2    1    2    0    0 -0.32004947053E+01  0.19331265784E+02  0.25155119644E+02  0.59301936469E+02  0.49999986215E+02 0.  0.
         12    1    1    2    0    0  0.32004947053E+01 -0.19331265784E+02 -0.25155119644E+02  0.31886063531E+02  0.00000000000E+00 0. -1.
         11    1    3    3    0    0 -0.16470129195E+02  0.17064247852E+02  0.44464389599E+01  0.24129329252E+02  0.51100000000E-03 0. -1.
        -11    1    3    3    0    0 -0.11867359964E+01  0.27835063290E+01  0.20482949414E+02  0.20705252154E+02  0.51100000000E-03 0.  1.
         12    1    3    3    0    0  0.14456370486E+02 -0.51648839703E+00  0.22573127003E+00  0.14467355063E+02  0.00000000000E+00 0. -1.
</event>
<event>
 7    1  0.4237994E-013  0.5930194E+02  0.7816164E-02  0.1266605E+00
        -11   -1    0    0    0    0  0.00000000000E+00  0.00000000000E+00  0.45593999997E+02  0.45594000000E+02  0.51100000000E-03 0. -1.
         11   -1    0    0    0    0 -0.00000000000E+00 -0.00000000000E+00 -0.45593999997E+02  0.45594000000E+02  0.51100000000E-03 0.  1.
    9900012    2    1    2    0    0  0.15058608201E+02 -0.20655582523E+02 -0.19060594615E+02  0.59301936628E+02  0.49999986504E+02 0.  0.
         12    1    1    2    0    0 -0.15058608201E+02  0.20655582523E+02  0.19060594615E+02  0.31886063372E+02  0.00000000000E+00 0. -1.
         11    1    3    3    0    0  0.20353061978E+02 -0.17629937883E+02 -0.27387083783E+02  0.38407215468E+02  0.51100000000E-03 0.  1.
        -11    1    3    3    0    0 -0.10910888735E+02  0.25789187048E+01  0.44281283138E+01  0.12054320192E+02  0.51100000000E-03 0. -1.
        -12    1    3    3    0    0  0.56164349574E+01 -0.56045633449E+01  0.38983608540E+01  0.88404009675E+01  0.00000000000E+00 0.  1.
</event>
<event>
 7    1  0.4404416E-013  0.5930196E+02  0.7816164E-02  0.1266605E+00
        -11   -1    0    0    0    0  0.00000000000E+00  0.00000000000E+00  0.45593999997E+02  0.45594000000E+02  0.51100000000E-03 0. -1.
         11   -1    0    0    0    0 -0.00000000000E+00 -0.00000000000E+00 -0.45593999997E+02  0.45594000000E+02  0.51100000000E-03 0.  1.
    9900012    2    1    2    0    0  0.31288619295E+02  0.61204752463E+01  0.53042428998E+00  0.59301964427E+02  0.50000037203E+02 0.  0.
         12    1    1    2    0    0 -0.31288619295E+02 -0.61204752463E+01 -0.53042428998E+00  0.31886035573E+02  0.00000000000E+00 0. -1.
         11    1    3    3    0    0 -0.40724646796E+01  0.11963652567E+02 -0.87158389227E+01  0.15351866326E+02  0.51100000000E-03 0. -1.
        -11    1    3    3    0    0  0.23504028652E+02 -0.13668880180E+02  0.35796202693E+00  0.27192016941E+02  0.51100000000E-03 0.  1.
        -12    1    3    3    0    0  0.11857055323E+02  0.78257028601E+01  0.88883011858E+01  0.16758081160E+02  0.00000000000E+00 0.  1.
</event>
<event>
 7    1  0.4237994E-013  0.5930172E+02  0.7816164E-02  0.1266606E+00
        -11   -1    0    0    0    0  0.00000000000E+00  0.00000000000E+00  0.45593999997E+02  0.45594000000E+02  0.51100000000E-03 0.  1.
         11   -1    0    0    0    0 -0.00000000000E+00 -0.00000000000E+00 -0.45593999997E+02  0.45594000000E+02  0.51100000000E-03 0. -1.
    9900012    2    1    2    0    0  0.29399924932E+02  0.82853309871E+01  0.91505384065E+01  0.59301723192E+02  0.49999597246E+02 0.  0.
         12    1    1    2    0    0 -0.29399924932E+02 -0.82853309871E+01 -0.91505384065E+01  0.31886276808E+02  0.00000000000E+00 0. -1.
         11    1    3    3    0    0 -0.63747690574E+01  0.36159202119E+01  0.10278631416E+02  0.12623898905E+02  0.51100000000E-03 0. -1.
        -11    1    3    3    0    0  0.29669345148E+02 -0.54066982917E+01  0.86426429540E+01  0.31371925434E+02  0.51100000000E-03 0.  1.
         12    1    3    3    0    0  0.61053488411E+01  0.10076109067E+02 -0.97707359638E+01  0.15305898852E+02  0.00000000000E+00 0. -1.
</event>
<event>
 7    1  0.4237994E-013  0.5930200E+02  0.7816164E-02  0.1266605E+00
        -11   -1    0    0    0    0  0.00000000000E+00  0.00000000000E+00  0.45593999997E+02  0.45594000000E+02  0.51100000000E-03 0.  1.
         11   -1    0    0    0    0 -0.00000000000E+00 -0.00000000000E+00 -0.45593999997E+02  0.45594000000E+02  0.51100000000E-03 0. -1.
    9900012    2    1    2    0    0 -0.15540956456E+02 -0.20429627666E+02  0.18916287488E+02  0.59302000777E+02  0.50000103497E+02 0.  0.
         12    1    1    2    0    0  0.15540956456E+02  0.20429627666E+02 -0.18916287488E+02  0.31885999223E+02  0.00000000000E+00 0. -1.
         11    1    3    3    0    0 -0.10918232313E+01 -0.25077069082E+02  0.14759194679E+01  0.25144180445E+02  0.51100000000E-03 0. -1.
        -11    1    3    3    0    0 -0.15241357856E+02  0.67305840202E+01  0.22865992810E+02  0.28292284778E+02  0.51100000000E-03 0.  1.
         12    1    3    3    0    0  0.79222463065E+00 -0.20831426038E+01 -0.54256247898E+01  0.58655355539E+01  0.00000000000E+00 0. -1.
</event>
<event>
 7    1  0.4237994E-013  0.5930194E+02  0.7816164E-02  0.1266605E+00
        -11   -1    0    0    0    0  0.00000000000E+00  0.00000000000E+00  0.45593999997E+02  0.45594000000E+02  0.51100000000E-03 0. -1.
         11   -1    0    0    0    0 -0.00000000000E+00 -0.00000000000E+00 -0.45593999997E+02  0.45594000000E+02  0.51100000000E-03 0.  1.
    9900012    2    1    2    0    0 -0.14653576236E+00 -0.30886344971E+02  0.79204309478E+01  0.59301937139E+02  0.49999987437E+02 0.  0.
         12    1    1    2    0    0  0.14653576236E+00  0.30886344971E+02 -0.79204309478E+01  0.31886062861E+02  0.00000000000E+00 0. -1.
         11    1    3    3    0    0 -0.34888839398E+01 -0.35987934272E+02  0.50694386604E+01  0.36510312692E+02  0.51100000000E-03 0. -1.
        -11    1    3    3    0    0 -0.86341316535E+01 -0.12076021570E+01 -0.84613440785E+00  0.87591367199E+01  0.51100000000E-03 0.  1.
         12    1    3    3    0    0  0.11976479831E+02  0.63091914584E+01  0.36971266953E+01  0.14032487727E+02  0.00000000000E+00 0. -1.
</event>
<event>
 7    1  0.4237994E-013  0.5930192E+02  0.7816164E-02  0.1266605E+00
        -11   -1    0    0    0    0  0.00000000000E+00  0.00000000000E+00  0.45593999997E+02  0.45594000000E+02  0.51100000000E-03 0.  1.
         11   -1    0    0    0    0 -0.00000000000E+00 -0.00000000000E+00 -0.45593999997E+02  0.45594000000E+02  0.51100000000E-03 0. -1.
    9900012    2    1    2    0    0 -0.24959318942E+02 -0.42017306789E+01  0.19393295727E+02  0.59301920562E+02  0.49999957205E+02 0.  0.
         12    1    1    2    0    0  0.24959318942E+02  0.42017306789E+01 -0.19393295727E+02  0.31886079438E+02  0.00000000000E+00 0. -1.
         11    1    3    3    0    0  0.13976739653E+01 -0.13923853451E+02 -0.87428806525E+01  0.16500459079E+02  0.51100000000E-03 0. -1.
        -11    1    3    3    0    0 -0.86442767484E+01 -0.68989522368E+00  0.17803909228E+02  0.19803501205E+02  0.51100000000E-03 0.  1.
         12    1    3    3    0    0 -0.17712716159E+02  0.10412017996E+02  0.10332267151E+02  0.22997960278E+02  0.00000000000E+00 0. -1.
</event>
<event>
 7    1  0.4237994E-013  0.5930195E+02  0.7816164E-02  0.1266605E+00
        -11   -1    0    0    0    0  0.00000000000E+00  0.00000000000E+00  0.45593999997E+02  0.45594000000E+02  0.51100000000E-03 0.  1.
         11   -1    0    0    0    0 -0.00000000000E+00 -0.00000000000E+00 -0.45593999997E+02  0.45594000000E+02  0.51100000000E-03 0. -1.
    9900012    2    1    2    0    0  0.22106059298E+02 -0.22243710527E+02  0.57671184405E+01  0.59301950217E+02  0.50000011287E+02 0.  0.
         12    1    1    2    0    0 -0.22106059298E+02  0.22243710527E+02 -0.57671184405E+01  0.31886049783E+02  0.00000000000E+00 0. -1.
         11    1    3    3    0    0  0.97160605203E+01  0.43784639614E+01  0.22344158324E+02  0.24755488082E+02  0.51100000000E-03 0. -1.
        -11    1    3    3    0    0  0.89061709582E+01 -0.10346426990E+02 -0.69615110873E+01  0.15324198820E+02  0.51100000000E-03 0.  1.
         12    1    3    3    0    0  0.34838278197E+01 -0.16275747498E+02 -0.96155287965E+01  0.19222263315E+02  0.00000000000E+00 0. -1.
</event>
<event>
 7    1  0.4237994E-013  0.5930193E+02  0.7816164E-02  0.1266605E+00
        -11   -1    0    0    0    0  0.00000000000E+00  0.00000000000E+00  0.45593999997E+02  0.45594000000E+02  0.51100000000E-03 0.  1.
         11   -1    0    0    0    0 -0.00000000000E+00 -0.00000000000E+00 -0.45593999997E+02  0.45594000000E+02  0.51100000000E-03 0. -1.
    9900012    2    1    2    0    0 -0.27262405852E+02 -0.39102006190E+01  0.16068376739E+02  0.59301934505E+02  0.49999982632E+02 0.  0.
         12    1    1    2    0    0  0.27262405852E+02  0.39102006190E+01 -0.16068376739E+02  0.31886065495E+02  0.00000000000E+00 0. -1.
         11    1    3    3    0    0 -0.20889045466E+02  0.56341725885E+01  0.31085892114E+02  0.37873853910E+02  0.51100000000E-03 0.  1.
        -11    1    3    3    0    0 -0.18841550540E+01 -0.10479651724E+02 -0.11286457131E+02  0.15516354448E+02  0.51100000000E-03 0. -1.
        -12    1    3    3    0    0 -0.44892053325E+01  0.93527851678E+00 -0.37310582430E+01  0.59117261467E+01  0.00000000000E+00 0.  1.
</event>
<event>
 7    1  0.4237994E-013  0.5930197E+02  0.7816164E-02  0.1266605E+00
        -11   -1    0    0    0    0  0.00000000000E+00  0.00000000000E+00  0.45593999997E+02  0.45594000000E+02  0.51100000000E-03 0.  1.
         11   -1    0    0    0    0 -0.00000000000E+00 -0.00000000000E+00 -0.45593999997E+02  0.45594000000E+02  0.51100000000E-03 0. -1.
    9900012    2    1    2    0    0 -0.15056109968E+02  0.22730420118E+02  0.16533615417E+02  0.59301970381E+02  0.50000048062E+02 0.  0.
         12    1    1    2    0    0  0.15056109968E+02 -0.22730420118E+02 -0.16533615417E+02  0.31886029619E+02  0.00000000000E+00 0. -1.
         11    1    3    3    0    0 -0.61795690989E+01  0.27840163521E+01  0.14408634122E+02  0.15923145381E+02  0.51100000000E-03 0.  1.
        -11    1    3    3    0    0  0.84664926966E+00  0.27595187487E+02 -0.64183653866E+01  0.28344428058E+02  0.51100000000E-03 0. -1.
         12    1    3    3    0    0 -0.97231901388E+01 -0.76487837212E+01  0.85433466811E+01  0.15034396942E+02  0.00000000000E+00 0. -1.
</event>
<event>
 7    1  0.4237994E-013  0.5930193E+02  0.7816164E-02  0.1266605E+00
        -11   -1    0    0    0    0  0.00000000000E+00  0.00000000000E+00  0.45593999997E+02  0.45594000000E+02  0.51100000000E-03 0.  1.
         11   -1    0    0    0    0 -0.00000000000E+00 -0.00000000000E+00 -0.45593999997E+02  0.45594000000E+02  0.51100000000E-03 0. -1.
    9900012    2    1    2    0    0 -0.15112448396E+02  0.87394910054E+01  0.26682514778E+02  0.59301931029E+02  0.49999976293E+02 0.  0.
         12    1    1    2    0    0  0.15112448396E+02 -0.87394910054E+01 -0.26682514778E+02  0.31886068971E+02  0.00000000000E+00 0. -1.
         11    1    3    3    0    0  0.53642090093E+01 -0.40285491706E+01 -0.47785663674E+01  0.82364217658E+01  0.51100000000E-03 0. -1.
        -11    1    3    3    0    0 -0.26545695310E+02  0.17705954244E+02  0.21852613738E+02  0.38674429312E+02  0.51100000000E-03 0.  1.
        -12    1    3    3    0    0  0.60690379044E+01 -0.49379140683E+01  0.96084674078E+01  0.12391079951E+02  0.00000000000E+00 0.  1.
</event>
<event>
 7    1  0.4237994E-013  0.5930195E+02  0.7816164E-02  0.1266605E+00
        -11   -1    0    0    0    0  0.00000000000E+00  0.00000000000E+00  0.45593999997E+02  0.45594000000E+02  0.51100000000E-03 0.  1.
         11   -1    0    0    0    0 -0.00000000000E+00 -0.00000000000E+00 -0.45593999997E+02  0.45594000000E+02  0.51100000000E-03 0. -1.
    9900012    2    1    2    0    0 -0.71613467228E+01  0.18978709421E+02  0.24601707473E+02  0.59301948053E+02  0.50000007341E+02 0.  0.
         12    1    1    2    0    0  0.71613467228E+01 -0.18978709421E+02 -0.24601707473E+02  0.31886051947E+02  0.00000000000E+00 0. -1.
         11    1    3    3    0    0 -0.20417109558E+01 -0.55152038122E+01 -0.33942385155E+01  0.67902070719E+01  0.51100000000E-03 0. -1.
        -11    1    3    3    0    0  0.59353501481E+01  0.29399781284E+02  0.11646092071E+02  0.32174632581E+02  0.51100000000E-03 0.  1.
        -12    1    3    3    0    0 -0.11054985915E+02 -0.49058680508E+01  0.16349853918E+02  0.20337108400E+02  0.00000000000E+00 0.  1.
</event>
<event>
 7    1  0.4237994E-013  0.5930195E+02  0.7816164E-02  0.1266605E+00
        -11   -1    0    0    0    0  0.00000000000E+00  0.00000000000E+00  0.45593999997E+02  0.45594000000E+02  0.51100000000E-03 0.  1.
         11   -1    0    0    0    0 -0.00000000000E+00 -0.00000000000E+00 -0.45593999997E+02  0.45594000000E+02  0.51100000000E-03 0. -1.
    9900012    2    1    2    0    0  0.10023317388E+02  0.29682585956E+02 -0.59327529576E+01  0.59301947278E+02  0.50000005928E+02 0.  0.
         12    1    1    2    0    0 -0.10023317388E+02 -0.29682585956E+02  0.59327529576E+01  0.31886052722E+02  0.00000000000E+00 0. -1.
         11    1    3    3    0    0 -0.10361370391E+02  0.21231694381E+02 -0.11772534084E+02  0.26395745901E+02  0.51100000000E-03 0. -1.
        -11    1    3    3    0    0  0.24967733460E+02  0.38508890173E+01  0.19528201837E+01  0.25338322109E+02  0.51100000000E-03 0.  1.
        -12    1    3    3    0    0 -0.45830456813E+01  0.46000025582E+01  0.38869609424E+01  0.75678792684E+01  0.00000000000E+00 0.  1.
</event>
<event>
 7    1  0.4237994E-013  0.5930193E+02  0.7816164E-02  0.1266605E+00
        -11   -1    0    0    0    0  0.00000000000E+00  0.00000000000E+00  0.45593999997E+02  0.45594000000E+02  0.51100000000E-03 0.  1.
         11   -1    0    0    0    0 -0.00000000000E+00 -0.00000000000E+00 -0.45593999997E+02  0.45594000000E+02  0.51100000000E-03 0. -1.
    9900012    2    1    2    0    0  0.21461623620E+02 -0.11447284700E+02  0.20617471976E+02  0.59301925201E+02  0.49999965665E+02 0.  0.
         12    1    1    2    0    0 -0.21461623620E+02  0.11447284700E+02 -0.20617471976E+02  0.31886074799E+02  0.00000000000E+00 0. -1.
         11    1    3    3    0    0 -0.10529785199E+02  0.27978726283E+01  0.20315787165E+02  0.23052888669E+02  0.51100000000E-03 0. -1.
        -11    1    3    3    0    0  0.12162792243E+02 -0.18099729799E+01 -0.28772093891E+01  0.12628849966E+02  0.51100000000E-03 0.  1.
        -12    1    3    3    0    0  0.19828616576E+02 -0.12435184348E+02  0.31788942002E+01  0.23620186566E+02  0.00000000000E+00 0.  1.
</event>
<event>
 7    1  0.4237994E-013  0.5930194E+02  0.7816164E-02  0.1266605E+00
        -11   -1    0    0    0    0  0.00000000000E+00  0.00000000000E+00  0.45593999997E+02  0.45594000000E+02  0.51100000000E-03 0. -1.
         11   -1    0    0    0    0 -0.00000000000E+00 -0.00000000000E+00 -0.45593999997E+02  0.45594000000E+02  0.51100000000E-03 0.  1.
    9900012    2    1    2    0    0 -0.29385683863E+02  0.11355219186E+02 -0.49255594414E+01  0.59301944197E+02  0.50000000308E+02 0.  0.
         12    1    1    2    0    0  0.29385683863E+02 -0.11355219186E+02  0.49255594414E+01  0.31886055803E+02  0.00000000000E+00 0. -1.
         11    1    3    3    0    0 -0.13271899658E+02  0.11316683200E+02 -0.30564501479E+01  0.17707414462E+02  0.51100000000E-03 0. -1.
        -11    1    3    3    0    0 -0.14216817282E+02 -0.17965657393E+02 -0.43557341781E+01  0.23320702384E+02  0.51100000000E-03 0.  1.
        -12    1    3    3    0    0 -0.18969669240E+01  0.18004193379E+02  0.24866248846E+01  0.18273827351E+02  0.00000000000E+00 0.  1.
</event>
<event>
 7    1  0.4237994E-013  0.5930192E+02  0.7816164E-02  0.1266605E+00
        -11   -1    0    0    0    0  0.00000000000E+00  0.00000000000E+00  0.45593999997E+02  0.45594000000E+02  0.51100000000E-03 0.  1.
         11   -1    0    0    0    0 -0.00000000000E+00 -0.00000000000E+00 -0.45593999997E+02  0.45594000000E+02  0.51100000000E-03 0. -1.
    9900012    2    1    2    0    0 -0.21554773631E+02  0.23071221017E+02 -0.44533841449E+01  0.59301919403E+02  0.49999955091E+02 0.  0.
         12    1    1    2    0    0  0.21554773631E+02 -0.23071221017E+02  0.44533841449E+01  0.31886080597E+02  0.00000000000E+00 0. -1.
         11    1    3    3    0    0 -0.90176812856E+00 -0.32397381239E+01 -0.19990873072E+02  0.20271756098E+02  0.51100000000E-03 0. -1.
        -11    1    3    3    0    0 -0.14818578827E+02  0.25445325668E+02  0.10463217340E+02  0.31249540704E+02  0.51100000000E-03 0.  1.
        -12    1    3    3    0    0 -0.58344266752E+01  0.86563347250E+00  0.50742715864E+01  0.77806226017E+01  0.00000000000E+00 0.  1.
</event>
<event>
 7    1  0.4237994E-013  0.5930186E+02  0.7816164E-02  0.1266605E+00
        -11   -1    0    0    0    0  0.00000000000E+00  0.00000000000E+00  0.45593999997E+02  0.45594000000E+02  0.51100000000E-03 0. -1.
         11   -1    0    0    0    0 -0.00000000000E+00 -0.00000000000E+00 -0.45593999997E+02  0.45594000000E+02  0.51100000000E-03 0.  1.
    9900012    2    1    2    0    0  0.31111799941E+02  0.29243362238E+01 -0.63427222005E+01  0.59301859393E+02  0.49999845646E+02 0.  0.
         12    1    1    2    0    0 -0.31111799941E+02 -0.29243362238E+01  0.63427222005E+01  0.31886140607E+02  0.00000000000E+00 0. -1.
         11    1    3    3    0    0  0.71317039706E+01  0.51272344711E+01 -0.14449139449E+01  0.89015454509E+01  0.51100000000E-03 0. -1.
        -11    1    3    3    0    0 -0.12746270404E+02  0.25788542288E+01 -0.28132502344E+01  0.13305347627E+02  0.51100000000E-03 0.  1.
        -12    1    3    3    0    0  0.36726366374E+02 -0.47817524761E+01 -0.20845580212E+01  0.37094966315E+02  0.00000000000E+00 0.  1.
</event>
<event>
 7    1  0.4237994E-013  0.5930194E+02  0.7816164E-02  0.1266605E+00
        -11   -1    0    0    0    0  0.00000000000E+00  0.00000000000E+00  0.45593999997E+02  0.45594000000E+02  0.51100000000E-03 0.  1.
         11   -1    0    0    0    0 -0.00000000000E+00 -0.00000000000E+00 -0.45593999997E+02  0.45594000000E+02  0.51100000000E-03 0. -1.
    9900012    2    1    2    0    0 -0.12167333910E+02 -0.82490168592E+01  0.28295411937E+02  0.59301943011E+02  0.49999998146E+02 0.  0.
         12    1    1    2    0    0  0.12167333910E+02  0.82490168592E+01 -0.28295411937E+02  0.31886056989E+02  0.00000000000E+00 0. -1.
         11    1    3    3    0    0 -0.14583650025E+02 -0.15540698584E+00 -0.10355345830E+01  0.14621194600E+02  0.51100000000E-03 0. -1.
        -11    1    3    3    0    0 -0.56762881716E+01  0.43588122560E+01  0.28953525206E+02  0.29824924372E+02  0.51100000000E-03 0.  1.
        -12    1    3    3    0    0  0.80926042872E+01 -0.12452422129E+02  0.37742131371E+00  0.14855824039E+02  0.00000000000E+00 0.  1.
</event>
<event>
 7    1  0.4237994E-013  0.5930194E+02  0.7816164E-02  0.1266605E+00
        -11   -1    0    0    0    0  0.00000000000E+00  0.00000000000E+00  0.45593999997E+02  0.45594000000E+02  0.51100000000E-03 0.  1.
         11   -1    0    0    0    0 -0.00000000000E+00 -0.00000000000E+00 -0.45593999997E+02  0.45594000000E+02  0.51100000000E-03 0. -1.
    9900012    2    1    2    0    0  0.15719494409E+02 -0.26730174364E+01  0.27612917701E+02  0.59301941124E+02  0.49999994704E+02 0.  0.
         12    1    1    2    0    0 -0.15719494409E+02  0.26730174364E+01 -0.27612917701E+02  0.31886058876E+02  0.00000000000E+00 0. -1.
         11    1    3    3    0    0  0.23359654332E+01 -0.19685362528E+02  0.12610352778E+02  0.23494493607E+02  0.51100000000E-03 0.  1.
        -11    1    3    3    0    0  0.50916579017E+01  0.13464468817E+02 -0.38565608476E+01  0.14902683065E+02  0.51100000000E-03 0. -1.
        -12    1    3    3    0    0  0.82918710736E+01  0.35478762752E+01  0.18859125771E+02  0.20904764452E+02  0.00000000000E+00 0.  1.
</event>
<event>
 7    1  0.4237994E-013  0.5930199E+02  0.7816164E-02  0.1266605E+00
        -11   -1    0    0    0    0  0.00000000000E+00  0.00000000000E+00  0.45593999997E+02  0.45594000000E+02  0.51100000000E-03 0. -1.
         11   -1    0    0    0    0 -0.00000000000E+00 -0.00000000000E+00 -0.45593999997E+02  0.45594000000E+02  0.51100000000E-03 0.  1.
    9900012    2    1    2    0    0 -0.25161753295E+02 -0.40927794451E+01 -0.19153408130E+02  0.59301988718E+02  0.50000081504E+02 0.  0.
         12    1    1    2    0    0  0.25161753295E+02  0.40927794451E+01  0.19153408130E+02  0.31886011282E+02  0.00000000000E+00 0. -1.
         11    1    3    3    0    0 -0.14403404779E+00 -0.18890479326E+02  0.35134021907E-01  0.18891061104E+02  0.51100000000E-03 0. -1.
        -11    1    3    3    0    0 -0.19747440759E+02  0.81097190444E+00 -0.65023586212E+01  0.20806243290E+02  0.51100000000E-03 0.  1.
         12    1    3    3    0    0 -0.52702784886E+01  0.13986727977E+02 -0.12686183531E+02  0.19604684324E+02  0.00000000000E+00 0. -1.
</event>
<event>
 7    1  0.4237994E-013  0.5930196E+02  0.7816164E-02  0.1266605E+00
        -11   -1    0    0    0    0  0.00000000000E+00  0.00000000000E+00  0.45593999997E+02  0.45594000000E+02  0.51100000000E-03 0.  1.
         11   -1    0    0    0    0 -0.00000000000E+00 -0.00000000000E+00 -0.45593999997E+02  0.45594000000E+02  0.51100000000E-03 0. -1.
    9900012    2    1    2    0    0 -0.15091630712E+02 -0.14155615199E+01  0.28052780956E+02  0.59301958362E+02  0.50000026143E+02 0.  0.
         12    1    1    2    0    0  0.15091630712E+02  0.14155615199E+01 -0.28052780956E+02  0.31886041638E+02  0.00000000000E+00 0. -1.
         11    1    3    3    0    0 -0.87159268345E+00 -0.37326412857E+01 -0.53451868760E+01  0.65774849125E+01  0.51100000000E-03 0. -1.
        -11    1    3    3    0    0 -0.38129448811E+01  0.18631651003E+02  0.25529915622E+02  0.31834785372E+02  0.51100000000E-03 0.  1.
        -12    1    3    3    0    0 -0.10407093147E+02 -0.16314571237E+02  0.78680522101E+01  0.20889688078E+02  0.00000000000E+00 0.  1.
</event>
<event>
 7    1  0.4237994E-013  0.5930194E+02  0.7816164E-02  0.1266605E+00
        -11   -1    0    0    0    0  0.00000000000E+00  0.00000000000E+00  0.45593999997E+02  0.45594000000E+02  0.51100000000E-03 0.  1.
         11   -1    0    0    0    0 -0.00000000000E+00 -0.00000000000E+00 -0.45593999997E+02  0.45594000000E+02  0.51100000000E-03 0. -1.
    9900012    2    1    2    0    0 -0.23721387653E+02 -0.20279140317E+02 -0.65400881317E+01  0.59301944788E+02  0.50000001387E+02 0.  0.
         12    1    1    2    0    0  0.23721387653E+02  0.20279140317E+02  0.65400881317E+01  0.31886055212E+02  0.00000000000E+00 0. -1.
         11    1    3    3    0    0  0.92501114634E+01 -0.10065809468E+01  0.70608259908E+00  0.93314693476E+01  0.51100000000E-03 0. -1.
        -11    1    3    3    0    0 -0.22968095308E+02 -0.27916182740E+02 -0.64911226636E+01  0.36728481245E+02  0.51100000000E-03 0.  1.
        -12    1    3    3    0    0 -0.10003403808E+02  0.86436233695E+01 -0.75504806718E+00  0.13241994196E+02  0.00000000000E+00 0.  1.
</event>
<event>
 7    1  0.4237994E-013  0.5930195E+02  0.7816164E-02  0.1266605E+00
        -11   -1    0    0    0    0  0.00000000000E+00  0.00000000000E+00  0.45593999997E+02  0.45594000000E+02  0.51100000000E-03 0.  1.
         11   -1    0    0    0    0 -0.00000000000E+00 -0.00000000000E+00 -0.45593999997E+02  0.45594000000E+02  0.51100000000E-03 0. -1.
    9900012    2    1    2    0    0 -0.88298484850E+01 -0.12336942174E+02  0.28045572011E+02  0.59301945433E+02  0.50000002562E+02 0.  0.
         12    1    1    2    0    0  0.88298484850E+01  0.12336942174E+02 -0.28045572011E+02  0.31886054567E+02  0.00000000000E+00 0. -1.
         11    1    3    3    0    0  0.21820304839E+01 -0.21893350437E+02 -0.92032566491E+00  0.22021059238E+02  0.51100000000E-03 0.  1.
        -11    1    3    3    0    0 -0.13672418703E+02  0.13784630382E+01  0.11931665121E+02  0.18198896295E+02  0.51100000000E-03 0. -1.
         12    1    3    3    0    0  0.26605397345E+01  0.81779452248E+01  0.17034232555E+02  0.19081989899E+02  0.00000000000E+00 0. -1.
</event>
<event>
 7    1  0.4237994E-013  0.5930193E+02  0.7816164E-02  0.1266605E+00
        -11   -1    0    0    0    0  0.00000000000E+00  0.00000000000E+00  0.45593999997E+02  0.45594000000E+02  0.51100000000E-03 0.  1.
         11   -1    0    0    0    0 -0.00000000000E+00 -0.00000000000E+00 -0.45593999997E+02  0.45594000000E+02  0.51100000000E-03 0. -1.
    9900012    2    1    2    0    0  0.20126111840E+02 -0.18245072369E+02  0.16696652101E+02  0.59301933530E+02  0.49999980855E+02 0.  0.
         12    1    1    2    0    0 -0.20126111840E+02  0.18245072369E+02 -0.16696652101E+02  0.31886066470E+02  0.00000000000E+00 0. -1.
         11    1    3    3    0    0  0.10000151629E+02 -0.34227686828E+02  0.10174463049E+02  0.37081764747E+02  0.51100000000E-03 0. -1.
        -11    1    3    3    0    0  0.10808516223E+02  0.11142200299E+02  0.74918816013E+01  0.17236616275E+02  0.51100000000E-03 0.  1.
         12    1    3    3    0    0 -0.68255601178E+00  0.48404141605E+01 -0.96969254972E+00  0.49835525076E+01  0.00000000000E+00 0. -1.
</event>
<event>
 7    1  0.4237994E-013  0.5930194E+02  0.7816164E-02  0.1266605E+00
        -11   -1    0    0    0    0  0.00000000000E+00  0.00000000000E+00  0.45593999997E+02  0.45594000000E+02  0.51100000000E-03 0.  1.
         11   -1    0    0    0    0 -0.00000000000E+00 -0.00000000000E+00 -0.45593999997E+02  0.45594000000E+02  0.51100000000E-03 0. -1.
    9900012    2    1    2    0    0 -0.28665722392E+02  0.47551746307E+01 -0.13129558229E+02  0.59301943089E+02  0.49999998288E+02 0.  0.
         12    1    1    2    0    0  0.28665722392E+02 -0.47551746307E+01  0.13129558229E+02  0.31886056911E+02  0.00000000000E+00 0. -1.
         11    1    3    3    0    0 -0.21489048374E+02  0.17475747410E+02 -0.14878665561E+02  0.31441304628E+02  0.51100000000E-03 0. -1.
        -11    1    3    3    0    0 -0.52362390873E+01 -0.43434713649E+01  0.12417020403E+02  0.14158613605E+02  0.51100000000E-03 0.  1.
        -12    1    3    3    0    0 -0.19404349305E+01 -0.83771014147E+01 -0.10667913072E+02  0.13702024855E+02  0.00000000000E+00 0.  1.
</event>
<event>
 7    1  0.4237994E-013  0.5930194E+02  0.7816164E-02  0.1266605E+00
        -11   -1    0    0    0    0  0.00000000000E+00  0.00000000000E+00  0.45593999997E+02  0.45594000000E+02  0.51100000000E-03 0.  1.
         11   -1    0    0    0    0 -0.00000000000E+00 -0.00000000000E+00 -0.45593999997E+02  0.45594000000E+02  0.51100000000E-03 0. -1.
    9900012    2    1    2    0    0  0.99557814845E+01  0.21609868033E+02  0.21227731286E+02  0.59301944162E+02  0.50000000245E+02 0.  0.
         12    1    1    2    0    0 -0.99557814845E+01 -0.21609868033E+02 -0.21227731286E+02  0.31886055838E+02  0.00000000000E+00 0. -1.
         11    1    3    3    0    0  0.12332956821E+02  0.21715493538E+02 -0.77570689785E+01  0.26150269653E+02  0.51100000000E-03 0. -1.
        -11    1    3    3    0    0  0.29487924877E+01  0.65798007263E+01  0.16655709590E+02  0.18149430210E+02  0.51100000000E-03 0.  1.
         12    1    3    3    0    0 -0.53259678241E+01 -0.66854262314E+01  0.12329090674E+02  0.15002244299E+02  0.00000000000E+00 0. -1.
</event>
<event>
 7    1  0.4237994E-013  0.5930194E+02  0.7816164E-02  0.1266605E+00
        -11   -1    0    0    0    0  0.00000000000E+00  0.00000000000E+00  0.45593999997E+02  0.45594000000E+02  0.51100000000E-03 0.  1.
         11   -1    0    0    0    0 -0.00000000000E+00 -0.00000000000E+00 -0.45593999997E+02  0.45594000000E+02  0.51100000000E-03 0. -1.
    9900012    2    1    2    0    0  0.10345318223E+02  0.28976536007E+02 -0.83699180134E+01  0.59301940732E+02  0.49999993990E+02 0.  0.
         12    1    1    2    0    0 -0.10345318223E+02 -0.28976536007E+02  0.83699180134E+01  0.31886059268E+02  0.00000000000E+00 0. -1.
         11    1    3    3    0    0  0.43391762269E+01  0.27042189854E+02  0.69278979726E-01  0.27388196039E+02  0.51100000000E-03 0.  1.
        -11    1    3    3    0    0 -0.10018620424E+02  0.24203848943E+01 -0.11658882369E+02  0.15561508815E+02  0.51100000000E-03 0. -1.
         12    1    3    3    0    0  0.16024762421E+02 -0.48603874195E+00  0.32196853756E+01  0.16352235878E+02  0.00000000000E+00 0. -1.
</event>
<event>
 7    1  0.4237994E-013  0.5930210E+02  0.7816164E-02  0.1266604E+00
        -11   -1    0    0    0    0  0.00000000000E+00  0.00000000000E+00  0.45593999997E+02  0.45594000000E+02  0.51100000000E-03 0. -1.
         11   -1    0    0    0    0 -0.00000000000E+00 -0.00000000000E+00 -0.45593999997E+02  0.45594000000E+02  0.51100000000E-03 0.  1.
    9900012    2    1    2    0    0 -0.14939889167E+02 -0.28075563268E+02  0.22962503564E+01  0.59302104892E+02  0.50000293378E+02 0.  0.
         12    1    1    2    0    0  0.14939889167E+02  0.28075563268E+02 -0.22962503564E+01  0.31885895108E+02  0.00000000000E+00 0. -1.
         11    1    3    3    0    0 -0.62125798187E+01  0.34495966130E+01  0.61449833792E+01  0.93945029559E+01  0.51100000000E-03 0. -1.
        -11    1    3    3    0    0  0.69996058315E+01 -0.73807005627E+00 -0.12432444328E+02  0.14286528670E+02  0.51100000000E-03 0.  1.
        -12    1    3    3    0    0 -0.15726915180E+02 -0.30787089824E+02  0.85837113049E+01  0.35621073267E+02  0.00000000000E+00 0.  1.
</event>
<event>
 7    1  0.4237994E-013  0.5930194E+02  0.7816164E-02  0.1266605E+00
        -11   -1    0    0    0    0  0.00000000000E+00  0.00000000000E+00  0.45593999997E+02  0.45594000000E+02  0.51100000000E-03 0.  1.
         11   -1    0    0    0    0 -0.00000000000E+00 -0.00000000000E+00 -0.45593999997E+02  0.45594000000E+02  0.51100000000E-03 0. -1.
    9900012    2    1    2    0    0 -0.14239882372E+02 -0.25745641691E+02  0.12292609021E+02  0.59301944229E+02  0.50000000367E+02 0.  0.
         12    1    1    2    0    0  0.14239882372E+02  0.25745641691E+02 -0.12292609021E+02  0.31886055771E+02  0.00000000000E+00 0. -1.
         11    1    3    3    0    0  0.74592586643E+01  0.83189050363E+01 -0.75824643599E+01  0.13503276893E+02  0.51100000000E-03 0. -1.
        -11    1    3    3    0    0 -0.55488019616E+01 -0.16091618513E+02  0.95954854936E+01  0.19539773072E+02  0.51100000000E-03 0.  1.
         12    1    3    3    0    0 -0.16150339075E+02 -0.17972928215E+02  0.10279587888E+02  0.26258894264E+02  0.00000000000E+00 0. -1.
</event>
<event>
 7    1  0.4237994E-013  0.5930192E+02  0.7816164E-02  0.1266605E+00
        -11   -1    0    0    0    0  0.00000000000E+00  0.00000000000E+00  0.45593999997E+02  0.45594000000E+02  0.51100000000E-03 0.  1.
         11   -1    0    0    0    0 -0.00000000000E+00 -0.00000000000E+00 -0.45593999997E+02  0.45594000000E+02  0.51100000000E-03 0. -1.
    9900012    2    1    2    0    0  0.20458652015E+02 -0.23735229517E+02 -0.58995244017E+01  0.59301922307E+02  0.49999960386E+02 0.  0.
         12    1    1    2    0    0 -0.20458652015E+02  0.23735229517E+02  0.58995244017E+01  0.31886077693E+02  0.00000000000E+00 0. -1.
         11    1    3    3    0    0  0.94917051150E+01  0.12080545395E+01  0.81243943362E+01  0.12552196834E+02  0.51100000000E-03 0. -1.
        -11    1    3    3    0    0 -0.99703268493E+01 -0.96792871292E+01 -0.15475213612E+02  0.20798515654E+02  0.51100000000E-03 0.  1.
        -12    1    3    3    0    0  0.20937273749E+02 -0.15263996927E+02  0.14512948739E+01  0.25951209819E+02  0.00000000000E+00 0.  1.
</event>
<event>
 7    1  0.4237994E-013  0.5930197E+02  0.7816164E-02  0.1266605E+00
        -11   -1    0    0    0    0  0.00000000000E+00  0.00000000000E+00  0.45593999997E+02  0.45594000000E+02  0.51100000000E-03 0.  1.
         11   -1    0    0    0    0 -0.00000000000E+00 -0.00000000000E+00 -0.45593999997E+02  0.45594000000E+02  0.51100000000E-03 0. -1.
    9900012    2    1    2    0    0 -0.15736655295E+02  0.18704812091E+02  0.20474541241E+02  0.59301966156E+02  0.50000040357E+02 0.  0.
         12    1    1    2    0    0  0.15736655295E+02 -0.18704812091E+02 -0.20474541241E+02  0.31886033844E+02  0.00000000000E+00 0. -1.
         11    1    3    3    0    0 -0.30427484786E+02  0.18688578580E+02  0.13533097133E+02  0.38186902441E+02  0.51100000000E-03 0. -1.
        -11    1    3    3    0    0  0.31113159157E+01  0.60861832971E+01  0.18176611937E+01  0.70728923595E+01  0.51100000000E-03 0.  1.
         12    1    3    3    0    0  0.11579513575E+02 -0.60699497860E+01  0.51237829141E+01  0.14042171356E+02  0.00000000000E+00 0. -1.
</event>
<event>
 7    1  0.4237994E-013  0.5930193E+02  0.7816164E-02  0.1266605E+00
        -11   -1    0    0    0    0  0.00000000000E+00  0.00000000000E+00  0.45593999997E+02  0.45594000000E+02  0.51100000000E-03 0.  1.
         11   -1    0    0    0    0 -0.00000000000E+00 -0.00000000000E+00 -0.45593999997E+02  0.45594000000E+02  0.51100000000E-03 0. -1.
    9900012    2    1    2    0    0  0.25054007557E+02  0.17962682000E+02  0.81461771126E+01  0.59301930301E+02  0.49999974966E+02 0.  0.
         12    1    1    2    0    0 -0.25054007557E+02 -0.17962682000E+02 -0.81461771126E+01  0.31886069699E+02  0.00000000000E+00 0. -1.
         11    1    3    3    0    0  0.11274412618E+02  0.97463946460E+01 -0.19723252049E+02  0.24720664638E+02  0.51100000000E-03 0. -1.
        -11    1    3    3    0    0 -0.12148910949E+01 -0.73916487237E+00  0.80067350181E+01  0.81320434697E+01  0.51100000000E-03 0.  1.
         12    1    3    3    0    0  0.14994486034E+02  0.89554522266E+01  0.19862694144E+02  0.26449222194E+02  0.00000000000E+00 0. -1.
</event>
<event>
 7    1  0.4237994E-013  0.5930193E+02  0.7816164E-02  0.1266605E+00
        -11   -1    0    0    0    0  0.00000000000E+00  0.00000000000E+00  0.45593999997E+02  0.45594000000E+02  0.51100000000E-03 0.  1.
         11   -1    0    0    0    0 -0.00000000000E+00 -0.00000000000E+00 -0.45593999997E+02  0.45594000000E+02  0.51100000000E-03 0. -1.
    9900012    2    1    2    0    0  0.22369469414E+02  0.18379807839E+02  0.13360790996E+02  0.59301933543E+02  0.49999980878E+02 0.  0.
         12    1    1    2    0    0 -0.22369469414E+02 -0.18379807839E+02 -0.13360790996E+02  0.31886066457E+02  0.00000000000E+00 0. -1.
         11    1    3    3    0    0  0.30330235486E+02 -0.31586668607E+01  0.83528785935E+01  0.31617573310E+02  0.51100000000E-03 0. -1.
        -11    1    3    3    0    0  0.11109324467E+01  0.14293109670E+02  0.69183870882E+01  0.15918267339E+02  0.51100000000E-03 0.  1.
         12    1    3    3    0    0 -0.90716985185E+01  0.72453650306E+01 -0.19104746858E+01  0.11766092893E+02  0.00000000000E+00 0. -1.
</event>
<event>
 7    1  0.4237994E-013  0.5930195E+02  0.7816164E-02  0.1266605E+00
        -11   -1    0    0    0    0  0.00000000000E+00  0.00000000000E+00  0.45593999997E+02  0.45594000000E+02  0.51100000000E-03 0.  1.
         11   -1    0    0    0    0 -0.00000000000E+00 -0.00000000000E+00 -0.45593999997E+02  0.45594000000E+02  0.51100000000E-03 0. -1.
    9900012    2    1    2    0    0 -0.17120793919E+02  0.19277293806E+02  0.18761254444E+02  0.59301948046E+02  0.50000007328E+02 0.  0.
         12    1    1    2    0    0  0.17120793919E+02 -0.19277293806E+02 -0.18761254444E+02  0.31886051954E+02  0.00000000000E+00 0. -1.
         11    1    3    3    0    0  0.97893330100E+01  0.15439679149E+02 -0.39184493529E+01  0.18696763854E+02  0.51100000000E-03 0. -1.
        -11    1    3    3    0    0 -0.28945786827E+02  0.71256811724E+01  0.20269446228E+02  0.36048361376E+02  0.51100000000E-03 0.  1.
        -12    1    3    3    0    0  0.20356598980E+01 -0.32880665157E+01  0.24102575696E+01  0.45568228168E+01  0.00000000000E+00 0.  1.
</event>
<event>
 7    1  0.4237994E-013  0.5930221E+02  0.7816164E-02  0.1266604E+00
        -11   -1    0    0    0    0  0.00000000000E+00  0.00000000000E+00  0.45593999997E+02  0.45594000000E+02  0.51100000000E-03 0.  1.
         11   -1    0    0    0    0 -0.00000000000E+00 -0.00000000000E+00 -0.45593999997E+02  0.45594000000E+02  0.51100000000E-03 0. -1.
    9900012    2    1    2    0    0  0.24885895434E+02 -0.64306663646E+01  0.18869081554E+02  0.59302211627E+02  0.50000488035E+02 0.  0.
         12    1    1    2    0    0 -0.24885895434E+02  0.64306663646E+01 -0.18869081554E+02  0.31885788373E+02  0.00000000000E+00 0. -1.
         11    1    3    3    0    0  0.67281446961E+01  0.71175256763E+01  0.26960362546E+02  0.28684285797E+02  0.51100000000E-03 0. -1.
        -11    1    3    3    0    0  0.19759856414E+02 -0.44270000326E+01 -0.50414889043E+01  0.20867842855E+02  0.51100000000E-03 0.  1.
         12    1    3    3    0    0 -0.16021056765E+01 -0.91211920083E+01 -0.30497920872E+01  0.97500829754E+01  0.00000000000E+00 0. -1.
</event>
<event>
 7    1  0.4237994E-013  0.5930201E+02  0.7816164E-02  0.1266605E+00
        -11   -1    0    0    0    0  0.00000000000E+00  0.00000000000E+00  0.45593999997E+02  0.45594000000E+02  0.51100000000E-03 0. -1.
         11   -1    0    0    0    0 -0.00000000000E+00 -0.00000000000E+00 -0.45593999997E+02  0.45594000000E+02  0.51100000000E-03 0.  1.
    9900012    2    1    2    0    0  0.27956624599E+02 -0.89716716196E+01 -0.12435950867E+02  0.59302005824E+02  0.50000112702E+02 0.  0.
         12    1    1    2    0    0 -0.27956624599E+02  0.89716716196E+01  0.12435950867E+02  0.31885994176E+02  0.00000000000E+00 0. -1.
         11    1    3    3    0    0 -0.97383950013E+01  0.46382422120E+01  0.42058256375E+01  0.11577503944E+02  0.51100000000E-03 0. -1.
        -11    1    3    3    0    0  0.24514365709E+02 -0.14408826751E+02 -0.19151392362E+02  0.34283293951E+02  0.51100000000E-03 0.  1.
         12    1    3    3    0    0  0.13180653891E+02  0.79891291890E+00  0.25096158575E+01  0.13441207929E+02  0.00000000000E+00 0. -1.
</event>
<event>
 7    1  0.4237994E-013  0.5930194E+02  0.7816164E-02  0.1266605E+00
        -11   -1    0    0    0    0  0.00000000000E+00  0.00000000000E+00  0.45593999997E+02  0.45594000000E+02  0.51100000000E-03 0. -1.
         11   -1    0    0    0    0 -0.00000000000E+00 -0.00000000000E+00 -0.45593999997E+02  0.45594000000E+02  0.51100000000E-03 0.  1.
    9900012    2    1    2    0    0 -0.80033311750E+01  0.23268864824E+02 -0.20278736572E+02  0.59301944473E+02  0.50000000813E+02 0.  0.
         12    1    1    2    0    0  0.80033311750E+01 -0.23268864824E+02  0.20278736572E+02  0.31886055527E+02  0.00000000000E+00 0. -1.
         11    1    3    3    0    0 -0.40054522465E+01  0.18770214095E+02 -0.33050223410E+02  0.38218867757E+02  0.51100000000E-03 0. -1.
        -11    1    3    3    0    0 -0.18249951228E+01 -0.56870200278E+01  0.25627679782E+01  0.64992756493E+01  0.51100000000E-03 0.  1.
         12    1    3    3    0    0 -0.21728838057E+01  0.10185670757E+02  0.10208718861E+02  0.14583801067E+02  0.00000000000E+00 0. -1.
</event>
<event>
 7    1  0.4237994E-013  0.5930199E+02  0.7816164E-02  0.1266605E+00
        -11   -1    0    0    0    0  0.00000000000E+00  0.00000000000E+00  0.45593999997E+02  0.45594000000E+02  0.51100000000E-03 0. -1.
         11   -1    0    0    0    0 -0.00000000000E+00 -0.00000000000E+00 -0.45593999997E+02  0.45594000000E+02  0.51100000000E-03 0.  1.
    9900012    2    1    2    0    0 -0.12678545905E+01  0.31744401728E+02  0.27209270048E+01  0.59301985195E+02  0.50000075080E+02 0.  0.
         12    1    1    2    0    0  0.12678545905E+01 -0.31744401728E+02 -0.27209270048E+01  0.31886014805E+02  0.00000000000E+00 0. -1.
         11    1    3    3    0    0  0.17553491529E+02  0.35077092718E+01  0.24265651887E+01  0.18064254982E+02  0.51100000000E-03 0. -1.
        -11    1    3    3    0    0 -0.18451812691E+01  0.10440081650E+02 -0.10001290564E+02  0.14574834887E+02  0.51100000000E-03 0.  1.
         12    1    3    3    0    0 -0.16976164850E+02  0.17796610807E+02  0.10295652381E+02  0.26662895326E+02  0.00000000000E+00 0. -1.
</event>
<event>
 7    1  0.4237994E-013  0.5930193E+02  0.7816164E-02  0.1266605E+00
        -11   -1    0    0    0    0  0.00000000000E+00  0.00000000000E+00  0.45593999997E+02  0.45594000000E+02  0.51100000000E-03 0.  1.
         11   -1    0    0    0    0 -0.00000000000E+00 -0.00000000000E+00 -0.45593999997E+02  0.45594000000E+02  0.51100000000E-03 0. -1.
    9900012    2    1    2    0    0 -0.30022729843E+02 -0.10319728768E+02 -0.29766048710E+01  0.59301932735E+02  0.49999979404E+02 0.  0.
         12    1    1    2    0    0  0.30022729843E+02  0.10319728768E+02  0.29766048710E+01  0.31886067265E+02  0.00000000000E+00 0. -1.
         11    1    3    3    0    0  0.68797422456E+01  0.10586062782E+02 -0.11977823841E+01  0.12681887142E+02  0.51100000000E-03 0. -1.
        -11    1    3    3    0    0 -0.42462926255E+01 -0.92134152121E+01  0.49485088970E+01  0.11287416068E+02  0.51100000000E-03 0.  1.
         12    1    3    3    0    0 -0.32656179463E+02 -0.11692376337E+02 -0.67273313838E+01  0.35332629524E+02  0.00000000000E+00 0. -1.
</event>
<event>
 7    1  0.4237994E-013  0.5930196E+02  0.7816164E-02  0.1266605E+00
        -11   -1    0    0    0    0  0.00000000000E+00  0.00000000000E+00  0.45593999997E+02  0.45594000000E+02  0.51100000000E-03 0. -1.
         11   -1    0    0    0    0 -0.00000000000E+00 -0.00000000000E+00 -0.45593999997E+02  0.45594000000E+02  0.51100000000E-03 0.  1.
    9900012    2    1    2    0    0 -0.25627486681E+02  0.59971187417E+01 -0.17999618401E+02  0.59301956512E+02  0.50000022768E+02 0.  0.
         12    1    1    2    0    0  0.25627486681E+02 -0.59971187417E+01  0.17999618401E+02  0.31886043488E+02  0.00000000000E+00 0. -1.
         11    1    3    3    0    0 -0.66009505145E+01 -0.68819892947E+01 -0.10594551857E+02  0.14254082000E+02  0.51100000000E-03 0. -1.
        -11    1    3    3    0    0 -0.12394150620E+01  0.16771873431E+02  0.10242377854E+02  0.19691068850E+02  0.51100000000E-03 0.  1.
        -12    1    3    3    0    0 -0.17787121104E+02 -0.38927653943E+01 -0.17647444398E+02  0.25356805662E+02  0.00000000000E+00 0.  1.
</event>
<event>
 7    1  0.4237994E-013  0.5930196E+02  0.7816164E-02  0.1266605E+00
        -11   -1    0    0    0    0  0.00000000000E+00  0.00000000000E+00  0.45593999997E+02  0.45594000000E+02  0.51100000000E-03 0.  1.
         11   -1    0    0    0    0 -0.00000000000E+00 -0.00000000000E+00 -0.45593999997E+02  0.45594000000E+02  0.51100000000E-03 0. -1.
    9900012    2    1    2    0    0  0.19737549977E+01 -0.25318927997E+02  0.19281488212E+02  0.59301958989E+02  0.50000027285E+02 0.  0.
         12    1    1    2    0    0 -0.19737549977E+01  0.25318927997E+02 -0.19281488212E+02  0.31886041011E+02  0.00000000000E+00 0. -1.
         11    1    3    3    0    0  0.39627460872E+01  0.12560736462E+02  0.67437276978E+01  0.14797071350E+02  0.51100000000E-03 0. -1.
        -11    1    3    3    0    0 -0.58203396881E+01 -0.10115931720E+02  0.11610887649E+02  0.16462719730E+02  0.51100000000E-03 0.  1.
         12    1    3    3    0    0  0.38313485985E+01 -0.27763732739E+02  0.92687286515E+00  0.28042167909E+02  0.00000000000E+00 0. -1.
</event>
<event>
 7    1  0.4237994E-013  0.5930194E+02  0.7816164E-02  0.1266605E+00
        -11   -1    0    0    0    0  0.00000000000E+00  0.00000000000E+00  0.45593999997E+02  0.45594000000E+02  0.51100000000E-03 0.  1.
         11   -1    0    0    0    0 -0.00000000000E+00 -0.00000000000E+00 -0.45593999997E+02  0.45594000000E+02  0.51100000000E-03 0. -1.
    9900012    2    1    2    0    0  0.38429847533E+00 -0.10296225700E+02  0.30175498916E+02  0.59301942172E+02  0.49999996615E+02 0.  0.
         12    1    1    2    0    0 -0.38429847533E+00  0.10296225700E+02 -0.30175498916E+02  0.31886057828E+02  0.00000000000E+00 0. -1.
         11    1    3    3    0    0  0.26377301585E+01  0.33957787616E-01 -0.12672214387E+02  0.12943870798E+02  0.51100000000E-03 0. -1.
        -11    1    3    3    0    0 -0.75489445937E+01 -0.19982817804E+01  0.17993039225E+02  0.19614513896E+02  0.51100000000E-03 0.  1.
         12    1    3    3    0    0  0.52955129105E+01 -0.83319017070E+01  0.24854674078E+02  0.26743557478E+02  0.00000000000E+00 0. -1.
</event>
<event>
 7    1  0.4237994E-013  0.5930191E+02  0.7816164E-02  0.1266605E+00
        -11   -1    0    0    0    0  0.00000000000E+00  0.00000000000E+00  0.45593999997E+02  0.45594000000E+02  0.51100000000E-03 0.  1.
         11   -1    0    0    0    0 -0.00000000000E+00 -0.00000000000E+00 -0.45593999997E+02  0.45594000000E+02  0.51100000000E-03 0. -1.
    9900012    2    1    2    0    0 -0.27764733940E+02  0.35428397561E+01  0.15273842268E+02  0.59301914917E+02  0.49999946909E+02 0.  0.
         12    1    1    2    0    0  0.27764733940E+02 -0.35428397561E+01 -0.15273842268E+02  0.31886085083E+02  0.00000000000E+00 0. -1.
         11    1    3    3    0    0  0.35634594215E+01  0.10265243660E+02 -0.12754922818E+00  0.10866910302E+02  0.51100000000E-03 0. -1.
        -11    1    3    3    0    0 -0.86376741274E+01 -0.63162249872E+01  0.22284074791E+02  0.24720115331E+02  0.51100000000E-03 0.  1.
        -12    1    3    3    0    0 -0.22690519234E+02 -0.40617891687E+00 -0.68826832946E+01  0.23714889284E+02  0.00000000000E+00 0.  1.
</event>
<event>
 7    1  0.4237994E-013  0.5930194E+02  0.7816164E-02  0.1266605E+00
        -11   -1    0    0    0    0  0.00000000000E+00  0.00000000000E+00  0.45593999997E+02  0.45594000000E+02  0.51100000000E-03 0.  1.
         11   -1    0    0    0    0 -0.00000000000E+00 -0.00000000000E+00 -0.45593999997E+02  0.45594000000E+02  0.51100000000E-03 0. -1.
    9900012    2    1    2    0    0 -0.53609479824E+01 -0.28933315169E+02  0.12281862058E+02  0.59301943085E+02  0.49999998281E+02 0.  0.
         12    1    1    2    0    0  0.53609479824E+01  0.28933315169E+02 -0.12281862058E+02  0.31886056915E+02  0.00000000000E+00 0. -1.
         11    1    3    3    0    0  0.34237408968E+01 -0.12211588398E+02  0.13193905838E+02  0.18300930152E+02  0.51100000000E-03 0. -1.
        -11    1    3    3    0    0  0.11232623602E+01  0.71708898069E+01  0.10471685602E+02  0.12741254984E+02  0.51100000000E-03 0.  1.
         12    1    3    3    0    0 -0.99079512394E+01 -0.23892616578E+02 -0.11383729381E+02  0.28259757949E+02  0.00000000000E+00 0. -1.
</event>
<event>
 7    1  0.4237994E-013  0.5930194E+02  0.7816164E-02  0.1266605E+00
        -11   -1    0    0    0    0  0.00000000000E+00  0.00000000000E+00  0.45593999997E+02  0.45594000000E+02  0.51100000000E-03 0. -1.
         11   -1    0    0    0    0 -0.00000000000E+00 -0.00000000000E+00 -0.45593999997E+02  0.45594000000E+02  0.51100000000E-03 0.  1.
    9900012    2    1    2    0    0  0.36528530892E+01 -0.27475075685E+02 -0.15763803388E+02  0.59301943222E+02  0.49999998531E+02 0.  0.
         12    1    1    2    0    0 -0.36528530892E+01  0.27475075685E+02  0.15763803388E+02  0.31886056778E+02  0.00000000000E+00 0. -1.
         11    1    3    3    0    0 -0.12571207675E+02 -0.27322631140E+02 -0.80503922897E+01  0.31134711354E+02  0.51100000000E-03 0. -1.
        -11    1    3    3    0    0  0.10293209602E+02 -0.81630696710E+01 -0.11544710717E+02  0.17489031310E+02  0.51100000000E-03 0.  1.
         12    1    3    3    0    0  0.59308511620E+01  0.80106251254E+01  0.38312996186E+01  0.10678200559E+02  0.00000000000E+00 0. -1.
</event>
<event>
 7    1  0.4237994E-013  0.5930196E+02  0.7816164E-02  0.1266605E+00
        -11   -1    0    0    0    0  0.00000000000E+00  0.00000000000E+00  0.45593999997E+02  0.45594000000E+02  0.51100000000E-03 0.  1.
         11   -1    0    0    0    0 -0.00000000000E+00 -0.00000000000E+00 -0.45593999997E+02  0.45594000000E+02  0.51100000000E-03 0. -1.
    9900012    2    1    2    0    0 -0.22410981374E+02 -0.22679548518E+02 -0.32476889516E+00  0.59301961017E+02  0.50000030985E+02 0.  0.
         12    1    1    2    0    0  0.22410981374E+02  0.22679548518E+02  0.32476889516E+00  0.31886038983E+02  0.00000000000E+00 0. -1.
         11    1    3    3    0    0 -0.19895198349E+02 -0.28581172794E+01 -0.16778497606E+02  0.26182164423E+02  0.51100000000E-03 0. -1.
        -11    1    3    3    0    0  0.71969905460E+01 -0.24957922114E+01  0.92698395136E+01  0.11998148880E+02  0.51100000000E-03 0.  1.
         12    1    3    3    0    0 -0.97127735712E+01 -0.17325639028E+02  0.71838891968E+01  0.21121647714E+02  0.00000000000E+00 0. -1.
</event>
<event>
 7    1  0.4237994E-013  0.5930193E+02  0.7816164E-02  0.1266605E+00
        -11   -1    0    0    0    0  0.00000000000E+00  0.00000000000E+00  0.45593999997E+02  0.45594000000E+02  0.51100000000E-03 0. -1.
         11   -1    0    0    0    0 -0.00000000000E+00 -0.00000000000E+00 -0.45593999997E+02  0.45594000000E+02  0.51100000000E-03 0.  1.
    9900012    2    1    2    0    0 -0.23179420746E+02  0.21403915519E+02 -0.46160689760E+01  0.59301933475E+02  0.49999980754E+02 0.  0.
         12    1    1    2    0    0  0.23179420746E+02 -0.21403915519E+02  0.46160689760E+01  0.31886066525E+02  0.00000000000E+00 0. -1.
         11    1    3    3    0    0 -0.18120654445E+02 -0.86024421229E+01  0.10321020218E+02  0.22558448231E+02  0.51100000000E-03 0. -1.
        -11    1    3    3    0    0 -0.83406667483E+01  0.89242504040E+01 -0.48428034594E+01  0.13140080391E+02  0.51100000000E-03 0.  1.
         12    1    3    3    0    0  0.32819004478E+01  0.21082107238E+02 -0.10094285734E+02  0.23603404853E+02  0.00000000000E+00 0. -1.
</event>
<event>
 7    1  0.4237994E-013  0.5930195E+02  0.7816164E-02  0.1266605E+00
        -11   -1    0    0    0    0  0.00000000000E+00  0.00000000000E+00  0.45593999997E+02  0.45594000000E+02  0.51100000000E-03 0.  1.
         11   -1    0    0    0    0 -0.00000000000E+00 -0.00000000000E+00 -0.45593999997E+02  0.45594000000E+02  0.51100000000E-03 0. -1.
    9900012    2    1    2    0    0  0.21330320952E+02  0.19380468818E+02 -0.13643136923E+02  0.59301947428E+02  0.50000006202E+02 0.  0.
         12    1    1    2    0    0 -0.21330320952E+02 -0.19380468818E+02  0.13643136923E+02  0.31886052572E+02  0.00000000000E+00 0. -1.
         11    1    3    3    0    0  0.46949388604E+01 -0.23155242584E+01 -0.21541816144E+02  0.22168760600E+02  0.51100000000E-03 0. -1.
        -11    1    3    3    0    0  0.44454254827E+01  0.19587109786E+02 -0.34095398948E+01  0.20372570777E+02  0.51100000000E-03 0.  1.
         12    1    3    3    0    0  0.12189956609E+02  0.21088832900E+01  0.11308219116E+02  0.16760616051E+02  0.00000000000E+00 0. -1.
</event>
<event>
 7    1  0.4237994E-013  0.5930191E+02  0.7816164E-02  0.1266605E+00
        -11   -1    0    0    0    0  0.00000000000E+00  0.00000000000E+00  0.45593999997E+02  0.45594000000E+02  0.51100000000E-03 0.  1.
         11   -1    0    0    0    0 -0.00000000000E+00 -0.00000000000E+00 -0.45593999997E+02  0.45594000000E+02  0.51100000000E-03 0. -1.
    9900012    2    1    2    0    0 -0.12133399964E+02 -0.52752066012E+01  0.29011639376E+02  0.59301914968E+02  0.49999947003E+02 0.  0.
         12    1    1    2    0    0  0.12133399964E+02  0.52752066012E+01 -0.29011639376E+02  0.31886085032E+02  0.00000000000E+00 0. -1.
         11    1    3    3    0    0 -0.10550467364E+02  0.51091721961E+01 -0.42420538345E+01  0.12466395755E+02  0.51100000000E-03 0. -1.
        -11    1    3    3    0    0 -0.12103248698E+02 -0.13532920501E+02  0.30531403906E+02  0.35521756588E+02  0.51100000000E-03 0.  1.
         12    1    3    3    0    0  0.10520316099E+02  0.31485417038E+01  0.27222893042E+01  0.11313762625E+02  0.00000000000E+00 0. -1.
</event>
<event>
 7    1  0.4237994E-013  0.5930195E+02  0.7816164E-02  0.1266605E+00
        -11   -1    0    0    0    0  0.00000000000E+00  0.00000000000E+00  0.45593999997E+02  0.45594000000E+02  0.51100000000E-03 0.  1.
         11   -1    0    0    0    0 -0.00000000000E+00 -0.00000000000E+00 -0.45593999997E+02  0.45594000000E+02  0.51100000000E-03 0. -1.
    9900012    2    1    2    0    0  0.32294622207E+01 -0.69309784110E+01  0.30955649101E+02  0.59301951338E+02  0.50000013333E+02 0.  0.
         12    1    1    2    0    0 -0.32294622207E+01  0.69309784110E+01 -0.30955649101E+02  0.31886048662E+02  0.00000000000E+00 0. -1.
         11    1    3    3    0    0  0.12052552658E+00  0.32892867184E+01 -0.10410842116E+01  0.34522152475E+01  0.51100000000E-03 0. -1.
        -11    1    3    3    0    0  0.87107462535E+00  0.67478825622E+01  0.37312796660E+02  0.37928056699E+02  0.51100000000E-03 0.  1.
        -12    1    3    3    0    0  0.22378620688E+01 -0.16968147692E+02 -0.53160633474E+01  0.17921679392E+02  0.00000000000E+00 0.  1.
</event>
<event>
 7    1  0.4237994E-013  0.5930194E+02  0.7816164E-02  0.1266605E+00
        -11   -1    0    0    0    0  0.00000000000E+00  0.00000000000E+00  0.45593999997E+02  0.45594000000E+02  0.51100000000E-03 0. -1.
         11   -1    0    0    0    0 -0.00000000000E+00 -0.00000000000E+00 -0.45593999997E+02  0.45594000000E+02  0.51100000000E-03 0.  1.
    9900012    2    1    2    0    0 -0.10387979017E+02 -0.17336019858E+02 -0.24663190353E+02  0.59301942687E+02  0.49999997556E+02 0.  0.
         12    1    1    2    0    0  0.10387979017E+02  0.17336019858E+02  0.24663190353E+02  0.31886057313E+02  0.00000000000E+00 0. -1.
         11    1    3    3    0    0  0.85409127454E+01 -0.18277494989E+02  0.71753435815E+01  0.21412603050E+02  0.51100000000E-03 0. -1.
        -11    1    3    3    0    0 -0.12630504445E+02  0.34779190075E+00 -0.13501329494E+02  0.18491525089E+02  0.51100000000E-03 0.  1.
         12    1    3    3    0    0 -0.62983873177E+01  0.59368323096E+00 -0.18337204440E+02  0.19397814549E+02  0.00000000000E+00 0. -1.
</event>
<event>
 7    1  0.4237994E-013  0.5930194E+02  0.7816164E-02  0.1266605E+00
        -11   -1    0    0    0    0  0.00000000000E+00  0.00000000000E+00  0.45593999997E+02  0.45594000000E+02  0.51100000000E-03 0.  1.
         11   -1    0    0    0    0 -0.00000000000E+00 -0.00000000000E+00 -0.45593999997E+02  0.45594000000E+02  0.51100000000E-03 0. -1.
    9900012    2    1    2    0    0 -0.26241211656E+02  0.69387946822E+01  0.16732388878E+02  0.59301938807E+02  0.49999990479E+02 0.  0.
         12    1    1    2    0    0  0.26241211656E+02 -0.69387946822E+01 -0.16732388878E+02  0.31886061193E+02  0.00000000000E+00 0. -1.
         11    1    3    3    0    0 -0.16179656732E+02 -0.15104517697E+02 -0.65425343770E+01  0.23080998747E+02  0.51100000000E-03 0. -1.
        -11    1    3    3    0    0 -0.59630286824E+00  0.15943566618E+02  0.17065009976E+02  0.23361666451E+02  0.51100000000E-03 0.  1.
         12    1    3    3    0    0 -0.94652520556E+01  0.60997457609E+01  0.62099132792E+01  0.12859273609E+02  0.00000000000E+00 0. -1.
</event>
<event>
 7    1  0.4237994E-013  0.5930196E+02  0.7816164E-02  0.1266605E+00
        -11   -1    0    0    0    0  0.00000000000E+00  0.00000000000E+00  0.45593999997E+02  0.45594000000E+02  0.51100000000E-03 0. -1.
         11   -1    0    0    0    0 -0.00000000000E+00 -0.00000000000E+00 -0.45593999997E+02  0.45594000000E+02  0.51100000000E-03 0.  1.
    9900012    2    1    2    0    0  0.23676484585E+02 -0.35086454056E+01 -0.21067339487E+02  0.59301963747E+02  0.50000035963E+02 0.  0.
         12    1    1    2    0    0 -0.23676484585E+02  0.35086454056E+01  0.21067339487E+02  0.31886036253E+02  0.00000000000E+00 0. -1.
         11    1    3    3    0    0  0.12227213900E+02 -0.24597944111E+02 -0.69487181570E+01  0.28334577790E+02  0.51100000000E-03 0.  1.
        -11    1    3    3    0    0  0.12590046602E+02  0.20547728493E+02 -0.15836008332E+02  0.28835699745E+02  0.51100000000E-03 0. -1.
         12    1    3    3    0    0 -0.11407759172E+01  0.54157021257E+00  0.17173870020E+01  0.21316862112E+01  0.00000000000E+00 0. -1.
</event>
<event>
 7    1  0.4237994E-013  0.5930191E+02  0.7816164E-02  0.1266605E+00
        -11   -1    0    0    0    0  0.00000000000E+00  0.00000000000E+00  0.45593999997E+02  0.45594000000E+02  0.51100000000E-03 0.  1.
         11   -1    0    0    0    0 -0.00000000000E+00 -0.00000000000E+00 -0.45593999997E+02  0.45594000000E+02  0.51100000000E-03 0. -1.
    9900012    2    1    2    0    0  0.29900371394E+02 -0.80543156085E+01 -0.76038429303E+01  0.59301911549E+02  0.49999940766E+02 0.  0.
         12    1    1    2    0    0 -0.29900371394E+02  0.80543156085E+01  0.76038429303E+01  0.31886088451E+02  0.00000000000E+00 0. -1.
         11    1    3    3    0    0  0.14516375389E+02  0.12478099597E+02 -0.20777565548E+02  0.28251289428E+02  0.51100000000E-03 0. -1.
        -11    1    3    3    0    0 -0.49121150326E-01 -0.52936235802E+01  0.64484614566E+01  0.83431120641E+01  0.51100000000E-03 0.  1.
         12    1    3    3    0    0  0.15433117155E+02 -0.15238791625E+02  0.67252611607E+01  0.22707510057E+02  0.00000000000E+00 0. -1.
</event>
<event>
 7    1  0.4237994E-013  0.5930194E+02  0.7816164E-02  0.1266605E+00
        -11   -1    0    0    0    0  0.00000000000E+00  0.00000000000E+00  0.45593999997E+02  0.45594000000E+02  0.51100000000E-03 0. -1.
         11   -1    0    0    0    0 -0.00000000000E+00 -0.00000000000E+00 -0.45593999997E+02  0.45594000000E+02  0.51100000000E-03 0.  1.
    9900012    2    1    2    0    0  0.16518934775E+02  0.15899004244E+02 -0.22160040368E+02  0.59301938293E+02  0.49999989542E+02 0.  0.
         12    1    1    2    0    0 -0.16518934775E+02 -0.15899004244E+02  0.22160040368E+02  0.31886061707E+02  0.00000000000E+00 0. -1.
         11    1    3    3    0    0  0.14841855863E+02  0.96276782762E+01 -0.13781148374E+02  0.22425274251E+02  0.51100000000E-03 0. -1.
        -11    1    3    3    0    0 -0.14265285122E+02  0.10600459459E+02 -0.98007662045E+01  0.20295889210E+02  0.51100000000E-03 0.  1.
        -12    1    3    3    0    0  0.15942364034E+02 -0.43291334914E+01  0.14218742105E+01  0.16580774833E+02  0.00000000000E+00 0.  1.
</event>
<event>
 7    1  0.4237994E-013  0.5930194E+02  0.7816164E-02  0.1266605E+00
        -11   -1    0    0    0    0  0.00000000000E+00  0.00000000000E+00  0.45593999997E+02  0.45594000000E+02  0.51100000000E-03 0. -1.
         11   -1    0    0    0    0 -0.00000000000E+00 -0.00000000000E+00 -0.45593999997E+02  0.45594000000E+02  0.51100000000E-03 0.  1.
    9900012    2    1    2    0    0 -0.33150268326E+01  0.30089804783E+02 -0.10016723635E+02  0.59301944942E+02  0.50000001668E+02 0.  0.
         12    1    1    2    0    0  0.33150268326E+01 -0.30089804783E+02  0.10016723635E+02  0.31886055058E+02  0.00000000000E+00 0. -1.
         11    1    3    3    0    0 -0.10617802958E+02 -0.29210453854E+01 -0.98940086372E+01  0.14804109327E+02  0.51100000000E-03 0. -1.
        -11    1    3    3    0    0  0.10776660163E+02  0.33349041453E+02  0.77432822552E+01  0.35892246940E+02  0.51100000000E-03 0.  1.
        -12    1    3    3    0    0 -0.34738840376E+01 -0.33819128445E+00 -0.78659972529E+01  0.86055886745E+01  0.00000000000E+00 0.  1.
</event>
<event>
 7    1  0.4237994E-013  0.5930187E+02  0.7816164E-02  0.1266605E+00
        -11   -1    0    0    0    0  0.00000000000E+00  0.00000000000E+00  0.45593999997E+02  0.45594000000E+02  0.51100000000E-03 0.  1.
         11   -1    0    0    0    0 -0.00000000000E+00 -0.00000000000E+00 -0.45593999997E+02  0.45594000000E+02  0.51100000000E-03 0. -1.
    9900012    2    1    2    0    0 -0.53402967452E+01 -0.17443698971E+02  0.26151934539E+02  0.59301873186E+02  0.49999870801E+02 0.  0.
         12    1    1    2    0    0  0.53402967452E+01  0.17443698971E+02 -0.26151934539E+02  0.31886126814E+02  0.00000000000E+00 0. -1.
         11    1    3    3    0    0  0.11813423181E+02 -0.48114342192E+01  0.40247003426E+01  0.13375540348E+02  0.51100000000E-03 0. -1.
        -11    1    3    3    0    0 -0.23255109548E+02 -0.94886867157E+01  0.27475133782E+02  0.37225237035E+02  0.51100000000E-03 0.  1.
        -12    1    3    3    0    0  0.61013896218E+01 -0.31435780360E+01 -0.53478995859E+01  0.87010958026E+01  0.00000000000E+00 0.  1.
</event>
<event>
 7    1  0.4237994E-013  0.5930198E+02  0.7816164E-02  0.1266605E+00
        -11   -1    0    0    0    0  0.00000000000E+00  0.00000000000E+00  0.45593999997E+02  0.45594000000E+02  0.51100000000E-03 0.  1.
         11   -1    0    0    0    0 -0.00000000000E+00 -0.00000000000E+00 -0.45593999997E+02  0.45594000000E+02  0.51100000000E-03 0. -1.
    9900012    2    1    2    0    0 -0.15035312891E+02 -0.26091448101E+02  0.10483043650E+02  0.59301976386E+02  0.50000059014E+02 0.  0.
         12    1    1    2    0    0  0.15035312891E+02  0.26091448101E+02 -0.10483043650E+02  0.31886023614E+02  0.00000000000E+00 0. -1.
         11    1    3    3    0    0  0.61635517192E+01 -0.23605151749E+02 -0.46385102976E+01  0.24833613046E+02  0.51100000000E-03 0. -1.
        -11    1    3    3    0    0 -0.11693413565E+02 -0.63298488176E+01  0.19266241904E+02  0.23409207253E+02  0.51100000000E-03 0.  1.
         12    1    3    3    0    0 -0.95054510450E+01  0.38435524654E+01 -0.41446879556E+01  0.11059156088E+02  0.00000000000E+00 0. -1.
</event>
<event>
 7    1  0.4237994E-013  0.5930194E+02  0.7816164E-02  0.1266605E+00
        -11   -1    0    0    0    0  0.00000000000E+00  0.00000000000E+00  0.45593999997E+02  0.45594000000E+02  0.51100000000E-03 0. -1.
         11   -1    0    0    0    0 -0.00000000000E+00 -0.00000000000E+00 -0.45593999997E+02  0.45594000000E+02  0.51100000000E-03 0.  1.
    9900012    2    1    2    0    0 -0.29007029255E+02  0.88178469377E+01  0.98771700624E+01  0.59301942557E+02  0.49999997318E+02 0.  0.
         12    1    1    2    0    0  0.29007029255E+02 -0.88178469377E+01 -0.98771700624E+01  0.31886057443E+02  0.00000000000E+00 0. -1.
         11    1    3    3    0    0 -0.25973411655E+02 -0.97873585592E+01 -0.78257673892E+01  0.28838396905E+02  0.51100000000E-03 0. -1.
        -11    1    3    3    0    0 -0.14396717831E+01  0.56371449760E+01 -0.25576173300E+01  0.63554279944E+01  0.51100000000E-03 0.  1.
         12    1    3    3    0    0 -0.15939458170E+01  0.12968060521E+02  0.20260554782E+02  0.24108117658E+02  0.00000000000E+00 0. -1.
</event>
<event>
 7    1  0.4237994E-013  0.5930192E+02  0.7816164E-02  0.1266605E+00
        -11   -1    0    0    0    0  0.00000000000E+00  0.00000000000E+00  0.45593999997E+02  0.45594000000E+02  0.51100000000E-03 0. -1.
         11   -1    0    0    0    0 -0.00000000000E+00 -0.00000000000E+00 -0.45593999997E+02  0.45594000000E+02  0.51100000000E-03 0.  1.
    9900012    2    1    2    0    0  0.95119604824E+01 -0.25708099922E+02  0.16289204935E+02  0.59301921670E+02  0.49999959225E+02 0.  0.
         12    1    1    2    0    0 -0.95119604824E+01  0.25708099922E+02 -0.16289204935E+02  0.31886078330E+02  0.00000000000E+00 0. -1.
         11    1    3    3    0    0  0.61709490986E+01 -0.96674845866E+01  0.21107374492E+02  0.24022117501E+02  0.51100000000E-03 0. -1.
        -11    1    3    3    0    0  0.78050582045E+01  0.71394911186E+01  0.18760461888E+01  0.10742942640E+02  0.51100000000E-03 0.  1.
        -12    1    3    3    0    0 -0.44640468206E+01 -0.23180106454E+02 -0.66942157461E+01  0.24536861529E+02  0.00000000000E+00 0.  1.
</event>
<event>
 7    1  0.4237994E-013  0.5930196E+02  0.7816164E-02  0.1266605E+00
        -11   -1    0    0    0    0  0.00000000000E+00  0.00000000000E+00  0.45593999997E+02  0.45594000000E+02  0.51100000000E-03 0.  1.
         11   -1    0    0    0    0 -0.00000000000E+00 -0.00000000000E+00 -0.45593999997E+02  0.45594000000E+02  0.51100000000E-03 0. -1.
    9900012    2    1    2    0    0 -0.18162409492E+02 -0.23843221324E+02  0.10878752923E+02  0.59301959374E+02  0.50000027987E+02 0.  0.
         12    1    1    2    0    0  0.18162409492E+02  0.23843221324E+02 -0.10878752923E+02  0.31886040626E+02  0.00000000000E+00 0. -1.
         11    1    3    3    0    0 -0.22416558352E+02 -0.48615183858E+01  0.33388093478E+01  0.23179389498E+02  0.51100000000E-03 0.  1.
        -11    1    3    3    0    0  0.83196600501E+01 -0.99382005135E+01 -0.97313202636E+01  0.16207503421E+02  0.51100000000E-03 0. -1.
        -12    1    3    3    0    0 -0.40655111902E+01 -0.90435024246E+01  0.17271263839E+02  0.19915066455E+02  0.00000000000E+00 0.  1.
</event>
<event>
 7    1  0.4237994E-013  0.5930194E+02  0.7816164E-02  0.1266605E+00
        -11   -1    0    0    0    0  0.00000000000E+00  0.00000000000E+00  0.45593999997E+02  0.45594000000E+02  0.51100000000E-03 0.  1.
         11   -1    0    0    0    0 -0.00000000000E+00 -0.00000000000E+00 -0.45593999997E+02  0.45594000000E+02  0.51100000000E-03 0. -1.
    9900012    2    1    2    0    0  0.15712418871E+02 -0.26490836928E+02  0.82508162472E+01  0.59301944793E+02  0.50000001396E+02 0.  0.
         12    1    1    2    0    0 -0.15712418871E+02  0.26490836928E+02 -0.82508162472E+01  0.31886055207E+02  0.00000000000E+00 0. -1.
         11    1    3    3    0    0 -0.58909570821E+01 -0.61168979231E+01 -0.16973504227E+00  0.84940347179E+01  0.51100000000E-03 0. -1.
        -11    1    3    3    0    0  0.16746741343E+02 -0.24764963337E+02  0.21063055091E+02  0.36570603560E+02  0.51100000000E-03 0.  1.
        -12    1    3    3    0    0  0.48566346102E+01  0.43910243323E+01 -0.12642503802E+02  0.14237306515E+02  0.00000000000E+00 0.  1.
</event>
<event>
 7    1  0.4237994E-013  0.5930195E+02  0.7816164E-02  0.1266605E+00
        -11   -1    0    0    0    0  0.00000000000E+00  0.00000000000E+00  0.45593999997E+02  0.45594000000E+02  0.51100000000E-03 0.  1.
         11   -1    0    0    0    0 -0.00000000000E+00 -0.00000000000E+00 -0.45593999997E+02  0.45594000000E+02  0.51100000000E-03 0. -1.
    9900012    2    1    2    0    0  0.70700028163E+00  0.18301186681E+02  0.26101477626E+02  0.59301946346E+02  0.50000004228E+02 0.  0.
         12    1    1    2    0    0 -0.70700028163E+00 -0.18301186681E+02 -0.26101477626E+02  0.31886053654E+02  0.00000000000E+00 0. -1.
         11    1    3    3    0    0 -0.17750952271E+02  0.13110418971E+02  0.56879779495E+01  0.22788867579E+02  0.51100000000E-03 0. -1.
        -11    1    3    3    0    0  0.15749319003E+02 -0.56014902710E+01  0.18984306150E+02  0.25294695542E+02  0.51100000000E-03 0.  1.
         12    1    3    3    0    0  0.27086335497E+01  0.10792257981E+02  0.14291935267E+01  0.11218383225E+02  0.00000000000E+00 0. -1.
</event>
<event>
 7    1  0.4237994E-013  0.5930195E+02  0.7816164E-02  0.1266605E+00
        -11   -1    0    0    0    0  0.00000000000E+00  0.00000000000E+00  0.45593999997E+02  0.45594000000E+02  0.51100000000E-03 0.  1.
         11   -1    0    0    0    0 -0.00000000000E+00 -0.00000000000E+00 -0.45593999997E+02  0.45594000000E+02  0.51100000000E-03 0. -1.
    9900012    2    1    2    0    0  0.67831551733E+01  0.25525345587E+02  0.17865213460E+02  0.59301947981E+02  0.50000007209E+02 0.  0.
         12    1    1    2    0    0 -0.67831551733E+01 -0.25525345587E+02 -0.17865213460E+02  0.31886052019E+02  0.00000000000E+00 0. -1.
         11    1    3    3    0    0  0.16870725075E+02 -0.53883257627E+01 -0.32073429954E+01  0.17998401830E+02  0.51100000000E-03 0. -1.
        -11    1    3    3    0    0  0.23989025108E+01  0.12335250269E+02  0.41216057368E+01  0.13225005353E+02  0.51100000000E-03 0.  1.
         12    1    3    3    0    0 -0.12486472412E+02  0.18578421080E+02  0.16950950718E+02  0.28078540798E+02  0.00000000000E+00 0. -1.
</event>
<event>
 7    1  0.4237994E-013  0.5930194E+02  0.7816164E-02  0.1266605E+00
        -11   -1    0    0    0    0  0.00000000000E+00  0.00000000000E+00  0.45593999997E+02  0.45594000000E+02  0.51100000000E-03 0. -1.
         11   -1    0    0    0    0 -0.00000000000E+00 -0.00000000000E+00 -0.45593999997E+02  0.45594000000E+02  0.51100000000E-03 0.  1.
    9900012    2    1    2    0    0  0.14860847004E+02  0.25420737098E+02 -0.12233637672E+02  0.59301944443E+02  0.50000000758E+02 0.  0.
         12    1    1    2    0    0 -0.14860847004E+02 -0.25420737098E+02  0.12233637672E+02  0.31886055557E+02  0.00000000000E+00 0. -1.
         11    1    3    3    0    0  0.14495221151E+02  0.56159265631E+01  0.14073872927E+02  0.20969596248E+02  0.51100000000E-03 0. -1.
        -11    1    3    3    0    0 -0.26267719058E+01  0.21686980881E+02 -0.15037158192E+02  0.26520580633E+02  0.51100000000E-03 0.  1.
         12    1    3    3    0    0  0.29923977590E+01 -0.18821703454E+01 -0.11270352407E+02  0.11811767562E+02  0.00000000000E+00 0. -1.
</event>
<event>
 7    1  0.4237994E-013  0.5930195E+02  0.7816164E-02  0.1266605E+00
        -11   -1    0    0    0    0  0.00000000000E+00  0.00000000000E+00  0.45593999997E+02  0.45594000000E+02  0.51100000000E-03 0.  1.
         11   -1    0    0    0    0 -0.00000000000E+00 -0.00000000000E+00 -0.45593999997E+02  0.45594000000E+02  0.51100000000E-03 0. -1.
    9900012    2    1    2    0    0  0.26373555680E+01 -0.19712090007E-01  0.31776789840E+02  0.59301946537E+02  0.50000004576E+02 0.  0.
         12    1    1    2    0    0 -0.26373555680E+01  0.19712090007E-01 -0.31776789840E+02  0.31886053463E+02  0.00000000000E+00 0. -1.
         11    1    3    3    0    0 -0.73990732455E+01 -0.17704776822E+01 -0.10686339370E+02  0.13117878087E+02  0.51100000000E-03 0. -1.
        -11    1    3    3    0    0  0.12604931023E+02  0.46347204526E+01  0.25879516097E+02  0.29156719182E+02  0.51100000000E-03 0.  1.
         12    1    3    3    0    0 -0.25685022095E+01 -0.28839548604E+01  0.16583613112E+02  0.17027349268E+02  0.00000000000E+00 0. -1.
</event>
<event>
 7    1  0.4237994E-013  0.5930203E+02  0.7816164E-02  0.1266604E+00
        -11   -1    0    0    0    0  0.00000000000E+00  0.00000000000E+00  0.45593999997E+02  0.45594000000E+02  0.51100000000E-03 0.  1.
         11   -1    0    0    0    0 -0.00000000000E+00 -0.00000000000E+00 -0.45593999997E+02  0.45594000000E+02  0.51100000000E-03 0. -1.
    9900012    2    1    2    0    0  0.29443979294E+02  0.90270334812E+01  0.82631498826E+01  0.59302032928E+02  0.50000162132E+02 0.  0.
         12    1    1    2    0    0 -0.29443979294E+02 -0.90270334812E+01 -0.82631498826E+01  0.31885967072E+02  0.00000000000E+00 0. -1.
         11    1    3    3    0    0  0.18162424753E+01 -0.17412894604E+02  0.87003730554E+01  0.19550041606E+02  0.51100000000E-03 0. -1.
        -11    1    3    3    0    0  0.17052230024E+02  0.88749009487E+01  0.46612931789E+00  0.19229136550E+02  0.51100000000E-03 0.  1.
         12    1    3    3    0    0  0.10575506795E+02  0.17565027137E+02 -0.90335249062E+00  0.20522854772E+02  0.00000000000E+00 0. -1.
</event>
<event>
 7    1  0.4237994E-013  0.5930196E+02  0.7816164E-02  0.1266605E+00
        -11   -1    0    0    0    0  0.00000000000E+00  0.00000000000E+00  0.45593999997E+02  0.45594000000E+02  0.51100000000E-03 0. -1.
         11   -1    0    0    0    0 -0.00000000000E+00 -0.00000000000E+00 -0.45593999997E+02  0.45594000000E+02  0.51100000000E-03 0.  1.
    9900012    2    1    2    0    0  0.25987252384E+02  0.17785394166E+02 -0.50062089626E+01  0.59301958222E+02  0.50000025887E+02 0.  0.
         12    1    1    2    0    0 -0.25987252384E+02 -0.17785394166E+02  0.50062089626E+01  0.31886041778E+02  0.00000000000E+00 0. -1.
         11    1    3    3    0    0  0.13254723942E+02  0.76725543790E+00  0.13663111369E+02  0.19051430399E+02  0.51100000000E-03 0. -1.
        -11    1    3    3    0    0 -0.66531567690E+00  0.85290092997E+01 -0.22381727136E+02  0.23960975657E+02  0.51100000000E-03 0.  1.
        -12    1    3    3    0    0  0.13397844119E+02  0.84891294281E+01  0.37124068044E+01  0.16289552165E+02  0.00000000000E+00 0.  1.
</event>
<event>
 7    1  0.4237994E-013  0.5930191E+02  0.7816164E-02  0.1266605E+00
        -11   -1    0    0    0    0  0.00000000000E+00  0.00000000000E+00  0.45593999997E+02  0.45594000000E+02  0.51100000000E-03 0. -1.
         11   -1    0    0    0    0 -0.00000000000E+00 -0.00000000000E+00 -0.45593999997E+02  0.45594000000E+02  0.51100000000E-03 0.  1.
    9900012    2    1    2    0    0  0.78059421702E+00 -0.84440171064E+01 -0.30737792380E+02  0.59301911613E+02  0.49999940883E+02 0.  0.
         12    1    1    2    0    0 -0.78059421702E+00  0.84440171064E+01  0.30737792380E+02  0.31886088387E+02  0.00000000000E+00 0. -1.
         11    1    3    3    0    0 -0.10203217369E+01  0.72317664185E+01 -0.10500710444E+01  0.73784924909E+01  0.51100000000E-03 0. -1.
        -11    1    3    3    0    0  0.14135850997E+02  0.32478642115E+00 -0.28344630819E+02  0.31675635213E+02  0.51100000000E-03 0.  1.
        -12    1    3    3    0    0 -0.12334935043E+02 -0.16000569946E+02 -0.13430905170E+01  0.20247783909E+02  0.00000000000E+00 0.  1.
</event>
<event>
 7    1  0.4237994E-013  0.5930210E+02  0.7816164E-02  0.1266604E+00
        -11   -1    0    0    0    0  0.00000000000E+00  0.00000000000E+00  0.45593999997E+02  0.45594000000E+02  0.51100000000E-03 0.  1.
         11   -1    0    0    0    0 -0.00000000000E+00 -0.00000000000E+00 -0.45593999997E+02  0.45594000000E+02  0.51100000000E-03 0. -1.
    9900012    2    1    2    0    0 -0.10532352607E+02  0.26521337601E+02  0.14226700789E+02  0.59302096925E+02  0.50000278846E+02 0.  0.
         12    1    1    2    0    0  0.10532352607E+02 -0.26521337601E+02 -0.14226700789E+02  0.31885903075E+02  0.00000000000E+00 0. -1.
         11    1    3    3    0    0 -0.51728027486E+00 -0.73091563841E+01 -0.91146272732E+01  0.11694775608E+02  0.51100000000E-03 0. -1.
        -11    1    3    3    0    0  0.41914260304E+01  0.94827162976E+01  0.14954352593E+02  0.18196775052E+02  0.51100000000E-03 0.  1.
         12    1    3    3    0    0 -0.14206498363E+02  0.24347777688E+02  0.83869754688E+01  0.29410546264E+02  0.00000000000E+00 0. -1.
</event>
<event>
 7    1  0.4237994E-013  0.5930204E+02  0.7816164E-02  0.1266604E+00
        -11   -1    0    0    0    0  0.00000000000E+00  0.00000000000E+00  0.45593999997E+02  0.45594000000E+02  0.51100000000E-03 0.  1.
         11   -1    0    0    0    0 -0.00000000000E+00 -0.00000000000E+00 -0.45593999997E+02  0.45594000000E+02  0.51100000000E-03 0. -1.
    9900012    2    1    2    0    0 -0.90343440759E+00 -0.31346328840E+02  0.57711391472E+01  0.59302038002E+02  0.50000171387E+02 0.  0.
         12    1    1    2    0    0  0.90343440759E+00  0.31346328840E+02 -0.57711391472E+01  0.31885961998E+02  0.00000000000E+00 0. -1.
         11    1    3    3    0    0 -0.12484032646E+02 -0.88412182317E+01 -0.17033286076E+02  0.22894345278E+02  0.51100000000E-03 0. -1.
        -11    1    3    3    0    0 -0.67269765611E+00 -0.12345555406E+02  0.84663613418E+01  0.14984810144E+02  0.51100000000E-03 0.  1.
         12    1    3    3    0    0  0.12253295894E+02 -0.10159555202E+02  0.14338063881E+02  0.21422882580E+02  0.00000000000E+00 0. -1.
</event>
<event>
 7    1  0.4237994E-013  0.5930197E+02  0.7816164E-02  0.1266605E+00
        -11   -1    0    0    0    0  0.00000000000E+00  0.00000000000E+00  0.45593999997E+02  0.45594000000E+02  0.51100000000E-03 0. -1.
         11   -1    0    0    0    0 -0.00000000000E+00 -0.00000000000E+00 -0.45593999997E+02  0.45594000000E+02  0.51100000000E-03 0.  1.
    9900012    2    1    2    0    0  0.26263084122E+01  0.31016750724E+02 -0.69124930227E+01  0.59301970440E+02  0.50000048169E+02 0.  0.
         12    1    1    2    0    0 -0.26263084122E+01 -0.31016750724E+02  0.69124930227E+01  0.31886029560E+02  0.00000000000E+00 0. -1.
         11    1    3    3    0    0 -0.44806348637E+01 -0.46930704341E+01  0.47440452979E+01  0.80378457892E+01  0.51100000000E-03 0. -1.
        -11    1    3    3    0    0  0.20494433431E+02  0.26607133600E+02 -0.60099041735E+01  0.34118621140E+02  0.51100000000E-03 0.  1.
        -12    1    3    3    0    0 -0.13387490155E+02  0.91026875583E+01 -0.56466341471E+01  0.17145503510E+02  0.00000000000E+00 0.  1.
</event>
<event>
 7    1  0.4237994E-013  0.5930196E+02  0.7816164E-02  0.1266605E+00
        -11   -1    0    0    0    0  0.00000000000E+00  0.00000000000E+00  0.45593999997E+02  0.45594000000E+02  0.51100000000E-03 0.  1.
         11   -1    0    0    0    0 -0.00000000000E+00 -0.00000000000E+00 -0.45593999997E+02  0.45594000000E+02  0.51100000000E-03 0. -1.
    9900012    2    1    2    0    0  0.11851617238E+01 -0.30030746333E+02  0.10652205486E+02  0.59301955790E+02  0.50000021452E+02 0.  0.
         12    1    1    2    0    0 -0.11851617238E+01  0.30030746333E+02 -0.10652205486E+02  0.31886044210E+02  0.00000000000E+00 0. -1.
         11    1    3    3    0    0  0.74151588267E+01 -0.83712803694E+01 -0.15724992133E+02  0.19296069374E+02  0.51100000000E-03 0. -1.
        -11    1    3    3    0    0  0.24168410615E+01 -0.21260518710E+02  0.19509128964E+02  0.28956120074E+02  0.51100000000E-03 0.  1.
         12    1    3    3    0    0 -0.86468381644E+01 -0.39894725330E+00  0.68680686559E+01  0.11049766342E+02  0.00000000000E+00 0. -1.
</event>
<event>
 7    1  0.4237994E-013  0.5930194E+02  0.7816164E-02  0.1266605E+00
        -11   -1    0    0    0    0  0.00000000000E+00  0.00000000000E+00  0.45593999997E+02  0.45594000000E+02  0.51100000000E-03 0.  1.
         11   -1    0    0    0    0 -0.00000000000E+00 -0.00000000000E+00 -0.45593999997E+02  0.45594000000E+02  0.51100000000E-03 0. -1.
    9900012    2    1    2    0    0  0.16975882767E+02 -0.76487248176E+01  0.25885082322E+02  0.59301936055E+02  0.49999985461E+02 0.  0.
         12    1    1    2    0    0 -0.16975882767E+02  0.76487248176E+01 -0.25885082322E+02  0.31886063945E+02  0.00000000000E+00 0. -1.
         11    1    3    3    0    0 -0.97326786411E+01  0.13983806718E+02  0.52871404765E+01  0.17838882771E+02  0.51100000000E-03 0. -1.
        -11    1    3    3    0    0  0.17698551995E+02 -0.98648155657E+01  0.72580497242E+01  0.21522839379E+02  0.51100000000E-03 0.  1.
        -12    1    3    3    0    0  0.90100094125E+01 -0.11767715970E+02  0.13339892122E+02  0.19940213905E+02  0.00000000000E+00 0.  1.
</event>
<event>
 7    1  0.4237994E-013  0.5930196E+02  0.7816164E-02  0.1266605E+00
        -11   -1    0    0    0    0  0.00000000000E+00  0.00000000000E+00  0.45593999997E+02  0.45594000000E+02  0.51100000000E-03 0.  1.
         11   -1    0    0    0    0 -0.00000000000E+00 -0.00000000000E+00 -0.45593999997E+02  0.45594000000E+02  0.51100000000E-03 0. -1.
    9900012    2    1    2    0    0  0.59625007307E+01 -0.21488828144E+02  0.22790318254E+02  0.59301956720E+02  0.50000023147E+02 0.  0.
         12    1    1    2    0    0 -0.59625007307E+01  0.21488828144E+02 -0.22790318254E+02  0.31886043280E+02  0.00000000000E+00 0. -1.
         11    1    3    3    0    0  0.24522103691E+02 -0.20960641154E+01  0.21012640256E+01  0.24701059997E+02  0.51100000000E-03 0. -1.
        -11    1    3    3    0    0 -0.88456691687E+01 -0.44560424182E+01  0.69076299882E+01  0.12075492925E+02  0.51100000000E-03 0.  1.
         12    1    3    3    0    0 -0.97139337915E+01 -0.14936721610E+02  0.13781424240E+02  0.22525403798E+02  0.00000000000E+00 0. -1.
</event>
<event>
 7    1  0.4237994E-013  0.5930193E+02  0.7816164E-02  0.1266605E+00
        -11   -1    0    0    0    0  0.00000000000E+00  0.00000000000E+00  0.45593999997E+02  0.45594000000E+02  0.51100000000E-03 0.  1.
         11   -1    0    0    0    0 -0.00000000000E+00 -0.00000000000E+00 -0.45593999997E+02  0.45594000000E+02  0.51100000000E-03 0. -1.
    9900012    2    1    2    0    0  0.27716090979E+02 -0.13193531344E+02  0.86296451240E+01  0.59301925556E+02  0.49999966312E+02 0.  0.
         12    1    1    2    0    0 -0.27716090979E+02  0.13193531344E+02 -0.86296451240E+01  0.31886074444E+02  0.00000000000E+00 0. -1.
         11    1    3    3    0    0 -0.10963614221E+01  0.22009278213E+01 -0.92627837463E+01  0.95835929919E+01  0.51100000000E-03 0. -1.
        -11    1    3    3    0    0  0.28586940088E+02 -0.94281217949E+01  0.25913421718E+02  0.39719114410E+02  0.51100000000E-03 0.  1.
        -12    1    3    3    0    0  0.22551231363E+00 -0.59663373703E+01 -0.80209928476E+01  0.99992181535E+01  0.00000000000E+00 0.  1.
</event>
<event>
 7    1  0.4237994E-013  0.5930200E+02  0.7816164E-02  0.1266605E+00
        -11   -1    0    0    0    0  0.00000000000E+00  0.00000000000E+00  0.45593999997E+02  0.45594000000E+02  0.51100000000E-03 0.  1.
         11   -1    0    0    0    0 -0.00000000000E+00 -0.00000000000E+00 -0.45593999997E+02  0.45594000000E+02  0.51100000000E-03 0. -1.
    9900012    2    1    2    0    0 -0.27095688764E+02 -0.16588156399E+02  0.27155053897E+01  0.59301995988E+02  0.50000094763E+02 0.  0.
         12    1    1    2    0    0  0.27095688764E+02  0.16588156399E+02 -0.27155053897E+01  0.31886004012E+02  0.00000000000E+00 0. -1.
         11    1    3    3    0    0 -0.18481977321E+02 -0.11439141205E+02 -0.46313058649E+01  0.22223555779E+02  0.51100000000E-03 0. -1.
        -11    1    3    3    0    0 -0.94366876703E+01 -0.55802162133E+01  0.20842960712E+02  0.23550348165E+02  0.51100000000E-03 0.  1.
        -12    1    3    3    0    0  0.82297622654E+00  0.43120101851E+00 -0.13496149457E+02  0.13528092045E+02  0.00000000000E+00 0.  1.
</event>
<event>
 7    1  0.4237994E-013  0.5930200E+02  0.7816164E-02  0.1266605E+00
        -11   -1    0    0    0    0  0.00000000000E+00  0.00000000000E+00  0.45593999997E+02  0.45594000000E+02  0.51100000000E-03 0.  1.
         11   -1    0    0    0    0 -0.00000000000E+00 -0.00000000000E+00 -0.45593999997E+02  0.45594000000E+02  0.51100000000E-03 0. -1.
    9900012    2    1    2    0    0 -0.22052684315E+02 -0.31863901430E+01  0.22808836076E+02  0.59302000395E+02  0.50000102801E+02 0.  0.
         12    1    1    2    0    0  0.22052684315E+02  0.31863901430E+01 -0.22808836076E+02  0.31885999605E+02  0.00000000000E+00 0. -1.
         11    1    3    3    0    0  0.63336765463E+00  0.60254344486E+01 -0.40489620596E+00  0.60721459205E+01  0.51100000000E-03 0. -1.
        -11    1    3    3    0    0 -0.19239012228E+02 -0.17895978095E+02 -0.19892244474E+01  0.26350761615E+02  0.51100000000E-03 0.  1.
        -12    1    3    3    0    0 -0.34470397415E+01  0.86841535039E+01  0.25202956730E+02  0.26879092860E+02  0.00000000000E+00 0.  1.
</event>
<event>
 7    1  0.4237994E-013  0.5930195E+02  0.7816164E-02  0.1266605E+00
        -11   -1    0    0    0    0  0.00000000000E+00  0.00000000000E+00  0.45593999997E+02  0.45594000000E+02  0.51100000000E-03 0.  1.
         11   -1    0    0    0    0 -0.00000000000E+00 -0.00000000000E+00 -0.45593999997E+02  0.45594000000E+02  0.51100000000E-03 0. -1.
    9900012    2    1    2    0    0  0.22402897136E+02  0.91158299773E-01  0.22689685223E+02  0.59301954064E+02  0.50000018303E+02 0.  0.
         12    1    1    2    0    0 -0.22402897136E+02 -0.91158299773E-01 -0.22689685223E+02  0.31886045936E+02  0.00000000000E+00 0. -1.
         11    1    3    3    0    0  0.91104800230E+01 -0.15169537477E+02 -0.41069092882E+00  0.17699841265E+02  0.51100000000E-03 0. -1.
        -11    1    3    3    0    0  0.46065467823E+01  0.62729592371E+01  0.27322493418E+02  0.28409310757E+02  0.51100000000E-03 0.  1.
        -12    1    3    3    0    0  0.86858703307E+01  0.89877365391E+01 -0.42221172660E+01  0.13192802042E+02  0.00000000000E+00 0.  1.
</event>
<event>
 7    1  0.4237994E-013  0.5930194E+02  0.7816164E-02  0.1266605E+00
        -11   -1    0    0    0    0  0.00000000000E+00  0.00000000000E+00  0.45593999997E+02  0.45594000000E+02  0.51100000000E-03 0.  1.
         11   -1    0    0    0    0 -0.00000000000E+00 -0.00000000000E+00 -0.45593999997E+02  0.45594000000E+02  0.51100000000E-03 0. -1.
    9900012    2    1    2    0    0 -0.41917261435E+01 -0.28430886774E+02  0.13814312164E+02  0.59301935468E+02  0.49999984389E+02 0.  0.
         12    1    1    2    0    0  0.41917261435E+01  0.28430886774E+02 -0.13814312164E+02  0.31886064532E+02  0.00000000000E+00 0. -1.
         11    1    3    3    0    0  0.16555764372E+02 -0.19981763834E+02  0.36203042819E+01  0.26200588222E+02  0.51100000000E-03 0. -1.
        -11    1    3    3    0    0 -0.18139710027E+02 -0.13426354570E+02  0.13773470168E+02  0.26439072557E+02  0.51100000000E-03 0.  1.
         12    1    3    3    0    0 -0.26077804880E+01  0.49772316298E+01 -0.35794622863E+01  0.66622746888E+01  0.00000000000E+00 0. -1.
</event>
<event>
 7    1  0.4237994E-013  0.5930194E+02  0.7816164E-02  0.1266605E+00
        -11   -1    0    0    0    0  0.00000000000E+00  0.00000000000E+00  0.45593999997E+02  0.45594000000E+02  0.51100000000E-03 0.  1.
         11   -1    0    0    0    0 -0.00000000000E+00 -0.00000000000E+00 -0.45593999997E+02  0.45594000000E+02  0.51100000000E-03 0. -1.
    9900012    2    1    2    0    0  0.48853006130E+01  0.10392427180E+02  0.29746461368E+02  0.59301942409E+02  0.49999997047E+02 0.  0.
         12    1    1    2    0    0 -0.48853006130E+01 -0.10392427180E+02 -0.29746461368E+02  0.31886057591E+02  0.00000000000E+00 0. -1.
         11    1    3    3    0    0  0.13538971680E+02 -0.59258891514E+01  0.28557107287E+02  0.32154755376E+02  0.51100000000E-03 0. -1.
        -11    1    3    3    0    0  0.16134389286E+01  0.11634870882E+02  0.77702020652E+01  0.14083658829E+02  0.51100000000E-03 0.  1.
         12    1    3    3    0    0 -0.10267109996E+02  0.46834454496E+01 -0.65808479843E+01  0.13063528204E+02  0.00000000000E+00 0. -1.
</event>
<event>
 7    1  0.4237994E-013  0.5930194E+02  0.7816164E-02  0.1266605E+00
        -11   -1    0    0    0    0  0.00000000000E+00  0.00000000000E+00  0.45593999997E+02  0.45594000000E+02  0.51100000000E-03 0.  1.
         11   -1    0    0    0    0 -0.00000000000E+00 -0.00000000000E+00 -0.45593999997E+02  0.45594000000E+02  0.51100000000E-03 0. -1.
    9900012    2    1    2    0    0 -0.12810727156E+02  0.15637819185E+02  0.24658968868E+02  0.59301939335E+02  0.49999991442E+02 0.  0.
         12    1    1    2    0    0  0.12810727156E+02 -0.15637819185E+02 -0.24658968868E+02  0.31886060665E+02  0.00000000000E+00 0. -1.
         11    1    3    3    0    0  0.13760591887E+02 -0.29133226608E+01  0.15264006323E+02  0.20756474347E+02  0.51100000000E-03 0.  1.
        -11    1    3    3    0    0 -0.20088064166E+02  0.22160285727E+02  0.67013250767E+01  0.30651530851E+02  0.51100000000E-03 0. -1.
        -12    1    3    3    0    0 -0.64832548766E+01 -0.36091438819E+01  0.26936374678E+01  0.78939341372E+01  0.00000000000E+00 0.  1.
</event>
<event>
 7    1  0.4237994E-013  0.5930193E+02  0.7816164E-02  0.1266605E+00
        -11   -1    0    0    0    0  0.00000000000E+00  0.00000000000E+00  0.45593999997E+02  0.45594000000E+02  0.51100000000E-03 0.  1.
         11   -1    0    0    0    0 -0.00000000000E+00 -0.00000000000E+00 -0.45593999997E+02  0.45594000000E+02  0.51100000000E-03 0. -1.
    9900012    2    1    2    0    0 -0.12447811561E+02 -0.29059978787E+02 -0.41582502152E+01  0.59301930556E+02  0.49999975431E+02 0.  0.
         12    1    1    2    0    0  0.12447811561E+02  0.29059978787E+02  0.41582502152E+01  0.31886069444E+02  0.00000000000E+00 0. -1.
         11    1    3    3    0    0 -0.73507977015E+01  0.68493083995E+01 -0.62337616545E+01  0.11824002581E+02  0.51100000000E-03 0. -1.
        -11    1    3    3    0    0  0.53865828449E+01 -0.24166228688E+02 -0.10924346404E+02  0.27062210338E+02  0.51100000000E-03 0.  1.
        -12    1    3    3    0    0 -0.10483596704E+02 -0.11743058498E+02  0.12999857843E+02  0.20415717638E+02  0.00000000000E+00 0.  1.
</event>
<event>
 7    1  0.4237994E-013  0.5930195E+02  0.7816164E-02  0.1266605E+00
        -11   -1    0    0    0    0  0.00000000000E+00  0.00000000000E+00  0.45593999997E+02  0.45594000000E+02  0.51100000000E-03 0. -1.
         11   -1    0    0    0    0 -0.00000000000E+00 -0.00000000000E+00 -0.45593999997E+02  0.45594000000E+02  0.51100000000E-03 0.  1.
    9900012    2    1    2    0    0 -0.26804426735E+01 -0.31506534728E+02 -0.41077836702E+01  0.59301946776E+02  0.50000005013E+02 0.  0.
         12    1    1    2    0    0  0.26804426735E+01  0.31506534728E+02  0.41077836702E+01  0.31886053224E+02  0.00000000000E+00 0. -1.
         11    1    3    3    0    0 -0.42013702777E+01 -0.13785169823E+02 -0.20022752377E+02  0.24669678399E+02  0.51100000000E-03 0. -1.
        -11    1    3    3    0    0  0.23575801235E+01 -0.23827558534E+02  0.95667597738E+01  0.25784367794E+02  0.51100000000E-03 0.  1.
         12    1    3    3    0    0 -0.83665251927E+00  0.61061936290E+01  0.63482089333E+01  0.88479005834E+01  0.00000000000E+00 0. -1.
</event>
<event>
 7    1  0.4237994E-013  0.5930192E+02  0.7816164E-02  0.1266605E+00
        -11   -1    0    0    0    0  0.00000000000E+00  0.00000000000E+00  0.45593999997E+02  0.45594000000E+02  0.51100000000E-03 0.  1.
         11   -1    0    0    0    0 -0.00000000000E+00 -0.00000000000E+00 -0.45593999997E+02  0.45594000000E+02  0.51100000000E-03 0. -1.
    9900012    2    1    2    0    0  0.13582289622E+02 -0.20296071372E+02 -0.20501538978E+02  0.59301918319E+02  0.49999953113E+02 0.  0.
         12    1    1    2    0    0 -0.13582289622E+02  0.20296071372E+02  0.20501538978E+02  0.31886081681E+02  0.00000000000E+00 0. -1.
         11    1    3    3    0    0  0.25646468985E+02 -0.11367345193E+02 -0.11440666224E+02  0.30295985741E+02  0.51100000000E-03 0. -1.
        -11    1    3    3    0    0 -0.73479833199E+01  0.41451623086E+01  0.45222891046E+01  0.95721642506E+01  0.51100000000E-03 0.  1.
        -12    1    3    3    0    0 -0.47161960432E+01 -0.13073888488E+02 -0.13583161859E+02  0.19433768327E+02  0.00000000000E+00 0.  1.
</event>
<event>
 7    1  0.4237994E-013  0.5930193E+02  0.7816164E-02  0.1266605E+00
        -11   -1    0    0    0    0  0.00000000000E+00  0.00000000000E+00  0.45593999997E+02  0.45594000000E+02  0.51100000000E-03 0.  1.
         11   -1    0    0    0    0 -0.00000000000E+00 -0.00000000000E+00 -0.45593999997E+02  0.45594000000E+02  0.51100000000E-03 0. -1.
    9900012    2    1    2    0    0  0.25592725320E+02  0.70720318844E+01  0.17655600456E+02  0.59301930130E+02  0.49999974654E+02 0.  0.
         12    1    1    2    0    0 -0.25592725320E+02 -0.70720318844E+01 -0.17655600456E+02  0.31886069870E+02  0.00000000000E+00 0. -1.
         11    1    3    3    0    0 -0.51726212025E+01 -0.13518612529E+01  0.15413067459E+01  0.55640961258E+01  0.51100000000E-03 0. -1.
        -11    1    3    3    0    0  0.30753760938E+02 -0.90477849996E+01  0.16918513627E+02  0.36247652736E+02  0.51100000000E-03 0.  1.
        -12    1    3    3    0    0  0.11585584292E-01  0.17471678137E+02 -0.80421991667E+00  0.17490181269E+02  0.00000000000E+00 0.  1.
</event>
<event>
 7    1  0.4237994E-013  0.5930194E+02  0.7816164E-02  0.1266605E+00
        -11   -1    0    0    0    0  0.00000000000E+00  0.00000000000E+00  0.45593999997E+02  0.45594000000E+02  0.51100000000E-03 0.  1.
         11   -1    0    0    0    0 -0.00000000000E+00 -0.00000000000E+00 -0.45593999997E+02  0.45594000000E+02  0.51100000000E-03 0. -1.
    9900012    2    1    2    0    0 -0.55124154404E+01  0.26750087596E+02  0.16454992300E+02  0.59301942201E+02  0.49999996668E+02 0.  0.
         12    1    1    2    0    0  0.55124154404E+01 -0.26750087596E+02 -0.16454992300E+02  0.31886057799E+02  0.00000000000E+00 0. -1.
         11    1    3    3    0    0  0.16098603615E+02  0.21879792859E+01  0.24107018430E+00  0.16248397054E+02  0.51100000000E-03 0. -1.
        -11    1    3    3    0    0 -0.13294251868E+02  0.26812863036E+02  0.76161201536E+01  0.30881580973E+02  0.51100000000E-03 0.  1.
        -12    1    3    3    0    0 -0.83167671878E+01 -0.22507547258E+01  0.85978019617E+01  0.12171964174E+02  0.00000000000E+00 0.  1.
</event>
<event>
 7    1  0.4237994E-013  0.5930168E+02  0.7816164E-02  0.1266606E+00
        -11   -1    0    0    0    0  0.00000000000E+00  0.00000000000E+00  0.45593999997E+02  0.45594000000E+02  0.51100000000E-03 0.  1.
         11   -1    0    0    0    0 -0.00000000000E+00 -0.00000000000E+00 -0.45593999997E+02  0.45594000000E+02  0.51100000000E-03 0. -1.
    9900012    2    1    2    0    0 -0.10872888275E+02 -0.16205607085E+02  0.25216976622E+02  0.59301681454E+02  0.49999521127E+02 0.  0.
         12    1    1    2    0    0  0.10872888275E+02  0.16205607085E+02 -0.25216976622E+02  0.31886318546E+02  0.00000000000E+00 0. -1.
         11    1    3    3    0    0  0.13957212126E+02 -0.29869237862E+01 -0.24490154332E+01  0.14481821739E+02  0.51100000000E-03 0.  1.
        -11    1    3    3    0    0 -0.17327855811E+02  0.28117533788E+01  0.14266654681E+02  0.22620742254E+02  0.51100000000E-03 0. -1.
        -12    1    3    3    0    0 -0.75022445900E+01 -0.16030436678E+02  0.13399337374E+02  0.22199117461E+02  0.00000000000E+00 0.  1.
</event>
<event>
 7    1  0.4237994E-013  0.5930195E+02  0.7816164E-02  0.1266605E+00
        -11   -1    0    0    0    0  0.00000000000E+00  0.00000000000E+00  0.45593999997E+02  0.45594000000E+02  0.51100000000E-03 0. -1.
         11   -1    0    0    0    0 -0.00000000000E+00 -0.00000000000E+00 -0.45593999997E+02  0.45594000000E+02  0.51100000000E-03 0.  1.
    9900012    2    1    2    0    0 -0.26860765037E+02 -0.15060241662E+02 -0.82709495953E+01  0.59301950001E+02  0.50000010894E+02 0.  0.
         12    1    1    2    0    0  0.26860765037E+02  0.15060241662E+02  0.82709495953E+01  0.31886049999E+02  0.00000000000E+00 0. -1.
         11    1    3    3    0    0 -0.13359025911E+02  0.10174873982E+02 -0.82533722723E+01  0.18711220911E+02  0.51100000000E-03 0. -1.
        -11    1    3    3    0    0 -0.11798640846E+02 -0.24510426850E+02  0.11056165484E+02  0.29363374221E+02  0.51100000000E-03 0.  1.
        -12    1    3    3    0    0 -0.17030982800E+01 -0.72468879478E+00 -0.11073742807E+02  0.11227354869E+02  0.00000000000E+00 0.  1.
</event>
<event>
 7    1  0.4237994E-013  0.5930196E+02  0.7816164E-02  0.1266605E+00
        -11   -1    0    0    0    0  0.00000000000E+00  0.00000000000E+00  0.45593999997E+02  0.45594000000E+02  0.51100000000E-03 0.  1.
         11   -1    0    0    0    0 -0.00000000000E+00 -0.00000000000E+00 -0.45593999997E+02  0.45594000000E+02  0.51100000000E-03 0. -1.
    9900012    2    1    2    0    0 -0.15390646638E+02  0.27086587569E+02  0.67944424362E+01  0.59301957942E+02  0.50000025377E+02 0.  0.
         12    1    1    2    0    0  0.15390646638E+02 -0.27086587569E+02 -0.67944424362E+01  0.31886042058E+02  0.00000000000E+00 0. -1.
         11    1    3    3    0    0  0.40034247099E+01  0.21979036373E+02 -0.11643856186E+02  0.25192952118E+02  0.51100000000E-03 0. -1.
        -11    1    3    3    0    0 -0.36442520391E+01  0.19590196930E+01  0.17541181904E+02  0.18022524627E+02  0.51100000000E-03 0.  1.
         12    1    3    3    0    0 -0.15749819309E+02  0.31485315033E+01  0.89711671891E+00  0.16086481197E+02  0.00000000000E+00 0. -1.
</event>
<event>
 7    1  0.4237994E-013  0.5930196E+02  0.7816164E-02  0.1266605E+00
        -11   -1    0    0    0    0  0.00000000000E+00  0.00000000000E+00  0.45593999997E+02  0.45594000000E+02  0.51100000000E-03 0.  1.
         11   -1    0    0    0    0 -0.00000000000E+00 -0.00000000000E+00 -0.45593999997E+02  0.45594000000E+02  0.51100000000E-03 0. -1.
    9900012    2    1    2    0    0  0.19305546606E+01 -0.19286198391E+02  0.25318675535E+02  0.59301955709E+02  0.50000021304E+02 0.  0.
         12    1    1    2    0    0 -0.19305546606E+01  0.19286198391E+02 -0.25318675535E+02  0.31886044291E+02  0.00000000000E+00 0. -1.
         11    1    3    3    0    0  0.67006472822E+01  0.10148138201E+02  0.12332050636E+02  0.17319435791E+02  0.51100000000E-03 0. -1.
        -11    1    3    3    0    0 -0.12006845221E+02 -0.11339854286E+02 -0.29885556417E+01  0.16783566143E+02  0.51100000000E-03 0.  1.
        -12    1    3    3    0    0  0.72367525992E+01 -0.18094482306E+02  0.15975180540E+02  0.25198953776E+02  0.00000000000E+00 0.  1.
</event>
<event>
 7    1  0.4237994E-013  0.5930192E+02  0.7816164E-02  0.1266605E+00
        -11   -1    0    0    0    0  0.00000000000E+00  0.00000000000E+00  0.45593999997E+02  0.45594000000E+02  0.51100000000E-03 0. -1.
         11   -1    0    0    0    0 -0.00000000000E+00 -0.00000000000E+00 -0.45593999997E+02  0.45594000000E+02  0.51100000000E-03 0.  1.
    9900012    2    1    2    0    0 -0.12866781253E+02  0.98518348912E+01 -0.27461054306E+02  0.59301918175E+02  0.49999952851E+02 0.  0.
         12    1    1    2    0    0  0.12866781253E+02 -0.98518348912E+01  0.27461054306E+02  0.31886081825E+02  0.00000000000E+00 0. -1.
         11    1    3    3    0    0  0.13537569666E+02 -0.18920698418E+01 -0.81130266908E+01  0.15895500089E+02  0.51100000000E-03 0. -1.
        -11    1    3    3    0    0 -0.14308016742E+02  0.19479028194E+02 -0.14820964221E+02  0.28351593662E+02  0.51100000000E-03 0.  1.
         12    1    3    3    0    0 -0.12096334177E+02 -0.77351234607E+01 -0.45270633940E+01  0.15054824424E+02  0.00000000000E+00 0. -1.
</event>
<event>
 7    1  0.4237994E-013  0.5930193E+02  0.7816164E-02  0.1266605E+00
        -11   -1    0    0    0    0  0.00000000000E+00  0.00000000000E+00  0.45593999997E+02  0.45594000000E+02  0.51100000000E-03 0. -1.
         11   -1    0    0    0    0 -0.00000000000E+00 -0.00000000000E+00 -0.45593999997E+02  0.45594000000E+02  0.51100000000E-03 0.  1.
    9900012    2    1    2    0    0 -0.88777386326E+01  0.28539242063E+02 -0.11109392913E+02  0.59301934208E+02  0.49999982092E+02 0.  0.
         12    1    1    2    0    0  0.88777386326E+01 -0.28539242063E+02  0.11109392913E+02  0.31886065792E+02  0.00000000000E+00 0. -1.
         11    1    3    3    0    0 -0.47657142779E+01  0.50140497013E+00  0.38035445822E+00  0.48070894830E+01  0.51100000000E-03 0. -1.
        -11    1    3    3    0    0  0.53889033203E+01  0.34338809566E+02 -0.20150688325E+02  0.40177659982E+02  0.51100000000E-03 0.  1.
        -12    1    3    3    0    0 -0.95009276750E+01 -0.63009724728E+01  0.86609409533E+01  0.14317184744E+02  0.00000000000E+00 0.  1.
</event>
<event>
 7    1  0.4237994E-013  0.5930195E+02  0.7816164E-02  0.1266605E+00
        -11   -1    0    0    0    0  0.00000000000E+00  0.00000000000E+00  0.45593999997E+02  0.45594000000E+02  0.51100000000E-03 0.  1.
         11   -1    0    0    0    0 -0.00000000000E+00 -0.00000000000E+00 -0.45593999997E+02  0.45594000000E+02  0.51100000000E-03 0. -1.
    9900012    2    1    2    0    0  0.23046052353E+02 -0.16297263463E+02  0.14832353087E+02  0.59301952526E+02  0.50000015498E+02 0.  0.
         12    1    1    2    0    0 -0.23046052353E+02  0.16297263463E+02 -0.14832353087E+02  0.31886047474E+02  0.00000000000E+00 0. -1.
         11    1    3    3    0    0  0.55293654138E+00  0.77336936004E+00 -0.31897698847E+01  0.33284337404E+01  0.51100000000E-03 0. -1.
        -11    1    3    3    0    0  0.13624792659E+02 -0.32461351519E+02  0.12789454072E+02  0.37455900111E+02  0.51100000000E-03 0.  1.
        -12    1    3    3    0    0  0.88683231530E+01  0.15390718696E+02  0.52326688996E+01  0.18517618674E+02  0.00000000000E+00 0.  1.
</event>
<event>
 7    1  0.4237994E-013  0.5930193E+02  0.7816164E-02  0.1266605E+00
        -11   -1    0    0    0    0  0.00000000000E+00  0.00000000000E+00  0.45593999997E+02  0.45594000000E+02  0.51100000000E-03 0.  1.
         11   -1    0    0    0    0 -0.00000000000E+00 -0.00000000000E+00 -0.45593999997E+02  0.45594000000E+02  0.51100000000E-03 0. -1.
    9900012    2    1    2    0    0 -0.61676139959E+01 -0.70340727396E+01  0.30482840019E+02  0.59301934433E+02  0.49999982502E+02 0.  0.
         12    1    1    2    0    0  0.61676139959E+01  0.70340727396E+01 -0.30482840019E+02  0.31886065567E+02  0.00000000000E+00 0. -1.
         11    1    3    3    0    0  0.46920606802E+01 -0.19144587894E+02  0.12997439388E+01  0.19753987284E+02  0.51100000000E-03 0. -1.
        -11    1    3    3    0    0 -0.16295363689E+02  0.40180350102E+01  0.20490710334E+02  0.26486840003E+02  0.51100000000E-03 0.  1.
         12    1    3    3    0    0  0.54356890134E+01  0.80924801438E+01  0.86923857458E+01  0.13061107146E+02  0.00000000000E+00 0. -1.
</event>
<event>
 7    1  0.4237994E-013  0.5930194E+02  0.7816164E-02  0.1266605E+00
        -11   -1    0    0    0    0  0.00000000000E+00  0.00000000000E+00  0.45593999997E+02  0.45594000000E+02  0.51100000000E-03 0.  1.
         11   -1    0    0    0    0 -0.00000000000E+00 -0.00000000000E+00 -0.45593999997E+02  0.45594000000E+02  0.51100000000E-03 0. -1.
    9900012    2    1    2    0    0 -0.10826195080E+00  0.31770166870E+02  0.27139399148E+01  0.59301942021E+02  0.49999996340E+02 0.  0.
         12    1    1    2    0    0  0.10826195080E+00 -0.31770166870E+02 -0.27139399148E+01  0.31886057979E+02  0.00000000000E+00 0. -1.
         11    1    3    3    0    0  0.27726739675E+01  0.29148341022E+02 -0.13695669205E+01  0.29311929638E+02  0.51100000000E-03 0. -1.
        -11    1    3    3    0    0  0.12833347702E+02 -0.26827576311E+01  0.13380698462E+01  0.13178863112E+02  0.51100000000E-03 0.  1.
        -12    1    3    3    0    0 -0.15714283620E+02  0.53045834787E+01  0.27454369891E+01  0.16811149272E+02  0.00000000000E+00 0.  1.
</event>
<event>
 7    1  0.4237994E-013  0.5930161E+02  0.7816164E-02  0.1266606E+00
        -11   -1    0    0    0    0  0.00000000000E+00  0.00000000000E+00  0.45593999997E+02  0.45594000000E+02  0.51100000000E-03 0.  1.
         11   -1    0    0    0    0 -0.00000000000E+00 -0.00000000000E+00 -0.45593999997E+02  0.45594000000E+02  0.51100000000E-03 0. -1.
    9900012    2    1    2    0    0 -0.25641099075E+02 -0.18406457025E+02 -0.45252766761E+01  0.59301611823E+02  0.49999394135E+02 0.  0.
         12    1    1    2    0    0  0.25641099075E+02  0.18406457025E+02  0.45252766761E+01  0.31886388177E+02  0.00000000000E+00 0. -1.
         11    1    3    3    0    0  0.10956820031E+02 -0.14376961475E+02 -0.56637470670E+01  0.18942728355E+02  0.51100000000E-03 0. -1.
        -11    1    3    3    0    0 -0.18523036863E+02  0.57545096124E+01  0.33633113269E+01  0.19685759798E+02  0.51100000000E-03 0.  1.
         12    1    3    3    0    0 -0.18074882242E+02 -0.97840051624E+01 -0.22248409360E+01  0.20673123670E+02  0.00000000000E+00 0. -1.
</event>
<event>
 7    1  0.4237994E-013  0.5930196E+02  0.7816164E-02  0.1266605E+00
        -11   -1    0    0    0    0  0.00000000000E+00  0.00000000000E+00  0.45593999997E+02  0.45594000000E+02  0.51100000000E-03 0.  1.
         11   -1    0    0    0    0 -0.00000000000E+00 -0.00000000000E+00 -0.45593999997E+02  0.45594000000E+02  0.51100000000E-03 0. -1.
    9900012    2    1    2    0    0  0.28904406831E+02  0.68034675700E+01  0.11617562318E+02  0.59301958235E+02  0.50000025910E+02 0.  0.
         12    1    1    2    0    0 -0.28904406831E+02 -0.68034675700E+01 -0.11617562318E+02  0.31886041765E+02  0.00000000000E+00 0. -1.
         11    1    3    3    0    0  0.96376202630E+01 -0.12554191336E+02 -0.31603889692E+00  0.15830076604E+02  0.51100000000E-03 0. -1.
        -11    1    3    3    0    0  0.10000744720E+02  0.20848224520E+02 -0.54141120998E+01  0.23748178260E+02  0.51100000000E-03 0.  1.
        -12    1    3    3    0    0  0.92660418485E+01 -0.14905656138E+01  0.17347713315E+02  0.19723703371E+02  0.00000000000E+00 0.  1.
</event>
<event>
 7    1  0.4237994E-013  0.5930197E+02  0.7816164E-02  0.1266605E+00
        -11   -1    0    0    0    0  0.00000000000E+00  0.00000000000E+00  0.45593999997E+02  0.45594000000E+02  0.51100000000E-03 0.  1.
         11   -1    0    0    0    0 -0.00000000000E+00 -0.00000000000E+00 -0.45593999997E+02  0.45594000000E+02  0.51100000000E-03 0. -1.
    9900012    2    1    2    0    0  0.13940086786E+02 -0.35304394259E+01  0.28459251110E+02  0.59301968640E+02  0.50000044886E+02 0.  0.
         12    1    1    2    0    0 -0.13940086786E+02  0.35304394259E+01 -0.28459251110E+02  0.31886031360E+02  0.00000000000E+00 0. -1.
         11    1    3    3    0    0  0.98279413977E+01 -0.15744132308E+02  0.10245434658E+02  0.21199883628E+02  0.51100000000E-03 0. -1.
        -11    1    3    3    0    0 -0.63060930521E+01  0.17967966991E+02  0.38144508169E+01  0.19420728171E+02  0.51100000000E-03 0.  1.
        -12    1    3    3    0    0  0.10418238440E+02 -0.57542741096E+01  0.14399365635E+02  0.18681356841E+02  0.00000000000E+00 0.  1.
</event>
<event>
 7    1  0.4237994E-013  0.5930209E+02  0.7816164E-02  0.1266604E+00
        -11   -1    0    0    0    0  0.00000000000E+00  0.00000000000E+00  0.45593999997E+02  0.45594000000E+02  0.51100000000E-03 0.  1.
         11   -1    0    0    0    0 -0.00000000000E+00 -0.00000000000E+00 -0.45593999997E+02  0.45594000000E+02  0.51100000000E-03 0. -1.
    9900012    2    1    2    0    0 -0.31784590349E+02 -0.12956320465E+01  0.21845805039E+01  0.59302090290E+02  0.50000266747E+02 0.  0.
         12    1    1    2    0    0  0.31784590349E+02  0.12956320465E+01 -0.21845805039E+01  0.31885909710E+02  0.00000000000E+00 0. -1.
         11    1    3    3    0    0  0.12723323385E+01 -0.56555479765E+01  0.31259469092E+01  0.65860152471E+01  0.51100000000E-03 0. -1.
        -11    1    3    3    0    0 -0.38786735585E+02 -0.49570439634E+01  0.62886061410E+01  0.39604667776E+02  0.51100000000E-03 0.  1.
        -12    1    3    3    0    0  0.57298128978E+01  0.93169598934E+01 -0.72299725463E+01  0.13111407267E+02  0.00000000000E+00 0.  1.
</event>
<event>
 7    1  0.4237994E-013  0.5930192E+02  0.7816164E-02  0.1266605E+00
        -11   -1    0    0    0    0  0.00000000000E+00  0.00000000000E+00  0.45593999997E+02  0.45594000000E+02  0.51100000000E-03 0.  1.
         11   -1    0    0    0    0 -0.00000000000E+00 -0.00000000000E+00 -0.45593999997E+02  0.45594000000E+02  0.51100000000E-03 0. -1.
    9900012    2    1    2    0    0 -0.17673377590E+02 -0.75664890852E+01  0.25438598547E+02  0.59301916381E+02  0.49999949579E+02 0.  0.
         12    1    1    2    0    0  0.17673377590E+02  0.75664890852E+01 -0.25438598547E+02  0.31886083619E+02  0.00000000000E+00 0. -1.
         11    1    3    3    0    0  0.88401257153E+01 -0.98588618807E+01  0.26475112711E+01  0.13503862279E+02  0.51100000000E-03 0. -1.
        -11    1    3    3    0    0 -0.29692815260E+01  0.10009764485E+01  0.21982372668E+02  0.22204578245E+02  0.51100000000E-03 0.  1.
         12    1    3    3    0    0 -0.23544221780E+02  0.12913963470E+01  0.80871460765E+00  0.23593475858E+02  0.00000000000E+00 0. -1.
</event>
<event>
 7    1  0.4237994E-013  0.5930194E+02  0.7816164E-02  0.1266605E+00
        -11   -1    0    0    0    0  0.00000000000E+00  0.00000000000E+00  0.45593999997E+02  0.45594000000E+02  0.51100000000E-03 0.  1.
         11   -1    0    0    0    0 -0.00000000000E+00 -0.00000000000E+00 -0.45593999997E+02  0.45594000000E+02  0.51100000000E-03 0. -1.
    9900012    2    1    2    0    0  0.23534977351E+01  0.31744493681E+02  0.18624704494E+01  0.59301943066E+02  0.49999998246E+02 0.  0.
         12    1    1    2    0    0 -0.23534977351E+01 -0.31744493681E+02 -0.18624704494E+01  0.31886056934E+02  0.00000000000E+00 0. -1.
         11    1    3    3    0    0  0.12661065567E+02 -0.69279154144E+01 -0.71145745128E+01  0.16090859643E+02  0.51100000000E-03 0. -1.
        -11    1    3    3    0    0 -0.11408548330E+02  0.22587905894E+02  0.12591238950E+01  0.25336808420E+02  0.51100000000E-03 0.  1.
         12    1    3    3    0    0  0.11009804971E+01  0.16084503201E+02  0.77179210672E+01  0.17874275002E+02  0.00000000000E+00 0. -1.
</event>
<event>
 7    1  0.4237994E-013  0.5930199E+02  0.7816164E-02  0.1266605E+00
        -11   -1    0    0    0    0  0.00000000000E+00  0.00000000000E+00  0.45593999997E+02  0.45594000000E+02  0.51100000000E-03 0.  1.
         11   -1    0    0    0    0 -0.00000000000E+00 -0.00000000000E+00 -0.45593999997E+02  0.45594000000E+02  0.51100000000E-03 0. -1.
    9900012    2    1    2    0    0  0.26332876396E+02 -0.10074687712E+02  0.14892881293E+02  0.59301990137E+02  0.50000084092E+02 0.  0.
         12    1    1    2    0    0 -0.26332876396E+02  0.10074687712E+02 -0.14892881293E+02  0.31886009863E+02  0.00000000000E+00 0. -1.
         11    1    3    3    0    0 -0.12785086090E+02  0.39271742758E+01  0.89830238824E+01  0.16111357561E+02  0.51100000000E-03 0. -1.
        -11    1    3    3    0    0  0.36383274177E+02 -0.10805424136E+02  0.29931585593E+01  0.38071758943E+02  0.51100000000E-03 0.  1.
         12    1    3    3    0    0  0.27346883084E+01 -0.31964378515E+01  0.29166988516E+01  0.51188736333E+01  0.00000000000E+00 0. -1.
</event>
<event>
 7    1  0.4237994E-013  0.5930195E+02  0.7816164E-02  0.1266605E+00
        -11   -1    0    0    0    0  0.00000000000E+00  0.00000000000E+00  0.45593999997E+02  0.45594000000E+02  0.51100000000E-03 0.  1.
         11   -1    0    0    0    0 -0.00000000000E+00 -0.00000000000E+00 -0.45593999997E+02  0.45594000000E+02  0.51100000000E-03 0. -1.
    9900012    2    1    2    0    0  0.58260548164E+01 -0.95593337112E+01  0.29856259716E+02  0.59301952582E+02  0.50000015600E+02 0.  0.
         12    1    1    2    0    0 -0.58260548164E+01  0.95593337112E+01 -0.29856259716E+02  0.31886047418E+02  0.00000000000E+00 0. -1.
         11    1    3    3    0    0  0.38695405472E+00 -0.19684297027E+02  0.54935840709E+01  0.20440174879E+02  0.51100000000E-03 0. -1.
        -11    1    3    3    0    0  0.11162144130E+02  0.14732280964E+02  0.65775284499E+01  0.19618803347E+02  0.51100000000E-03 0.  1.
        -12    1    3    3    0    0 -0.57230433687E+01 -0.46073176480E+01  0.17785147195E+02  0.19242974356E+02  0.00000000000E+00 0.  1.
</event>
<event>
 7    1  0.4237994E-013  0.5930192E+02  0.7816164E-02  0.1266605E+00
        -11   -1    0    0    0    0  0.00000000000E+00  0.00000000000E+00  0.45593999997E+02  0.45594000000E+02  0.51100000000E-03 0.  1.
         11   -1    0    0    0    0 -0.00000000000E+00 -0.00000000000E+00 -0.45593999997E+02  0.45594000000E+02  0.51100000000E-03 0. -1.
    9900012    2    1    2    0    0 -0.30118072118E+02  0.29390749901E+01  0.10049147709E+02  0.59301924675E+02  0.49999964706E+02 0.  0.
         12    1    1    2    0    0  0.30118072118E+02 -0.29390749901E+01 -0.10049147709E+02  0.31886075325E+02  0.00000000000E+00 0. -1.
         11    1    3    3    0    0 -0.12099183056E+02 -0.13329943379E+02  0.12099277403E+02  0.21690323534E+02  0.51100000000E-03 0. -1.
        -11    1    3    3    0    0 -0.25196117016E+02  0.16773921906E+02 -0.61662037383E+00  0.30275220722E+02  0.51100000000E-03 0.  1.
        -12    1    3    3    0    0  0.71772279538E+01 -0.50490353738E+00 -0.14335093194E+01  0.73363804190E+01  0.00000000000E+00 0.  1.
</event>
<event>
 7    1  0.4237994E-013  0.5930198E+02  0.7816164E-02  0.1266605E+00
        -11   -1    0    0    0    0  0.00000000000E+00  0.00000000000E+00  0.45593999997E+02  0.45594000000E+02  0.51100000000E-03 0.  1.
         11   -1    0    0    0    0 -0.00000000000E+00 -0.00000000000E+00 -0.45593999997E+02  0.45594000000E+02  0.51100000000E-03 0. -1.
    9900012    2    1    2    0    0 -0.19548764604E+02  0.36697655386E+01  0.24921819314E+02  0.59301977128E+02  0.50000060368E+02 0.  0.
         12    1    1    2    0    0  0.19548764604E+02 -0.36697655386E+01 -0.24921819314E+02  0.31886022872E+02  0.00000000000E+00 0. -1.
         11    1    3    3    0    0  0.10267304523E+02  0.33974929497E+01 -0.50564727784E+01  0.11938526615E+02  0.51100000000E-03 0. -1.
        -11    1    3    3    0    0 -0.11974297730E+02  0.94895143396E+01  0.68805491536E+01  0.16756391182E+02  0.51100000000E-03 0.  1.
         12    1    3    3    0    0 -0.17841771397E+02 -0.92172417507E+01  0.23097742939E+02  0.30607059332E+02  0.00000000000E+00 0. -1.
</event>
<event>
 7    1  0.4237994E-013  0.5930193E+02  0.7816164E-02  0.1266605E+00
        -11   -1    0    0    0    0  0.00000000000E+00  0.00000000000E+00  0.45593999997E+02  0.45594000000E+02  0.51100000000E-03 0.  1.
         11   -1    0    0    0    0 -0.00000000000E+00 -0.00000000000E+00 -0.45593999997E+02  0.45594000000E+02  0.51100000000E-03 0. -1.
    9900012    2    1    2    0    0  0.63395145952E+01  0.15681081415E+02  0.27030276652E+02  0.59301927562E+02  0.49999969970E+02 0.  0.
         12    1    1    2    0    0 -0.63395145952E+01 -0.15681081415E+02 -0.27030276652E+02  0.31886072438E+02  0.00000000000E+00 0. -1.
         11    1    3    3    0    0  0.17043813948E+02  0.21746791562E+02  0.85217453742E+00  0.27643095681E+02  0.51100000000E-03 0. -1.
        -11    1    3    3    0    0 -0.64999723728E+01  0.25383820958E+01  0.17076626844E+02  0.18447336099E+02  0.51100000000E-03 0.  1.
         12    1    3    3    0    0 -0.42043269799E+01 -0.86040922435E+01  0.91014752707E+01  0.13211495782E+02  0.00000000000E+00 0. -1.
</event>
<event>
 7    1  0.4237994E-013  0.5930196E+02  0.7816164E-02  0.1266605E+00
        -11   -1    0    0    0    0  0.00000000000E+00  0.00000000000E+00  0.45593999997E+02  0.45594000000E+02  0.51100000000E-03 0.  1.
         11   -1    0    0    0    0 -0.00000000000E+00 -0.00000000000E+00 -0.45593999997E+02  0.45594000000E+02  0.51100000000E-03 0. -1.
    9900012    2    1    2    0    0  0.36442220005E+01  0.85277186355E+01  0.30507659504E+02  0.59301958736E+02  0.50000026823E+02 0.  0.
         12    1    1    2    0    0 -0.36442220005E+01 -0.85277186355E+01 -0.30507659504E+02  0.31886041264E+02  0.00000000000E+00 0. -1.
         11    1    3    3    0    0 -0.75825964875E+01  0.98283335471E+01  0.49038866679E+01  0.13346910299E+02  0.51100000000E-03 0. -1.
        -11    1    3    3    0    0  0.24475298638E+02 -0.35130874834E+01  0.16289565094E+02  0.29609659882E+02  0.51100000000E-03 0.  1.
        -12    1    3    3    0    0 -0.13248480150E+02  0.22124725719E+01  0.93142077417E+01  0.16345388555E+02  0.00000000000E+00 0.  1.
</event>
<event>
 7    1  0.4237994E-013  0.5930190E+02  0.7816164E-02  0.1266605E+00
        -11   -1    0    0    0    0  0.00000000000E+00  0.00000000000E+00  0.45593999997E+02  0.45594000000E+02  0.51100000000E-03 0. -1.
         11   -1    0    0    0    0 -0.00000000000E+00 -0.00000000000E+00 -0.45593999997E+02  0.45594000000E+02  0.51100000000E-03 0.  1.
    9900012    2    1    2    0    0 -0.30403143425E+02 -0.61648352218E+01 -0.73733978021E+01  0.59301900857E+02  0.49999921266E+02 0.  0.
         12    1    1    2    0    0  0.30403143425E+02  0.61648352218E+01  0.73733978021E+01  0.31886099143E+02  0.00000000000E+00 0. -1.
         11    1    3    3    0    0 -0.58644263497E+01  0.19717570545E+02 -0.82692261843E+01  0.22171021324E+02  0.51100000000E-03 0. -1.
        -11    1    3    3    0    0 -0.16814390200E+02 -0.20449337022E+02  0.48104409432E+01  0.26907981061E+02  0.51100000000E-03 0.  1.
         12    1    3    3    0    0 -0.77243268752E+01 -0.54330687443E+01 -0.39146125610E+01  0.10222898471E+02  0.00000000000E+00 0. -1.
</event>
<event>
 7    1  0.4237994E-013  0.5930194E+02  0.7816164E-02  0.1266605E+00
        -11   -1    0    0    0    0  0.00000000000E+00  0.00000000000E+00  0.45593999997E+02  0.45594000000E+02  0.51100000000E-03 0. -1.
         11   -1    0    0    0    0 -0.00000000000E+00 -0.00000000000E+00 -0.45593999997E+02  0.45594000000E+02  0.51100000000E-03 0.  1.
    9900012    2    1    2    0    0  0.73571496078E+01 -0.31002483475E+02 -0.11997654324E+01  0.59301936131E+02  0.49999985597E+02 0.  0.
         12    1    1    2    0    0 -0.73571496078E+01  0.31002483475E+02  0.11997654324E+01  0.31886063869E+02  0.00000000000E+00 0. -1.
         11    1    3    3    0    0  0.90906126083E+01  0.34513680582E+00  0.10039023872E+02  0.13547706727E+02  0.51100000000E-03 0. -1.
        -11    1    3    3    0    0 -0.96348982218E+01 -0.19132734185E+01 -0.11696744188E+02  0.15274347900E+02  0.51100000000E-03 0.  1.
        -12    1    3    3    0    0  0.79014352213E+01 -0.29434346863E+02  0.45795488378E+00  0.30479881503E+02  0.00000000000E+00 0.  1.
</event>
<event>
 7    1  0.4237994E-013  0.5930194E+02  0.7816164E-02  0.1266605E+00
        -11   -1    0    0    0    0  0.00000000000E+00  0.00000000000E+00  0.45593999997E+02  0.45594000000E+02  0.51100000000E-03 0.  1.
         11   -1    0    0    0    0 -0.00000000000E+00 -0.00000000000E+00 -0.45593999997E+02  0.45594000000E+02  0.51100000000E-03 0. -1.
    9900012    2    1    2    0    0 -0.30109489193E+02  0.96346841461E+01  0.41608148058E+01  0.59301939442E+02  0.49999991636E+02 0.  0.
         12    1    1    2    0    0  0.30109489193E+02 -0.96346841461E+01 -0.41608148058E+01  0.31886060558E+02  0.00000000000E+00 0. -1.
         11    1    3    3    0    0 -0.17826959491E+02  0.27683335641E+02 -0.58387764772E+01  0.33440377808E+02  0.51100000000E-03 0. -1.
        -11    1    3    3    0    0 -0.44402658952E+01 -0.25141599243E+01  0.62357741135E+01  0.80574090377E+01  0.51100000000E-03 0.  1.
         12    1    3    3    0    0 -0.78422638073E+01 -0.15534491571E+02  0.37638171694E+01  0.17804152596E+02  0.00000000000E+00 0. -1.
</event>
<event>
 7    1  0.4237994E-013  0.5930194E+02  0.7816164E-02  0.1266605E+00
        -11   -1    0    0    0    0  0.00000000000E+00  0.00000000000E+00  0.45593999997E+02  0.45594000000E+02  0.51100000000E-03 0.  1.
         11   -1    0    0    0    0 -0.00000000000E+00 -0.00000000000E+00 -0.45593999997E+02  0.45594000000E+02  0.51100000000E-03 0. -1.
    9900012    2    1    2    0    0 -0.21989988104E+02  0.13194393045E+02  0.18949128265E+02  0.59301936483E+02  0.49999986239E+02 0.  0.
         12    1    1    2    0    0  0.21989988104E+02 -0.13194393045E+02 -0.18949128265E+02  0.31886063517E+02  0.00000000000E+00 0. -1.
         11    1    3    3    0    0 -0.25158203255E+02  0.91772800863E+01 -0.52507638050E+01  0.27289708346E+02  0.51100000000E-03 0. -1.
        -11    1    3    3    0    0  0.11618172026E+02  0.43651867880E-01  0.13446450460E+02  0.17770505253E+02  0.51100000000E-03 0.  1.
        -12    1    3    3    0    0 -0.84499568756E+01  0.39734610907E+01  0.10753441610E+02  0.14241722884E+02  0.00000000000E+00 0.  1.
</event>
<event>
 7    1  0.4237994E-013  0.5930170E+02  0.7816164E-02  0.1266606E+00
        -11   -1    0    0    0    0  0.00000000000E+00  0.00000000000E+00  0.45593999997E+02  0.45594000000E+02  0.51100000000E-03 0.  1.
         11   -1    0    0    0    0 -0.00000000000E+00 -0.00000000000E+00 -0.45593999997E+02  0.45594000000E+02  0.51100000000E-03 0. -1.
    9900012    2    1    2    0    0 -0.98252893667E+01 -0.82854562937E+01  0.29181351226E+02  0.59301696412E+02  0.49999548407E+02 0.  0.
         12    1    1    2    0    0  0.98252893667E+01  0.82854562937E+01 -0.29181351226E+02  0.31886303588E+02  0.00000000000E+00 0. -1.
         11    1    3    3    0    0  0.56475697810E+01 -0.16996930240E+02 -0.46397891366E+01  0.18501846543E+02  0.51100000000E-03 0. -1.
        -11    1    3    3    0    0 -0.59567100608E+01  0.37001558236E+01  0.27379633942E+02  0.28263366801E+02  0.51100000000E-03 0.  1.
        -12    1    3    3    0    0 -0.95161490870E+01  0.50113181222E+01  0.64415064202E+01  0.12536483069E+02  0.00000000000E+00 0.  1.
</event>
<event>
 7    1  0.4237994E-013  0.5930196E+02  0.7816164E-02  0.1266605E+00
        -11   -1    0    0    0    0  0.00000000000E+00  0.00000000000E+00  0.45593999997E+02  0.45594000000E+02  0.51100000000E-03 0.  1.
         11   -1    0    0    0    0 -0.00000000000E+00 -0.00000000000E+00 -0.45593999997E+02  0.45594000000E+02  0.51100000000E-03 0. -1.
    9900012    2    1    2    0    0 -0.66456516735E+01 -0.27697538595E+02  0.14331814772E+02  0.59301964733E+02  0.50000037761E+02 0.  0.
         12    1    1    2    0    0  0.66456516735E+01  0.27697538595E+02 -0.14331814772E+02  0.31886035267E+02  0.00000000000E+00 0. -1.
         11    1    3    3    0    0 -0.25622391967E+02 -0.10781822570E+02  0.89744214566E+00  0.27812947897E+02  0.51100000000E-03 0. -1.
        -11    1    3    3    0    0  0.12905089478E+02 -0.51351851333E+01  0.11626426005E+02  0.18113123494E+02  0.51100000000E-03 0.  1.
         12    1    3    3    0    0  0.60716508150E+01 -0.11780530892E+02  0.18079466213E+01  0.13375893342E+02  0.00000000000E+00 0. -1.
</event>
<event>
 7    1  0.4237994E-013  0.5930195E+02  0.7816164E-02  0.1266605E+00
        -11   -1    0    0    0    0  0.00000000000E+00  0.00000000000E+00  0.45593999997E+02  0.45594000000E+02  0.51100000000E-03 0.  1.
         11   -1    0    0    0    0 -0.00000000000E+00 -0.00000000000E+00 -0.45593999997E+02  0.45594000000E+02  0.51100000000E-03 0. -1.
    9900012    2    1    2    0    0  0.86065072543E+01 -0.29793537297E+02  0.74157634525E+01  0.59301946946E+02  0.50000005323E+02 0.  0.
         12    1    1    2    0    0 -0.86065072543E+01  0.29793537297E+02 -0.74157634525E+01  0.31886053054E+02  0.00000000000E+00 0. -1.
         11    1    3    3    0    0  0.23132587243E+01  0.67498650805E+01 -0.11996265644E+02  0.13957873555E+02  0.51100000000E-03 0. -1.
        -11    1    3    3    0    0  0.11074001029E+02 -0.15527283977E+02  0.61551152997E+01  0.20040346581E+02  0.51100000000E-03 0.  1.
         12    1    3    3    0    0 -0.47807524988E+01 -0.21016118400E+02  0.13256913796E+02  0.25303726810E+02  0.00000000000E+00 0. -1.
</event>
<event>
 7    1  0.4237994E-013  0.5930193E+02  0.7816164E-02  0.1266605E+00
        -11   -1    0    0    0    0  0.00000000000E+00  0.00000000000E+00  0.45593999997E+02  0.45594000000E+02  0.51100000000E-03 0.  1.
         11   -1    0    0    0    0 -0.00000000000E+00 -0.00000000000E+00 -0.45593999997E+02  0.45594000000E+02  0.51100000000E-03 0. -1.
    9900012    2    1    2    0    0 -0.18503794635E+02 -0.59174806385E+01  0.25284672144E+02  0.59301927203E+02  0.49999969315E+02 0.  0.
         12    1    1    2    0    0  0.18503794635E+02  0.59174806385E+01 -0.25284672144E+02  0.31886072797E+02  0.00000000000E+00 0. -1.
         11    1    3    3    0    0 -0.33788732316E+01  0.19473868940E+02  0.97665833081E+01  0.22046190274E+02  0.51100000000E-03 0. -1.
        -11    1    3    3    0    0 -0.27080848128E+01 -0.15930312908E+02  0.14196076183E+01  0.16221093636E+02  0.51100000000E-03 0.  1.
        -12    1    3    3    0    0 -0.12416836590E+02 -0.94610366706E+01  0.14098481218E+02  0.21034643292E+02  0.00000000000E+00 0.  1.
</event>
<event>
 7    1  0.4237994E-013  0.5930192E+02  0.7816164E-02  0.1266605E+00
        -11   -1    0    0    0    0  0.00000000000E+00  0.00000000000E+00  0.45593999997E+02  0.45594000000E+02  0.51100000000E-03 0.  1.
         11   -1    0    0    0    0 -0.00000000000E+00 -0.00000000000E+00 -0.45593999997E+02  0.45594000000E+02  0.51100000000E-03 0. -1.
    9900012    2    1    2    0    0  0.21963795453E+02  0.23111445463E+02 -0.41798633957E+00  0.59301922557E+02  0.49999960843E+02 0.  0.
         12    1    1    2    0    0 -0.21963795453E+02 -0.23111445463E+02  0.41798633957E+00  0.31886077443E+02  0.00000000000E+00 0. -1.
         11    1    3    3    0    0  0.32544204692E+02  0.26693666402E+02  0.40338835057E+01  0.42284149529E+02  0.51100000000E-03 0.  1.
        -11    1    3    3    0    0 -0.63923397956E+01 -0.54742382101E+01  0.24143994822E+01  0.87554906866E+01  0.51100000000E-03 0. -1.
         12    1    3    3    0    0 -0.41880694434E+01  0.18920172718E+01 -0.68662693275E+01  0.82622823419E+01  0.00000000000E+00 0. -1.
</event>
<event>
 7    1  0.4237994E-013  0.5930192E+02  0.7816164E-02  0.1266605E+00
        -11   -1    0    0    0    0  0.00000000000E+00  0.00000000000E+00  0.45593999997E+02  0.45594000000E+02  0.51100000000E-03 0.  1.
         11   -1    0    0    0    0 -0.00000000000E+00 -0.00000000000E+00 -0.45593999997E+02  0.45594000000E+02  0.51100000000E-03 0. -1.
    9900012    2    1    2    0    0  0.26126083161E+02  0.13671568931E+02 -0.12134177108E+02  0.59301917261E+02  0.49999951184E+02 0.  0.
         12    1    1    2    0    0 -0.26126083161E+02 -0.13671568931E+02  0.12134177108E+02  0.31886082739E+02  0.00000000000E+00 0. -1.
         11    1    3    3    0    0  0.32203051289E+02  0.69982528485E+01 -0.94692584178E+01  0.34288174500E+02  0.51100000000E-03 0. -1.
        -11    1    3    3    0    0 -0.97793762947E+01  0.11760470537E+02 -0.75414253699E+01  0.17053385730E+02  0.51100000000E-03 0.  1.
         12    1    3    3    0    0  0.37024081661E+01 -0.50871544551E+01  0.48765066794E+01  0.79603570317E+01  0.00000000000E+00 0. -1.
</event>
<event>
 7    1  0.4237994E-013  0.5930192E+02  0.7816164E-02  0.1266605E+00
        -11   -1    0    0    0    0  0.00000000000E+00  0.00000000000E+00  0.45593999997E+02  0.45594000000E+02  0.51100000000E-03 0.  1.
         11   -1    0    0    0    0 -0.00000000000E+00 -0.00000000000E+00 -0.45593999997E+02  0.45594000000E+02  0.51100000000E-03 0. -1.
    9900012    2    1    2    0    0  0.69883048575E+01  0.27355198026E+02  0.14818187125E+02  0.59301922576E+02  0.49999960876E+02 0.  0.
         12    1    1    2    0    0 -0.69883048575E+01 -0.27355198026E+02 -0.14818187125E+02  0.31886077424E+02  0.00000000000E+00 0. -1.
         11    1    3    3    0    0 -0.12641479831E+02  0.17010732280E+02  0.22460691421E+02  0.30881299914E+02  0.51100000000E-03 0.  1.
        -11    1    3    3    0    0  0.18881231831E+02  0.21058649370E+01 -0.41801234984E+01  0.19452737990E+02  0.51100000000E-03 0. -1.
        -12    1    3    3    0    0  0.74855285714E+00  0.82386008098E+01 -0.34623807980E+01  0.89678846711E+01  0.00000000000E+00 0.  1.
</event>
<event>
 7    1  0.4237994E-013  0.5930194E+02  0.7816164E-02  0.1266605E+00
        -11   -1    0    0    0    0  0.00000000000E+00  0.00000000000E+00  0.45593999997E+02  0.45594000000E+02  0.51100000000E-03 0. -1.
         11   -1    0    0    0    0 -0.00000000000E+00 -0.00000000000E+00 -0.45593999997E+02  0.45594000000E+02  0.51100000000E-03 0.  1.
    9900012    2    1    2    0    0 -0.27410925714E+02  0.45552220851E+01  0.15640077750E+02  0.59301938330E+02  0.49999989610E+02 0.  0.
         12    1    1    2    0    0  0.27410925714E+02 -0.45552220851E+01 -0.15640077750E+02  0.31886061670E+02  0.00000000000E+00 0. -1.
         11    1    3    3    0    0 -0.29114627988E+02 -0.44629619288E+01  0.23809665462E+02  0.37874526555E+02  0.51100000000E-03 0. -1.
        -11    1    3    3    0    0  0.90005855441E+00 -0.40706302774E+01 -0.71471251831E+01  0.82741485907E+01  0.51100000000E-03 0.  1.
         12    1    3    3    0    0  0.80364371955E+00  0.13088814291E+02 -0.10224625292E+01  0.13153263185E+02  0.00000000000E+00 0. -1.
</event>
<event>
 7    1  0.4237994E-013  0.5930196E+02  0.7816164E-02  0.1266605E+00
        -11   -1    0    0    0    0  0.00000000000E+00  0.00000000000E+00  0.45593999997E+02  0.45594000000E+02  0.51100000000E-03 0.  1.
         11   -1    0    0    0    0 -0.00000000000E+00 -0.00000000000E+00 -0.45593999997E+02  0.45594000000E+02  0.51100000000E-03 0. -1.
    9900012    2    1    2    0    0  0.28718485417E+02  0.89522631444E+01  0.10574745513E+02  0.59301958184E+02  0.50000025818E+02 0.  0.
         12    1    1    2    0    0 -0.28718485417E+02 -0.89522631444E+01 -0.10574745513E+02  0.31886041816E+02  0.00000000000E+00 0. -1.
         11    1    3    3    0    0 -0.46191701813E+01 -0.50769329161E+01  0.10382107581E+02  0.12445888441E+02  0.51100000000E-03 0. -1.
        -11    1    3    3    0    0  0.31915481042E+02  0.18696404782E+02  0.78157228014E+01  0.37805277477E+02  0.51100000000E-03 0.  1.
         12    1    3    3    0    0  0.14221745556E+01 -0.46672087213E+01 -0.76230848697E+01  0.90507922662E+01  0.00000000000E+00 0. -1.
</event>
<event>
 7    1  0.4237994E-013  0.5930193E+02  0.7816164E-02  0.1266605E+00
        -11   -1    0    0    0    0  0.00000000000E+00  0.00000000000E+00  0.45593999997E+02  0.45594000000E+02  0.51100000000E-03 0.  1.
         11   -1    0    0    0    0 -0.00000000000E+00 -0.00000000000E+00 -0.45593999997E+02  0.45594000000E+02  0.51100000000E-03 0. -1.
    9900012    2    1    2    0    0 -0.24762916164E+02  0.14450442388E+02  0.13953649660E+02  0.59301927163E+02  0.49999969242E+02 0.  0.
         12    1    1    2    0    0  0.24762916164E+02 -0.14450442388E+02 -0.13953649660E+02  0.31886072837E+02  0.00000000000E+00 0. -1.
         11    1    3    3    0    0 -0.21327145889E+02  0.23096560207E+02 -0.68115706853E+01  0.32166686814E+02  0.51100000000E-03 0. -1.
        -11    1    3    3    0    0 -0.26064531889E+01 -0.18774500732E+01  0.20019195447E+02  0.20275270740E+02  0.51100000000E-03 0.  1.
         12    1    3    3    0    0 -0.82931708647E+00 -0.67686677452E+01  0.74602489870E+00  0.68599696081E+01  0.00000000000E+00 0. -1.
</event>
<event>
 7    1  0.4237994E-013  0.5930194E+02  0.7816164E-02  0.1266605E+00
        -11   -1    0    0    0    0  0.00000000000E+00  0.00000000000E+00  0.45593999997E+02  0.45594000000E+02  0.51100000000E-03 0. -1.
         11   -1    0    0    0    0 -0.00000000000E+00 -0.00000000000E+00 -0.45593999997E+02  0.45594000000E+02  0.51100000000E-03 0.  1.
    9900012    2    1    2    0    0 -0.38081768524E+01  0.32984854735E+01 -0.31485529068E+02  0.59301941007E+02  0.49999994492E+02 0.  0.
         12    1    1    2    0    0  0.38081768524E+01 -0.32984854735E+01  0.31485529068E+02  0.31886058993E+02  0.00000000000E+00 0. -1.
         11    1    3    3    0    0 -0.54354122696E+00  0.95045739057E+01 -0.13075194918E+01  0.96094729135E+01  0.51100000000E-03 0. -1.
        -11    1    3    3    0    0  0.86420096058E+00 -0.20576951908E+02 -0.27729591424E+02  0.34541106437E+02  0.51100000000E-03 0.  1.
        -12    1    3    3    0    0 -0.41288365860E+01  0.14370863476E+02 -0.24484181527E+01  0.15151361656E+02  0.00000000000E+00 0.  1.
</event>
<event>
 7    1  0.4237994E-013  0.5930194E+02  0.7816164E-02  0.1266605E+00
        -11   -1    0    0    0    0  0.00000000000E+00  0.00000000000E+00  0.45593999997E+02  0.45594000000E+02  0.51100000000E-03 0.  1.
         11   -1    0    0    0    0 -0.00000000000E+00 -0.00000000000E+00 -0.45593999997E+02  0.45594000000E+02  0.51100000000E-03 0. -1.
    9900012    2    1    2    0    0  0.80956821127E+01  0.73829857585E+01  0.29944485738E+02  0.59301940763E+02  0.49999994046E+02 0.  0.
         12    1    1    2    0    0 -0.80956821127E+01 -0.73829857585E+01 -0.29944485738E+02  0.31886059237E+02  0.00000000000E+00 0. -1.
         11    1    3    3    0    0 -0.10328199373E+02 -0.13499180434E+01  0.32469864523E+02  0.34099649315E+02  0.51100000000E-03 0. -1.
        -11    1    3    3    0    0 -0.97064390203E+00  0.27400670254E+01 -0.38911738961E+01  0.48570929000E+01  0.51100000000E-03 0.  1.
         12    1    3    3    0    0  0.19394525388E+02  0.59928367765E+01  0.13657951107E+01  0.20345198548E+02  0.00000000000E+00 0. -1.
</event>
<event>
 7    1  0.4237994E-013  0.5930195E+02  0.7816164E-02  0.1266605E+00
        -11   -1    0    0    0    0  0.00000000000E+00  0.00000000000E+00  0.45593999997E+02  0.45594000000E+02  0.51100000000E-03 0. -1.
         11   -1    0    0    0    0 -0.00000000000E+00 -0.00000000000E+00 -0.45593999997E+02  0.45594000000E+02  0.51100000000E-03 0.  1.
    9900012    2    1    2    0    0 -0.20276975059E+02 -0.24466821636E+02 -0.26342135189E+01  0.59301950395E+02  0.50000011613E+02 0.  0.
         12    1    1    2    0    0  0.20276975059E+02  0.24466821636E+02  0.26342135189E+01  0.31886049605E+02  0.00000000000E+00 0. -1.
         11    1    3    3    0    0 -0.12558787756E+02  0.71316804802E+01 -0.39512501371E+01  0.14973189182E+02  0.51100000000E-03 0. -1.
        -11    1    3    3    0    0  0.19850292442E+01 -0.34192859009E+02  0.14963803073E+01  0.34283102290E+02  0.51100000000E-03 0.  1.
        -12    1    3    3    0    0 -0.97032165472E+01  0.25943568930E+01 -0.17934368897E+00  0.10045658924E+02  0.00000000000E+00 0.  1.
</event>
<event>
 7    1  0.4237994E-013  0.5930217E+02  0.7816164E-02  0.1266604E+00
        -11   -1    0    0    0    0  0.00000000000E+00  0.00000000000E+00  0.45593999997E+02  0.45594000000E+02  0.51100000000E-03 0.  1.
         11   -1    0    0    0    0 -0.00000000000E+00 -0.00000000000E+00 -0.45593999997E+02  0.45594000000E+02  0.51100000000E-03 0. -1.
    9900012    2    1    2    0    0 -0.22482021124E+02  0.56367291316E+01  0.21897316562E+02  0.59302165187E+02  0.50000403340E+02 0.  0.
         12    1    1    2    0    0  0.22482021124E+02 -0.56367291316E+01 -0.21897316562E+02  0.31885834813E+02  0.00000000000E+00 0. -1.
         11    1    3    3    0    0 -0.14922532267E+01 -0.89806562839E+01 -0.94065117758E+01  0.13090510725E+02  0.51100000000E-03 0. -1.
        -11    1    3    3    0    0 -0.63383563544E+01 -0.47058162481E+01  0.15122081038E+02  0.17058628404E+02  0.51100000000E-03 0.  1.
         12    1    3    3    0    0 -0.14651411542E+02  0.19323201664E+02  0.16181747300E+02  0.29153026059E+02  0.00000000000E+00 0. -1.
</event>
<event>
 7    1  0.4237994E-013  0.5930196E+02  0.7816164E-02  0.1266605E+00
        -11   -1    0    0    0    0  0.00000000000E+00  0.00000000000E+00  0.45593999997E+02  0.45594000000E+02  0.51100000000E-03 0.  1.
         11   -1    0    0    0    0 -0.00000000000E+00 -0.00000000000E+00 -0.45593999997E+02  0.45594000000E+02  0.51100000000E-03 0. -1.
    9900012    2    1    2    0    0 -0.48800220491E+01 -0.24709886117E+02  0.19553164522E+02  0.59301963401E+02  0.50000035333E+02 0.  0.
         12    1    1    2    0    0  0.48800220491E+01  0.24709886117E+02 -0.19553164522E+02  0.31886036599E+02  0.00000000000E+00 0. -1.
         11    1    3    3    0    0 -0.97823138872E+01  0.40334120296E+01  0.48533234745E+01  0.11641169469E+02  0.51100000000E-03 0. -1.
        -11    1    3    3    0    0  0.19642171504E+02 -0.18966724274E+02  0.60296128547E+01  0.27962613657E+02  0.51100000000E-03 0.  1.
        -12    1    3    3    0    0 -0.14739879666E+02 -0.97765738724E+01  0.86702281932E+01  0.19698180276E+02  0.00000000000E+00 0.  1.
</event>
<event>
 7    1  0.4237994E-013  0.5930177E+02  0.7816164E-02  0.1266605E+00
        -11   -1    0    0    0    0  0.00000000000E+00  0.00000000000E+00  0.45593999997E+02  0.45594000000E+02  0.51100000000E-03 0.  1.
         11   -1    0    0    0    0 -0.00000000000E+00 -0.00000000000E+00 -0.45593999997E+02  0.45594000000E+02  0.51100000000E-03 0. -1.
    9900012    2    1    2    0    0 -0.52488796143E+00  0.29827373139E+02 -0.11259827826E+02  0.59301773845E+02  0.49999689626E+02 0.  0.
         12    1    1    2    0    0  0.52488796143E+00 -0.29827373139E+02  0.11259827826E+02  0.31886226155E+02  0.00000000000E+00 0. -1.
         11    1    3    3    0    0  0.16671730798E+02  0.33466546226E+02 -0.12046480331E+02  0.39281980764E+02  0.51100000000E-03 0. -1.
        -11    1    3    3    0    0 -0.15852026747E+02 -0.44832475122E+01 -0.22170782428E+01  0.16622325242E+02  0.51100000000E-03 0.  1.
        -12    1    3    3    0    0 -0.13445920125E+01  0.84407442509E+00  0.30037307473E+01  0.33974678391E+01  0.00000000000E+00 0.  1.
</event>
<event>
 7    1  0.4237994E-013  0.5930183E+02  0.7816164E-02  0.1266605E+00
        -11   -1    0    0    0    0  0.00000000000E+00  0.00000000000E+00  0.45593999997E+02  0.45594000000E+02  0.51100000000E-03 0.  1.
         11   -1    0    0    0    0 -0.00000000000E+00 -0.00000000000E+00 -0.45593999997E+02  0.45594000000E+02  0.51100000000E-03 0. -1.
    9900012    2    1    2    0    0  0.63849305334E+01 -0.26373616745E+02  0.16744941984E+02  0.59301826191E+02  0.49999785094E+02 0.  0.
         12    1    1    2    0    0 -0.63849305334E+01  0.26373616745E+02 -0.16744941984E+02  0.31886173809E+02  0.00000000000E+00 0. -1.
         11    1    3    3    0    0 -0.77688408650E+01 -0.48244080143E+01 -0.28305722665E+01  0.95729797185E+01  0.51100000000E-03 0. -1.
        -11    1    3    3    0    0  0.40378179400E+01 -0.17446200533E+02  0.29803527852E+02  0.34769586703E+02  0.51100000000E-03 0.  1.
        -12    1    3    3    0    0  0.10115953458E+02 -0.41030081972E+01 -0.10228013602E+02  0.14959259770E+02  0.00000000000E+00 0.  1.
</event>
<event>
 7    1  0.4237994E-013  0.5930193E+02  0.7816164E-02  0.1266605E+00
        -11   -1    0    0    0    0  0.00000000000E+00  0.00000000000E+00  0.45593999997E+02  0.45594000000E+02  0.51100000000E-03 0. -1.
         11   -1    0    0    0    0 -0.00000000000E+00 -0.00000000000E+00 -0.45593999997E+02  0.45594000000E+02  0.51100000000E-03 0.  1.
    9900012    2    1    2    0    0  0.13274476242E+02 -0.24761264807E+02 -0.15079429566E+02  0.59301934856E+02  0.49999983273E+02 0.  0.
         12    1    1    2    0    0 -0.13274476242E+02  0.24761264807E+02  0.15079429566E+02  0.31886065144E+02  0.00000000000E+00 0. -1.
         11    1    3    3    0    0  0.21323565095E+02 -0.11759360149E+02 -0.47297382439E+01  0.24806196878E+02  0.51100000000E-03 0. -1.
        -11    1    3    3    0    0 -0.11448345240E+02 -0.55194998157E+01 -0.18809791655E+02  0.22701051722E+02  0.51100000000E-03 0.  1.
         12    1    3    3    0    0  0.33992563872E+01 -0.74824048425E+01  0.84601003334E+01  0.11794686255E+02  0.00000000000E+00 0. -1.
</event>
<event>
 7    1  0.4237994E-013  0.5930195E+02  0.7816164E-02  0.1266605E+00
        -11   -1    0    0    0    0  0.00000000000E+00  0.00000000000E+00  0.45593999997E+02  0.45594000000E+02  0.51100000000E-03 0.  1.
         11   -1    0    0    0    0 -0.00000000000E+00 -0.00000000000E+00 -0.45593999997E+02  0.45594000000E+02  0.51100000000E-03 0. -1.
    9900012    2    1    2    0    0  0.21607754548E+01 -0.18124412332E+02  0.26144916792E+02  0.59301953726E+02  0.50000017687E+02 0.  0.
         12    1    1    2    0    0 -0.21607754548E+01  0.18124412332E+02 -0.26144916792E+02  0.31886046274E+02  0.00000000000E+00 0. -1.
         11    1    3    3    0    0  0.16059347445E+01 -0.31892459004E+02  0.48668313444E+01  0.32301610104E+02  0.51100000000E-03 0.  1.
        -11    1    3    3    0    0  0.18058576186E+01  0.21929266978E+01  0.11135443024E+00  0.28429648803E+01  0.51100000000E-03 0. -1.
         12    1    3    3    0    0 -0.12510169083E+01  0.11575119974E+02  0.21166731017E+02  0.24157378742E+02  0.00000000000E+00 0. -1.
</event>
<event>
 7    1  0.4237994E-013  0.5930188E+02  0.7816164E-02  0.1266605E+00
        -11   -1    0    0    0    0  0.00000000000E+00  0.00000000000E+00  0.45593999997E+02  0.45594000000E+02  0.51100000000E-03 0.  1.
         11   -1    0    0    0    0 -0.00000000000E+00 -0.00000000000E+00 -0.45593999997E+02  0.45594000000E+02  0.51100000000E-03 0. -1.
    9900012    2    1    2    0    0  0.74876680521E+01 -0.30788552757E+02  0.35671053494E+01  0.59301883989E+02  0.49999890503E+02 0.  0.
         12    1    1    2    0    0 -0.74876680521E+01  0.30788552757E+02 -0.35671053494E+01  0.31886116011E+02  0.00000000000E+00 0. -1.
         11    1    3    3    0    0  0.21930421062E+02 -0.17271105132E+02 -0.11263723238E+02  0.30101593012E+02  0.51100000000E-03 0. -1.
        -11    1    3    3    0    0 -0.68606089596E+01 -0.15234754517E+02  0.68472146721E+01  0.18056856025E+02  0.51100000000E-03 0.  1.
         12    1    3    3    0    0 -0.75821440500E+01  0.17173068926E+01  0.79836139152E+01  0.11143434951E+02  0.00000000000E+00 0. -1.
</event>
<event>
 7    1  0.4237994E-013  0.5930184E+02  0.7816164E-02  0.1266605E+00
        -11   -1    0    0    0    0  0.00000000000E+00  0.00000000000E+00  0.45593999997E+02  0.45594000000E+02  0.51100000000E-03 0. -1.
         11   -1    0    0    0    0 -0.00000000000E+00 -0.00000000000E+00 -0.45593999997E+02  0.45594000000E+02  0.51100000000E-03 0.  1.
    9900012    2    1    2    0    0 -0.19214419522E+02  0.35865517009E+01 -0.25192656835E+02  0.59301839537E+02  0.49999809433E+02 0.  0.
         12    1    1    2    0    0  0.19214419522E+02 -0.35865517009E+01  0.25192656835E+02  0.31886160463E+02  0.00000000000E+00 0. -1.
         11    1    3    3    0    0  0.14564456872E+02 -0.49915800324E+00 -0.55265905145E+01  0.15585755217E+02  0.51100000000E-03 0. -1.
        -11    1    3    3    0    0 -0.18221492243E+02  0.94927437553E+01 -0.17719090108E+02  0.27131183499E+02  0.51100000000E-03 0.  1.
         12    1    3    3    0    0 -0.15557384151E+02 -0.54070340512E+01 -0.19469762131E+01  0.16584900821E+02  0.00000000000E+00 0. -1.
</event>
<event>
 7    1  0.4237994E-013  0.5930195E+02  0.7816164E-02  0.1266605E+00
        -11   -1    0    0    0    0  0.00000000000E+00  0.00000000000E+00  0.45593999997E+02  0.45594000000E+02  0.51100000000E-03 0. -1.
         11   -1    0    0    0    0 -0.00000000000E+00 -0.00000000000E+00 -0.45593999997E+02  0.45594000000E+02  0.51100000000E-03 0.  1.
    9900012    2    1    2    0    0  0.19057814190E+02 -0.84738324509E+01 -0.24118744615E+02  0.59301953523E+02  0.50000017318E+02 0.  0.
         12    1    1    2    0    0 -0.19057814190E+02  0.84738324509E+01  0.24118744615E+02  0.31886046477E+02  0.00000000000E+00 0. -1.
         11    1    3    3    0    0  0.27387084608E+02  0.76264590010E+01 -0.14775654155E+02  0.32039588577E+02  0.51100000000E-03 0. -1.
        -11    1    3    3    0    0 -0.51504470656E+01 -0.11521230250E+02  0.36388998809E+01  0.13134208924E+02  0.51100000000E-03 0.  1.
         12    1    3    3    0    0 -0.31788233519E+01 -0.45790612018E+01 -0.12981990341E+02  0.14128156022E+02  0.00000000000E+00 0. -1.
</event>
<event>
 7    1  0.4237994E-013  0.5930195E+02  0.7816164E-02  0.1266605E+00
        -11   -1    0    0    0    0  0.00000000000E+00  0.00000000000E+00  0.45593999997E+02  0.45594000000E+02  0.51100000000E-03 0. -1.
         11   -1    0    0    0    0 -0.00000000000E+00 -0.00000000000E+00 -0.45593999997E+02  0.45594000000E+02  0.51100000000E-03 0.  1.
    9900012    2    1    2    0    0  0.52835381152E+01  0.16565333346E+02 -0.26728149334E+02  0.59301952727E+02  0.50000015866E+02 0.  0.
         12    1    1    2    0    0 -0.52835381152E+01 -0.16565333346E+02  0.26728149334E+02  0.31886047273E+02  0.00000000000E+00 0. -1.
         11    1    3    3    0    0  0.18434981861E+01  0.10065731148E+02  0.44133589012E+01  0.11144288500E+02  0.51100000000E-03 0. -1.
        -11    1    3    3    0    0  0.15667419313E+02 -0.86347709837E+00 -0.29979060354E+02  0.33837223299E+02  0.51100000000E-03 0.  1.
        -12    1    3    3    0    0 -0.12227379384E+02  0.73630792960E+01 -0.11624478809E+01  0.14320440929E+02  0.00000000000E+00 0.  1.
</event>
<event>
 7    1  0.4237994E-013  0.5930194E+02  0.7816164E-02  0.1266605E+00
        -11   -1    0    0    0    0  0.00000000000E+00  0.00000000000E+00  0.45593999997E+02  0.45594000000E+02  0.51100000000E-03 0.  1.
         11   -1    0    0    0    0 -0.00000000000E+00 -0.00000000000E+00 -0.45593999997E+02  0.45594000000E+02  0.51100000000E-03 0. -1.
    9900012    2    1    2    0    0  0.29624812929E+02  0.11215350111E+02  0.36479092327E+01  0.59301939394E+02  0.49999991549E+02 0.  0.
         12    1    1    2    0    0 -0.29624812929E+02 -0.11215350111E+02 -0.36479092327E+01  0.31886060606E+02  0.00000000000E+00 0. -1.
         11    1    3    3    0    0  0.24780047175E+02  0.13026531758E+02  0.21576747240E+02  0.35345399833E+02  0.51100000000E-03 0.  1.
        -11    1    3    3    0    0 -0.46402055339E+01  0.50813442843E+00 -0.16068242232E+01  0.49367592953E+01  0.51100000000E-03 0. -1.
         12    1    3    3    0    0  0.94849712885E+01 -0.23193160751E+01 -0.16322013784E+02  0.19019780266E+02  0.00000000000E+00 0. -1.
</event>
<event>
 7    1  0.4237994E-013  0.5930201E+02  0.7816164E-02  0.1266605E+00
        -11   -1    0    0    0    0  0.00000000000E+00  0.00000000000E+00  0.45593999997E+02  0.45594000000E+02  0.51100000000E-03 0.  1.
         11   -1    0    0    0    0 -0.00000000000E+00 -0.00000000000E+00 -0.45593999997E+02  0.45594000000E+02  0.51100000000E-03 0. -1.
    9900012    2    1    2    0    0 -0.26450180910E+02 -0.16200161926E+02 -0.73931710112E+01  0.59302011005E+02  0.50000122150E+02 0.  0.
         12    1    1    2    0    0  0.26450180910E+02  0.16200161926E+02  0.73931710112E+01  0.31885988995E+02  0.00000000000E+00 0. -1.
         11    1    3    3    0    0 -0.60907723685E+01  0.16702786614E+02 -0.34827949000E+01  0.18116579404E+02  0.51100000000E-03 0. -1.
        -11    1    3    3    0    0 -0.10006330953E+02 -0.55549287780E+01  0.11730203055E+01  0.11504775955E+02  0.51100000000E-03 0.  1.
         12    1    3    3    0    0 -0.10353077589E+02 -0.27348019762E+02 -0.50833964167E+01  0.29680655646E+02  0.00000000000E+00 0. -1.
</event>
<event>
 7    1  0.4237994E-013  0.5930189E+02  0.7816164E-02  0.1266605E+00
        -11   -1    0    0    0    0  0.00000000000E+00  0.00000000000E+00  0.45593999997E+02  0.45594000000E+02  0.51100000000E-03 0.  1.
         11   -1    0    0    0    0 -0.00000000000E+00 -0.00000000000E+00 -0.45593999997E+02  0.45594000000E+02  0.51100000000E-03 0. -1.
    9900012    2    1    2    0    0  0.26307552704E+02 -0.31762311758E+01  0.17735502012E+02  0.59301893223E+02  0.49999907345E+02 0.  0.
         12    1    1    2    0    0 -0.26307552704E+02  0.31762311758E+01 -0.17735502012E+02  0.31886106777E+02  0.00000000000E+00 0. -1.
         11    1    3    3    0    0  0.85583094968E+00 -0.18407352364E+02  0.62689248330E+01  0.19464390216E+02  0.51100000000E-03 0. -1.
        -11    1    3    3    0    0  0.14113376979E+02  0.18927225378E+02  0.14269375246E+02  0.27586995858E+02  0.51100000000E-03 0.  1.
         12    1    3    3    0    0  0.11338344775E+02 -0.36961041902E+01 -0.28027980671E+01  0.12250507150E+02  0.00000000000E+00 0. -1.
</event>
<event>
 7    1  0.4237994E-013  0.5930194E+02  0.7816164E-02  0.1266605E+00
        -11   -1    0    0    0    0  0.00000000000E+00  0.00000000000E+00  0.45593999997E+02  0.45594000000E+02  0.51100000000E-03 0.  1.
         11   -1    0    0    0    0 -0.00000000000E+00 -0.00000000000E+00 -0.45593999997E+02  0.45594000000E+02  0.51100000000E-03 0. -1.
    9900012    2    1    2    0    0  0.13744813434E+02  0.25812761444E+02 -0.12708350811E+02  0.59301941447E+02  0.49999995293E+02 0.  0.
         12    1    1    2    0    0 -0.13744813434E+02 -0.25812761444E+02  0.12708350811E+02  0.31886058553E+02  0.00000000000E+00 0. -1.
         11    1    3    3    0    0 -0.94820134412E+01  0.16342360915E+02 -0.10214797288E+02  0.21478440890E+02  0.51100000000E-03 0. -1.
        -11    1    3    3    0    0  0.87413938879E+01 -0.88916136059E+01  0.47448351997E+01  0.13341147663E+02  0.51100000000E-03 0.  1.
        -12    1    3    3    0    0  0.14485432987E+02  0.18362014136E+02 -0.72383887226E+01  0.24482352894E+02  0.00000000000E+00 0.  1.
</event>
<event>
 7    1  0.4237994E-013  0.5930193E+02  0.7816164E-02  0.1266605E+00
        -11   -1    0    0    0    0  0.00000000000E+00  0.00000000000E+00  0.45593999997E+02  0.45594000000E+02  0.51100000000E-03 0.  1.
         11   -1    0    0    0    0 -0.00000000000E+00 -0.00000000000E+00 -0.45593999997E+02  0.45594000000E+02  0.51100000000E-03 0. -1.
    9900012    2    1    2    0    0  0.22109197436E+02  0.22883728990E+02  0.20590052944E+01  0.59301934602E+02  0.49999982809E+02 0.  0.
         12    1    1    2    0    0 -0.22109197436E+02 -0.22883728990E+02 -0.20590052944E+01  0.31886065398E+02  0.00000000000E+00 0. -1.
         11    1    3    3    0    0 -0.39619957044E+01 -0.68928000599E+01 -0.13843455280E+01  0.80699761728E+01  0.51100000000E-03 0. -1.
        -11    1    3    3    0    0  0.11791925504E+02  0.18364025492E+02 -0.14029748878E+02  0.25944571556E+02  0.51100000000E-03 0.  1.
        -12    1    3    3    0    0  0.14279267637E+02  0.11412503558E+02  0.17473099701E+02  0.25287386873E+02  0.00000000000E+00 0.  1.
</event>
<event>
 7    1  0.4237994E-013  0.5930191E+02  0.7816164E-02  0.1266605E+00
        -11   -1    0    0    0    0  0.00000000000E+00  0.00000000000E+00  0.45593999997E+02  0.45594000000E+02  0.51100000000E-03 0. -1.
         11   -1    0    0    0    0 -0.00000000000E+00 -0.00000000000E+00 -0.45593999997E+02  0.45594000000E+02  0.51100000000E-03 0.  1.
    9900012    2    1    2    0    0  0.21588729513E+02 -0.23464291072E+02 -0.27647773945E+00  0.59301911537E+02  0.49999940745E+02 0.  0.
         12    1    1    2    0    0 -0.21588729513E+02  0.23464291072E+02  0.27647773945E+00  0.31886088463E+02  0.00000000000E+00 0. -1.
         11    1    3    3    0    0 -0.25315901876E+01  0.76430199245E+01 -0.83597796073E+01  0.11606490330E+02  0.51100000000E-03 0. -1.
        -11    1    3    3    0    0  0.54950981118E+01 -0.15440300778E+02 -0.82858602924E+01  0.18364489441E+02  0.51100000000E-03 0.  1.
         12    1    3    3    0    0  0.18625221589E+02 -0.15667010219E+02  0.16369162160E+02  0.29330931766E+02  0.00000000000E+00 0. -1.
</event>
<event>
 7    1  0.4237994E-013  0.5930192E+02  0.7816164E-02  0.1266605E+00
        -11   -1    0    0    0    0  0.00000000000E+00  0.00000000000E+00  0.45593999997E+02  0.45594000000E+02  0.51100000000E-03 0. -1.
         11   -1    0    0    0    0 -0.00000000000E+00 -0.00000000000E+00 -0.45593999997E+02  0.45594000000E+02  0.51100000000E-03 0.  1.
    9900012    2    1    2    0    0 -0.14924589457E+02 -0.10855187703E+02 -0.26002759800E+02  0.59301921725E+02  0.49999959326E+02 0.  0.
         12    1    1    2    0    0  0.14924589457E+02  0.10855187703E+02  0.26002759800E+02  0.31886078275E+02  0.00000000000E+00 0. -1.
         11    1    3    3    0    0 -0.93745480945E+01 -0.20793085019E+02 -0.11167995913E+02  0.25396036493E+02  0.51100000000E-03 0. -1.
        -11    1    3    3    0    0  0.72696448153E+01  0.13875874237E+02 -0.28537946643E+01  0.15922680862E+02  0.51100000000E-03 0.  1.
        -12    1    3    3    0    0 -0.12819686178E+02 -0.39379769207E+01 -0.11980969223E+02  0.17983204371E+02  0.00000000000E+00 0.  1.
</event>
<event>
 7    1  0.4237994E-013  0.5930193E+02  0.7816164E-02  0.1266605E+00
        -11   -1    0    0    0    0  0.00000000000E+00  0.00000000000E+00  0.45593999997E+02  0.45594000000E+02  0.51100000000E-03 0.  1.
         11   -1    0    0    0    0 -0.00000000000E+00 -0.00000000000E+00 -0.45593999997E+02  0.45594000000E+02  0.51100000000E-03 0. -1.
    9900012    2    1    2    0    0  0.18853970113E+02 -0.10145503168E+02  0.23628756999E+02  0.59301928105E+02  0.49999970961E+02 0.  0.
         12    1    1    2    0    0 -0.18853970113E+02  0.10145503168E+02 -0.23628756999E+02  0.31886071895E+02  0.00000000000E+00 0. -1.
         11    1    3    3    0    0  0.18671118459E+02 -0.99401603929E+01  0.14418413269E+01  0.21201329199E+02  0.51100000000E-03 0. -1.
        -11    1    3    3    0    0 -0.41321802137E+01  0.37379479666E+01  0.28765512347E+02  0.29300202545E+02  0.51100000000E-03 0.  1.
         12    1    3    3    0    0  0.43150318674E+01 -0.39432907421E+01 -0.65785966749E+01  0.88003963606E+01  0.00000000000E+00 0. -1.
</event>
<event>
 7    1  0.4237994E-013  0.5930194E+02  0.7816164E-02  0.1266605E+00
        -11   -1    0    0    0    0  0.00000000000E+00  0.00000000000E+00  0.45593999997E+02  0.45594000000E+02  0.51100000000E-03 0.  1.
         11   -1    0    0    0    0 -0.00000000000E+00 -0.00000000000E+00 -0.45593999997E+02  0.45594000000E+02  0.51100000000E-03 0. -1.
    9900012    2    1    2    0    0 -0.30298753614E+02  0.96859250635E+01  0.22111958216E+01  0.59301937185E+02  0.49999987520E+02 0.  0.
         12    1    1    2    0    0  0.30298753614E+02 -0.96859250635E+01 -0.22111958216E+01  0.31886062815E+02  0.00000000000E+00 0. -1.
         11    1    3    3    0    0 -0.21578239659E+01  0.21704570291E+02  0.11052713176E+02  0.24452137833E+02  0.51100000000E-03 0. -1.
        -11    1    3    3    0    0 -0.20715341282E+02 -0.14706437634E+02 -0.89978847538E+01  0.26951189261E+02  0.51100000000E-03 0.  1.
        -12    1    3    3    0    0 -0.74255883665E+01  0.26877924062E+01  0.15636739932E+00  0.78986100911E+01  0.00000000000E+00 0.  1.
</event>
<event>
 7    1  0.4237994E-013  0.5930194E+02  0.7816164E-02  0.1266605E+00
        -11   -1    0    0    0    0  0.00000000000E+00  0.00000000000E+00  0.45593999997E+02  0.45594000000E+02  0.51100000000E-03 0.  1.
         11   -1    0    0    0    0 -0.00000000000E+00 -0.00000000000E+00 -0.45593999997E+02  0.45594000000E+02  0.51100000000E-03 0. -1.
    9900012    2    1    2    0    0 -0.14801249626E+02 -0.24052762802E+02  0.14802308144E+02  0.59301941679E+02  0.49999995716E+02 0.  0.
         12    1    1    2    0    0  0.14801249626E+02  0.24052762802E+02 -0.14802308144E+02  0.31886058321E+02  0.00000000000E+00 0. -1.
         11    1    3    3    0    0 -0.12324639509E+01 -0.31109918788E+02  0.14108048959E+02  0.34181618746E+02  0.51100000000E-03 0.  1.
        -11    1    3    3    0    0 -0.67899988345E+01  0.13721481970E+02  0.22943311415E+01  0.15480539631E+02  0.51100000000E-03 0. -1.
         12    1    3    3    0    0 -0.67787868405E+01 -0.66643259833E+01 -0.16000719566E+01  0.96397833019E+01  0.00000000000E+00 0. -1.
</event>
<event>
 7    1  0.4237994E-013  0.5930195E+02  0.7816164E-02  0.1266605E+00
        -11   -1    0    0    0    0  0.00000000000E+00  0.00000000000E+00  0.45593999997E+02  0.45594000000E+02  0.51100000000E-03 0.  1.
         11   -1    0    0    0    0 -0.00000000000E+00 -0.00000000000E+00 -0.45593999997E+02  0.45594000000E+02  0.51100000000E-03 0. -1.
    9900012    2    1    2    0    0 -0.12187721265E+02  0.28576083319E+02 -0.71824244194E+01  0.59301948065E+02  0.50000007362E+02 0.  0.
         12    1    1    2    0    0  0.12187721265E+02 -0.28576083319E+02  0.71824244194E+01  0.31886051935E+02  0.00000000000E+00 0. -1.
         11    1    3    3    0    0  0.53458054956E+01  0.10827554800E+02  0.16828413436E+02  0.20712534330E+02  0.51100000000E-03 0. -1.
        -11    1    3    3    0    0 -0.11188977389E+02  0.33960257097E+00 -0.57918417096E+01  0.12603728638E+02  0.51100000000E-03 0.  1.
         12    1    3    3    0    0 -0.63445493712E+01  0.17408925948E+02 -0.18218996146E+02  0.25985685096E+02  0.00000000000E+00 0. -1.
</event>
<event>
 7    1  0.4237994E-013  0.5930202E+02  0.7816164E-02  0.1266604E+00
        -11   -1    0    0    0    0  0.00000000000E+00  0.00000000000E+00  0.45593999997E+02  0.45594000000E+02  0.51100000000E-03 0.  1.
         11   -1    0    0    0    0 -0.00000000000E+00 -0.00000000000E+00 -0.45593999997E+02  0.45594000000E+02  0.51100000000E-03 0. -1.
    9900012    2    1    2    0    0  0.25694338233E+02  0.79204533296E+01  0.17140100174E+02  0.59302021386E+02  0.50000141083E+02 0.  0.
         12    1    1    2    0    0 -0.25694338233E+02 -0.79204533296E+01 -0.17140100174E+02  0.31885978614E+02  0.00000000000E+00 0. -1.
         11    1    3    3    0    0 -0.10548423982E+02  0.12788154890E+01  0.10374617340E+02  0.14850498402E+02  0.51100000000E-03 0. -1.
        -11    1    3    3    0    0  0.26663988443E+02 -0.43700271489E+01 -0.25458124145E+01  0.27139391630E+02  0.51100000000E-03 0.  1.
        -12    1    3    3    0    0  0.95787737723E+01  0.11011664990E+02  0.93112952487E+01  0.17312131354E+02  0.00000000000E+00 0.  1.
</event>
<event>
 7    1  0.4237994E-013  0.5930197E+02  0.7816164E-02  0.1266605E+00
        -11   -1    0    0    0    0  0.00000000000E+00  0.00000000000E+00  0.45593999997E+02  0.45594000000E+02  0.51100000000E-03 0.  1.
         11   -1    0    0    0    0 -0.00000000000E+00 -0.00000000000E+00 -0.45593999997E+02  0.45594000000E+02  0.51100000000E-03 0. -1.
    9900012    2    1    2    0    0 -0.73713959883E+01 -0.14862516796E+02  0.27230254352E+02  0.59301974277E+02  0.50000055168E+02 0.  0.
         12    1    1    2    0    0  0.73713959883E+01  0.14862516796E+02 -0.27230254352E+02  0.31886025723E+02  0.00000000000E+00 0. -1.
         11    1    3    3    0    0  0.84957008182E+01 -0.10129949437E+02 -0.87921427074E+01  0.15877486628E+02  0.51100000000E-03 0. -1.
        -11    1    3    3    0    0 -0.15154720253E+02  0.28808151675E+00  0.13370239970E+02  0.20211676180E+02  0.51100000000E-03 0.  1.
         12    1    3    3    0    0 -0.71237655363E+00 -0.50206488760E+01  0.22652157090E+02  0.23212811469E+02  0.00000000000E+00 0. -1.
</event>
<event>
 7    1  0.4237994E-013  0.5930194E+02  0.7816164E-02  0.1266605E+00
        -11   -1    0    0    0    0  0.00000000000E+00  0.00000000000E+00  0.45593999997E+02  0.45594000000E+02  0.51100000000E-03 0. -1.
         11   -1    0    0    0    0 -0.00000000000E+00 -0.00000000000E+00 -0.45593999997E+02  0.45594000000E+02  0.51100000000E-03 0.  1.
    9900012    2    1    2    0    0  0.54279256933E+01 -0.15079510458E+01 -0.31384458826E+02  0.59301944278E+02  0.50000000457E+02 0.  0.
         12    1    1    2    0    0 -0.54279256933E+01  0.15079510458E+01  0.31384458826E+02  0.31886055722E+02  0.00000000000E+00 0. -1.
         11    1    3    3    0    0  0.18032485789E+02 -0.77671211885E+01  0.17082279983E+01  0.19708291616E+02  0.51100000000E-03 0. -1.
        -11    1    3    3    0    0 -0.22595503549E+01  0.10355152368E+02 -0.15471244484E+02  0.18753510459E+02  0.51100000000E-03 0.  1.
         12    1    3    3    0    0 -0.10345009740E+02 -0.40959822253E+01 -0.17621442340E+02  0.20840142203E+02  0.00000000000E+00 0. -1.
</event>
<event>
 7    1  0.4237994E-013  0.5930195E+02  0.7816164E-02  0.1266605E+00
        -11   -1    0    0    0    0  0.00000000000E+00  0.00000000000E+00  0.45593999997E+02  0.45594000000E+02  0.51100000000E-03 0.  1.
         11   -1    0    0    0    0 -0.00000000000E+00 -0.00000000000E+00 -0.45593999997E+02  0.45594000000E+02  0.51100000000E-03 0. -1.
    9900012    2    1    2    0    0  0.14393716708E+02 -0.53366036099E+01  0.27947479130E+02  0.59301952762E+02  0.50000015929E+02 0.  0.
         12    1    1    2    0    0 -0.14393716708E+02  0.53366036099E+01 -0.27947479130E+02  0.31886047238E+02  0.00000000000E+00 0. -1.
         11    1    3    3    0    0  0.15499219686E+02 -0.12248622255E+02  0.16351370441E+02  0.25644139166E+02  0.51100000000E-03 0. -1.
        -11    1    3    3    0    0 -0.95375576380E+01  0.11325692671E+02  0.17134967096E+02  0.22646046406E+02  0.51100000000E-03 0.  1.
        -12    1    3    3    0    0  0.84320546595E+01 -0.44136740261E+01 -0.55388584071E+01  0.11011767190E+02  0.00000000000E+00 0.  1.
</event>
<event>
 7    1  0.4237994E-013  0.5930196E+02  0.7816164E-02  0.1266605E+00
        -11   -1    0    0    0    0  0.00000000000E+00  0.00000000000E+00  0.45593999997E+02  0.45594000000E+02  0.51100000000E-03 0.  1.
         11   -1    0    0    0    0 -0.00000000000E+00 -0.00000000000E+00 -0.45593999997E+02  0.45594000000E+02  0.51100000000E-03 0. -1.
    9900012    2    1    2    0    0 -0.26766749148E+02  0.53154360604E+01  0.16492638395E+02  0.59301955377E+02  0.50000020699E+02 0.  0.
         12    1    1    2    0    0  0.26766749148E+02 -0.53154360604E+01 -0.16492638395E+02  0.31886044623E+02  0.00000000000E+00 0. -1.
         11    1    3    3    0    0 -0.26467894175E+02  0.22529171882E+01 -0.27035532664E+01  0.26700828797E+02  0.51100000000E-03 0. -1.
        -11    1    3    3    0    0  0.12585461002E+02  0.24712099803E+01  0.60386489262E+01  0.14176247336E+02  0.51100000000E-03 0.  1.
         12    1    3    3    0    0 -0.12884315975E+02  0.59130889194E+00  0.13157542735E+02  0.18424879244E+02  0.00000000000E+00 0. -1.
</event>
<event>
 7    1  0.4237994E-013  0.5930201E+02  0.7816164E-02  0.1266605E+00
        -11   -1    0    0    0    0  0.00000000000E+00  0.00000000000E+00  0.45593999997E+02  0.45594000000E+02  0.51100000000E-03 0. -1.
         11   -1    0    0    0    0 -0.00000000000E+00 -0.00000000000E+00 -0.45593999997E+02  0.45594000000E+02  0.51100000000E-03 0.  1.
    9900012    2    1    2    0    0 -0.46570816195E+01  0.32501149919E+01 -0.31376184859E+02  0.59302005693E+02  0.50000112462E+02 0.  0.
         12    1    1    2    0    0  0.46570816195E+01 -0.32501149919E+01  0.31376184859E+02  0.31885994307E+02  0.00000000000E+00 0. -1.
         11    1    3    3    0    0 -0.24010336856E+01  0.12225535025E+02 -0.18749229225E+02  0.22511380815E+02  0.51100000000E-03 0.  1.
        -11    1    3    3    0    0  0.78328047406E+01 -0.15857319641E+01  0.88585141685E+01  0.11930660061E+02  0.51100000000E-03 0. -1.
         12    1    3    3    0    0 -0.10088852675E+02 -0.73896880687E+01 -0.21485469803E+02  0.24859964817E+02  0.00000000000E+00 0. -1.
</event>
<event>
 7    1  0.4237994E-013  0.5930169E+02  0.7816164E-02  0.1266606E+00
        -11   -1    0    0    0    0  0.00000000000E+00  0.00000000000E+00  0.45593999997E+02  0.45594000000E+02  0.51100000000E-03 0.  1.
         11   -1    0    0    0    0 -0.00000000000E+00 -0.00000000000E+00 -0.45593999997E+02  0.45594000000E+02  0.51100000000E-03 0. -1.
    9900012    2    1    2    0    0 -0.54442366325E+01 -0.16757493751E+02  0.26575999733E+02  0.59301685206E+02  0.49999527969E+02 0.  0.
         12    1    1    2    0    0  0.54442366325E+01  0.16757493751E+02 -0.26575999733E+02  0.31886314794E+02  0.00000000000E+00 0. -1.
         11    1    3    3    0    0  0.15972918411E+02 -0.28155246105E+01  0.28866459393E+02  0.33110931420E+02  0.51100000000E-03 0.  1.
        -11    1    3    3    0    0 -0.17087374810E+02 -0.85229800152E+01 -0.24570159089E+01  0.19252441239E+02  0.51100000000E-03 0. -1.
        -12    1    3    3    0    0 -0.43297802329E+01 -0.54189891253E+01  0.16655624896E+00  0.69383125463E+01  0.00000000000E+00 0.  1.
</event>
<event>
 7    1  0.4237994E-013  0.5930192E+02  0.7816164E-02  0.1266605E+00
        -11   -1    0    0    0    0  0.00000000000E+00  0.00000000000E+00  0.45593999997E+02  0.45594000000E+02  0.51100000000E-03 0.  1.
         11   -1    0    0    0    0 -0.00000000000E+00 -0.00000000000E+00 -0.45593999997E+02  0.45594000000E+02  0.51100000000E-03 0. -1.
    9900012    2    1    2    0    0  0.28379466890E+02  0.34548397333E+01  0.14120628012E+02  0.59301918491E+02  0.49999953427E+02 0.  0.
         12    1    1    2    0    0 -0.28379466890E+02 -0.34548397333E+01 -0.14120628012E+02  0.31886081509E+02  0.00000000000E+00 0. -1.
         11    1    3    3    0    0  0.15570851993E+02  0.14633346510E+01  0.23701727449E+02  0.28396560785E+02  0.51100000000E-03 0.  1.
        -11    1    3    3    0    0  0.15615672292E+02  0.18407580532E+01 -0.16888996329E+02  0.23075437344E+02  0.51100000000E-03 0. -1.
        -12    1    3    3    0    0 -0.28070573954E+01  0.15074702911E+00  0.73078968926E+01  0.78299203623E+01  0.00000000000E+00 0.  1.
</event>
<event>
 7    1  0.4237994E-013  0.5930194E+02  0.7816164E-02  0.1266605E+00
        -11   -1    0    0    0    0  0.00000000000E+00  0.00000000000E+00  0.45593999997E+02  0.45594000000E+02  0.51100000000E-03 0.  1.
         11   -1    0    0    0    0 -0.00000000000E+00 -0.00000000000E+00 -0.45593999997E+02  0.45594000000E+02  0.51100000000E-03 0. -1.
    9900012    2    1    2    0    0 -0.27670444750E+02 -0.41858381096E+01  0.15282221239E+02  0.59301936597E+02  0.49999986448E+02 0.  0.
         12    1    1    2    0    0  0.27670444750E+02  0.41858381096E+01 -0.15282221239E+02  0.31886063403E+02  0.00000000000E+00 0. -1.
         11    1    3    3    0    0  0.54955335446E+01  0.35308682903E+01 -0.76321074670E+01  0.10045744595E+02  0.51100000000E-03 0. -1.
        -11    1    3    3    0    0 -0.30350350508E+02 -0.16364605664E+02  0.18813814007E+02  0.39279812783E+02  0.51100000000E-03 0.  1.
        -12    1    3    3    0    0 -0.28156277867E+01  0.86478992646E+01  0.41005146992E+01  0.99763792190E+01  0.00000000000E+00 0.  1.
</event>
<event>
 7    1  0.4237994E-013  0.5930194E+02  0.7816164E-02  0.1266605E+00
        -11   -1    0    0    0    0  0.00000000000E+00  0.00000000000E+00  0.45593999997E+02  0.45594000000E+02  0.51100000000E-03 0. -1.
         11   -1    0    0    0    0 -0.00000000000E+00 -0.00000000000E+00 -0.45593999997E+02  0.45594000000E+02  0.51100000000E-03 0.  1.
    9900012    2    1    2    0    0  0.23406930144E+02  0.78803141074E-01 -0.21652483833E+02  0.59301942783E+02  0.49999997730E+02 0.  0.
         12    1    1    2    0    0 -0.23406930144E+02 -0.78803141074E-01  0.21652483833E+02  0.31886057217E+02  0.00000000000E+00 0. -1.
         11    1    3    3    0    0 -0.98601107995E+01  0.89381445312E+01  0.44325683786E+01  0.14027112152E+02  0.51100000000E-03 0. -1.
        -11    1    3    3    0    0  0.72455405519E+01  0.42992661767E+00 -0.12573677896E+02  0.14518266800E+02  0.51100000000E-03 0.  1.
         12    1    3    3    0    0  0.26021500392E+02 -0.92892680078E+01 -0.13511374316E+02  0.30756563830E+02  0.00000000000E+00 0. -1.
</event>
<event>
 7    1  0.4237994E-013  0.5930193E+02  0.7816164E-02  0.1266605E+00
        -11   -1    0    0    0    0  0.00000000000E+00  0.00000000000E+00  0.45593999997E+02  0.45594000000E+02  0.51100000000E-03 0.  1.
         11   -1    0    0    0    0 -0.00000000000E+00 -0.00000000000E+00 -0.45593999997E+02  0.45594000000E+02  0.51100000000E-03 0. -1.
    9900012    2    1    2    0    0 -0.26784633201E+02  0.14113793123E+02  0.10005296690E+02  0.59301926333E+02  0.49999967729E+02 0.  0.
         12    1    1    2    0    0  0.26784633201E+02 -0.14113793123E+02 -0.10005296690E+02  0.31886073667E+02  0.00000000000E+00 0. -1.
         11    1    3    3    0    0 -0.11767020187E+02  0.41562020891E+01  0.25155575552E+02  0.28080950153E+02  0.51100000000E-03 0.  1.
        -11    1    3    3    0    0 -0.20063528575E+02  0.93798113253E+01 -0.13183226349E+02  0.25774473741E+02  0.51100000000E-03 0. -1.
         12    1    3    3    0    0  0.50459155611E+01  0.57777970880E+00 -0.19670525121E+01  0.54465024398E+01  0.00000000000E+00 0. -1.
</event>
<event>
 7    1  0.4237994E-013  0.5930199E+02  0.7816164E-02  0.1266605E+00
        -11   -1    0    0    0    0  0.00000000000E+00  0.00000000000E+00  0.45593999997E+02  0.45594000000E+02  0.51100000000E-03 0.  1.
         11   -1    0    0    0    0 -0.00000000000E+00 -0.00000000000E+00 -0.45593999997E+02  0.45594000000E+02  0.51100000000E-03 0. -1.
    9900012    2    1    2    0    0  0.18881128671E+02 -0.36183031211E+01  0.25438715917E+02  0.59301993588E+02  0.50000090386E+02 0.  0.
         12    1    1    2    0    0 -0.18881128671E+02  0.36183031211E+01 -0.25438715917E+02  0.31886006412E+02  0.00000000000E+00 0. -1.
         11    1    3    3    0    0  0.12328812646E+02  0.12045957700E+02  0.10058591274E+02  0.19956953095E+02  0.51100000000E-03 0. -1.
        -11    1    3    3    0    0  0.35599590437E+01 -0.14741034618E+02  0.24993576543E+02  0.29234402315E+02  0.51100000000E-03 0.  1.
         12    1    3    3    0    0  0.29923569816E+01 -0.92322620275E+00 -0.96134519004E+01  0.10110638178E+02  0.00000000000E+00 0. -1.
</event>
<event>
 7    1  0.4237994E-013  0.5930194E+02  0.7816164E-02  0.1266605E+00
        -11   -1    0    0    0    0  0.00000000000E+00  0.00000000000E+00  0.45593999997E+02  0.45594000000E+02  0.51100000000E-03 0.  1.
         11   -1    0    0    0    0 -0.00000000000E+00 -0.00000000000E+00 -0.45593999997E+02  0.45594000000E+02  0.51100000000E-03 0. -1.
    9900012    2    1    2    0    0  0.69721908714E+01  0.30917327675E+02  0.34968982593E+01  0.59301938883E+02  0.49999990618E+02 0.  0.
         12    1    1    2    0    0 -0.69721908714E+01 -0.30917327675E+02 -0.34968982593E+01  0.31886061117E+02  0.00000000000E+00 0. -1.
         11    1    3    3    0    0 -0.37865936332E+01 -0.11536911449E+02 -0.32734941924E+01  0.12575944561E+02  0.51100000000E-03 0. -1.
        -11    1    3    3    0    0  0.10426382485E+02  0.24103908382E+02  0.99790340953E+01  0.28094287191E+02  0.51100000000E-03 0.  1.
         12    1    3    3    0    0  0.33240201919E+00  0.18350330742E+02 -0.32086416436E+01  0.18631707131E+02  0.00000000000E+00 0. -1.
</event>
<event>
 7    1  0.4237994E-013  0.5930194E+02  0.7816164E-02  0.1266605E+00
        -11   -1    0    0    0    0  0.00000000000E+00  0.00000000000E+00  0.45593999997E+02  0.45594000000E+02  0.51100000000E-03 0. -1.
         11   -1    0    0    0    0 -0.00000000000E+00 -0.00000000000E+00 -0.45593999997E+02  0.45594000000E+02  0.51100000000E-03 0.  1.
    9900012    2    1    2    0    0 -0.23595936814E+02 -0.14105126330E+02 -0.16155441869E+02  0.59301935256E+02  0.49999984002E+02 0.  0.
         12    1    1    2    0    0  0.23595936814E+02  0.14105126330E+02  0.16155441869E+02  0.31886064744E+02  0.00000000000E+00 0. -1.
         11    1    3    3    0    0 -0.20190750598E+02 -0.13244260419E+02  0.14190772431E+02  0.28008121432E+02  0.51100000000E-03 0. -1.
        -11    1    3    3    0    0 -0.27095038483E+01 -0.23059570273E+01 -0.66378343565E+01  0.75312478462E+01  0.51100000000E-03 0.  1.
         12    1    3    3    0    0 -0.69568236773E+00  0.14450911164E+01 -0.23708379943E+02  0.23762565977E+02  0.00000000000E+00 0. -1.
</event>
<event>
 7    1  0.4237994E-013  0.5930194E+02  0.7816164E-02  0.1266605E+00
        -11   -1    0    0    0    0  0.00000000000E+00  0.00000000000E+00  0.45593999997E+02  0.45594000000E+02  0.51100000000E-03 0.  1.
         11   -1    0    0    0    0 -0.00000000000E+00 -0.00000000000E+00 -0.45593999997E+02  0.45594000000E+02  0.51100000000E-03 0. -1.
    9900012    2    1    2    0    0 -0.15566030753E+02 -0.74618627519E+01  0.26809323646E+02  0.59301944373E+02  0.50000000629E+02 0.  0.
         12    1    1    2    0    0  0.15566030753E+02  0.74618627519E+01 -0.26809323646E+02  0.31886055627E+02  0.00000000000E+00 0. -1.
         11    1    3    3    0    0  0.13149609521E+02 -0.13948174805E+02  0.11338087075E+02  0.22271417326E+02  0.51100000000E-03 0. -1.
        -11    1    3    3    0    0 -0.25591350929E+02  0.72150884231E+01  0.63151549920E+01  0.27328664917E+02  0.51100000000E-03 0.  1.
        -12    1    3    3    0    0 -0.31242893449E+01 -0.72877637021E+00  0.91560815786E+01  0.97018621297E+01  0.00000000000E+00 0.  1.
</event>
<event>
 7    1  0.4237994E-013  0.5930193E+02  0.7816164E-02  0.1266605E+00
        -11   -1    0    0    0    0  0.00000000000E+00  0.00000000000E+00  0.45593999997E+02  0.45594000000E+02  0.51100000000E-03 0.  1.
         11   -1    0    0    0    0 -0.00000000000E+00 -0.00000000000E+00 -0.45593999997E+02  0.45594000000E+02  0.51100000000E-03 0. -1.
    9900012    2    1    2    0    0  0.21974327366E+02  0.68970128256E+01  0.22051790116E+02  0.59301932565E+02  0.49999979096E+02 0.  0.
         12    1    1    2    0    0 -0.21974327366E+02 -0.68970128256E+01 -0.22051790116E+02  0.31886067435E+02  0.00000000000E+00 0. -1.
         11    1    3    3    0    0 -0.14952300438E+02 -0.44537401602E+01  0.36951677581E+01  0.16033133032E+02  0.51100000000E-03 0. -1.
        -11    1    3    3    0    0  0.22275180682E+02  0.87766536255E+01  0.84192208207E+01  0.25379058351E+02  0.51100000000E-03 0.  1.
         12    1    3    3    0    0  0.14651447122E+02  0.25740993603E+01  0.99374015372E+01  0.17889741183E+02  0.00000000000E+00 0. -1.
</event>
<event>
 7    1  0.4237994E-013  0.5930198E+02  0.7816164E-02  0.1266605E+00
        -11   -1    0    0    0    0  0.00000000000E+00  0.00000000000E+00  0.45593999997E+02  0.45594000000E+02  0.51100000000E-03 0.  1.
         11   -1    0    0    0    0 -0.00000000000E+00 -0.00000000000E+00 -0.45593999997E+02  0.45594000000E+02  0.51100000000E-03 0. -1.
    9900012    2    1    2    0    0  0.31637571437E+02 -0.34179034383E+00 -0.39579769300E+01  0.59301979106E+02  0.50000063974E+02 0.  0.
         12    1    1    2    0    0 -0.31637571437E+02  0.34179034383E+00  0.39579769300E+01  0.31886020894E+02  0.00000000000E+00 0. -1.
         11    1    3    3    0    0 -0.51849913850E+01 -0.11154015104E+02  0.10151593204E+02  0.15948386547E+02  0.51100000000E-03 0. -1.
        -11    1    3    3    0    0  0.29639103574E+02  0.36553871348E+01 -0.62171046374E+01  0.30503945746E+02  0.51100000000E-03 0.  1.
         12    1    3    3    0    0  0.71834592486E+01  0.71568376258E+01 -0.78924654967E+01  0.12849646812E+02  0.00000000000E+00 0. -1.
</event>
<event>
 7    1  0.4237994E-013  0.5930194E+02  0.7816164E-02  0.1266605E+00
        -11   -1    0    0    0    0  0.00000000000E+00  0.00000000000E+00  0.45593999997E+02  0.45594000000E+02  0.51100000000E-03 0. -1.
         11   -1    0    0    0    0 -0.00000000000E+00 -0.00000000000E+00 -0.45593999997E+02  0.45594000000E+02  0.51100000000E-03 0.  1.
    9900012    2    1    2    0    0 -0.13316594830E+01 -0.34849410961E+00 -0.31856330292E+02  0.59301944352E+02  0.50000000591E+02 0.  0.
         12    1    1    2    0    0  0.13316594830E+01  0.34849410961E+00  0.31856330292E+02  0.31886055648E+02  0.00000000000E+00 0. -1.
         11    1    3    3    0    0  0.11544976067E+02  0.16746473751E+02 -0.17725968119E+02  0.26980378083E+02  0.51100000000E-03 0. -1.
        -11    1    3    3    0    0  0.30694180387E+01 -0.11696385690E+02 -0.43461585367E+01  0.12849741616E+02  0.51100000000E-03 0.  1.
        -12    1    3    3    0    0 -0.15946053589E+02 -0.53985821707E+01 -0.97842036365E+01  0.19471824653E+02  0.00000000000E+00 0.  1.
</event>
<event>
 7    1  0.4237994E-013  0.5930193E+02  0.7816164E-02  0.1266605E+00
        -11   -1    0    0    0    0  0.00000000000E+00  0.00000000000E+00  0.45593999997E+02  0.45594000000E+02  0.51100000000E-03 0. -1.
         11   -1    0    0    0    0 -0.00000000000E+00 -0.00000000000E+00 -0.45593999997E+02  0.45594000000E+02  0.51100000000E-03 0.  1.
    9900012    2    1    2    0    0  0.10047278013E+01 -0.36341945259E+00 -0.31868167819E+02  0.59301926680E+02  0.49999968361E+02 0.  0.
         12    1    1    2    0    0 -0.10047278013E+01  0.36341945259E+00  0.31868167819E+02  0.31886073320E+02  0.00000000000E+00 0. -1.
         11    1    3    3    0    0 -0.10241213446E+02  0.10329359804E+02 -0.26018143399E+02  0.29808084692E+02  0.51100000000E-03 0. -1.
        -11    1    3    3    0    0  0.97835062487E+01 -0.52598519176E+01  0.85606157272E+01  0.14023807564E+02  0.51100000000E-03 0.  1.
        -12    1    3    3    0    0  0.14624349990E+01 -0.54329273390E+01 -0.14410640147E+02  0.15470034423E+02  0.00000000000E+00 0.  1.
</event>
<event>
 7    1  0.4237994E-013  0.5930193E+02  0.7816164E-02  0.1266605E+00
        -11   -1    0    0    0    0  0.00000000000E+00  0.00000000000E+00  0.45593999997E+02  0.45594000000E+02  0.51100000000E-03 0.  1.
         11   -1    0    0    0    0 -0.00000000000E+00 -0.00000000000E+00 -0.45593999997E+02  0.45594000000E+02  0.51100000000E-03 0. -1.
    9900012    2    1    2    0    0  0.46823056472E+01 -0.29009200003E+02  0.12379975314E+02  0.59301930004E+02  0.49999974425E+02 0.  0.
         12    1    1    2    0    0 -0.46823056472E+01  0.29009200003E+02 -0.12379975314E+02  0.31886069996E+02  0.00000000000E+00 0. -1.
         11    1    3    3    0    0 -0.45010876686E+01 -0.70315634727E+01 -0.15441377398E+02  0.17553883083E+02  0.51100000000E-03 0. -1.
        -11    1    3    3    0    0  0.35486418558E+01 -0.19663898102E+02  0.29314165665E+02  0.35476500060E+02  0.51100000000E-03 0.  1.
        -12    1    3    3    0    0  0.56347514600E+01 -0.23137384283E+01 -0.14928129529E+01  0.62715468620E+01  0.00000000000E+00 0.  1.
</event>
<event>
 7    1  0.4237994E-013  0.5930196E+02  0.7816164E-02  0.1266605E+00
        -11   -1    0    0    0    0  0.00000000000E+00  0.00000000000E+00  0.45593999997E+02  0.45594000000E+02  0.51100000000E-03 0.  1.
         11   -1    0    0    0    0 -0.00000000000E+00 -0.00000000000E+00 -0.45593999997E+02  0.45594000000E+02  0.51100000000E-03 0. -1.
    9900012    2    1    2    0    0 -0.22672475053E+02 -0.71356474768E+01  0.21254662949E+02  0.59301964074E+02  0.50000036560E+02 0.  0.
         12    1    1    2    0    0  0.22672475053E+02  0.71356474768E+01 -0.21254662949E+02  0.31886035926E+02  0.00000000000E+00 0. -1.
         11    1    3    3    0    0 -0.18831289550E+01 -0.11759576834E+02 -0.90103227939E+01  0.14933845422E+02  0.51100000000E-03 0. -1.
        -11    1    3    3    0    0 -0.23364952443E+02 -0.62908392970E+00  0.30602970834E+02  0.38507902739E+02  0.51100000000E-03 0.  1.
        -12    1    3    3    0    0  0.25756063444E+01  0.52530132866E+01 -0.33798509088E+00  0.58602159134E+01  0.00000000000E+00 0.  1.
</event>
<event>
 7    1  0.4237994E-013  0.5930194E+02  0.7816164E-02  0.1266605E+00
        -11   -1    0    0    0    0  0.00000000000E+00  0.00000000000E+00  0.45593999997E+02  0.45594000000E+02  0.51100000000E-03 0. -1.
         11   -1    0    0    0    0 -0.00000000000E+00 -0.00000000000E+00 -0.45593999997E+02  0.45594000000E+02  0.51100000000E-03 0.  1.
    9900012    2    1    2    0    0  0.18186529226E+02 -0.89280717822E+01 -0.24622355963E+02  0.59301941538E+02  0.49999995460E+02 0.  0.
         12    1    1    2    0    0 -0.18186529226E+02  0.89280717822E+01  0.24622355963E+02  0.31886058462E+02  0.00000000000E+00 0. -1.
         11    1    3    3    0    0  0.52407819464E+01 -0.14809268648E+02 -0.28257494115E+02  0.32330576970E+02  0.51100000000E-03 0. -1.
        -11    1    3    3    0    0  0.16817532501E+02  0.10246865090E+02  0.61297654580E+01  0.20625267718E+02  0.51100000000E-03 0.  1.
         12    1    3    3    0    0 -0.38717852209E+01 -0.43656682247E+01 -0.24946273067E+01  0.63460968512E+01  0.00000000000E+00 0. -1.
</event>
<event>
 7    1  0.4237994E-013  0.5930193E+02  0.7816164E-02  0.1266605E+00
        -11   -1    0    0    0    0  0.00000000000E+00  0.00000000000E+00  0.45593999997E+02  0.45594000000E+02  0.51100000000E-03 0.  1.
         11   -1    0    0    0    0 -0.00000000000E+00 -0.00000000000E+00 -0.45593999997E+02  0.45594000000E+02  0.51100000000E-03 0. -1.
    9900012    2    1    2    0    0  0.30143687367E+02 -0.10325256748E+02 -0.12118421369E+01  0.59301931312E+02  0.49999976810E+02 0.  0.
         12    1    1    2    0    0 -0.30143687367E+02  0.10325256748E+02  0.12118421369E+01  0.31886068688E+02  0.00000000000E+00 0. -1.
         11    1    3    3    0    0  0.17007241899E+02 -0.23720854296E+02  0.26734996156E+01  0.29309943807E+02  0.51100000000E-03 0. -1.
        -11    1    3    3    0    0  0.65431376072E+01  0.17930599681E+02  0.31395823571E+01  0.19343630278E+02  0.51100000000E-03 0.  1.
        -12    1    3    3    0    0  0.65933078612E+01 -0.45350021333E+01 -0.70249241095E+01  0.10648357228E+02  0.00000000000E+00 0.  1.
</event>
<event>
 7    1  0.4237994E-013  0.5930192E+02  0.7816164E-02  0.1266605E+00
        -11   -1    0    0    0    0  0.00000000000E+00  0.00000000000E+00  0.45593999997E+02  0.45594000000E+02  0.51100000000E-03 0. -1.
         11   -1    0    0    0    0 -0.00000000000E+00 -0.00000000000E+00 -0.45593999997E+02  0.45594000000E+02  0.51100000000E-03 0.  1.
    9900012    2    1    2    0    0 -0.20368371800E+02 -0.24482626060E+02 -0.15659679999E+01  0.59301924601E+02  0.49999964570E+02 0.  0.
         12    1    1    2    0    0  0.20368371800E+02  0.24482626060E+02  0.15659679999E+01  0.31886075399E+02  0.00000000000E+00 0. -1.
         11    1    3    3    0    0 -0.82893492993E+01 -0.29401355560E+02 -0.73995997309E+01  0.31430989438E+02  0.51100000000E-03 0. -1.
        -11    1    3    3    0    0 -0.97437979229E+01  0.12622896808E+02 -0.26621724245E+01  0.16166826655E+02  0.51100000000E-03 0.  1.
        -12    1    3    3    0    0 -0.23352245781E+01 -0.77041673079E+01  0.84958041554E+01  0.11704108509E+02  0.00000000000E+00 0.  1.
</event>
<event>
 7    1  0.4237994E-013  0.5930194E+02  0.7816164E-02  0.1266605E+00
        -11   -1    0    0    0    0  0.00000000000E+00  0.00000000000E+00  0.45593999997E+02  0.45594000000E+02  0.51100000000E-03 0. -1.
         11   -1    0    0    0    0 -0.00000000000E+00 -0.00000000000E+00 -0.45593999997E+02  0.45594000000E+02  0.51100000000E-03 0.  1.
    9900012    2    1    2    0    0 -0.29539219848E+02 -0.12005350297E+02 -0.16464238578E+00  0.59301936397E+02  0.49999986083E+02 0.  0.
         12    1    1    2    0    0  0.29539219848E+02  0.12005350297E+02  0.16464238578E+00  0.31886063603E+02  0.00000000000E+00 0. -1.
         11    1    3    3    0    0 -0.49995032669E+01 -0.26955178899E+02  0.90719054815E+00  0.27429905165E+02  0.51100000000E-03 0. -1.
        -11    1    3    3    0    0 -0.15148872342E+02  0.44982880385E+01 -0.61137982967E+01  0.16944068531E+02  0.51100000000E-03 0.  1.
         12    1    3    3    0    0 -0.93908442399E+01  0.10451540564E+02  0.50419653628E+01  0.14927962701E+02  0.00000000000E+00 0. -1.
</event>
<event>
 7    1  0.4237994E-013  0.5930181E+02  0.7816164E-02  0.1266605E+00
        -11   -1    0    0    0    0  0.00000000000E+00  0.00000000000E+00  0.45593999997E+02  0.45594000000E+02  0.51100000000E-03 0.  1.
         11   -1    0    0    0    0 -0.00000000000E+00 -0.00000000000E+00 -0.45593999997E+02  0.45594000000E+02  0.51100000000E-03 0. -1.
    9900012    2    1    2    0    0  0.26303726660E+02  0.13448706253E+02  0.11998977546E+02  0.59301808659E+02  0.49999753120E+02 0.  0.
         12    1    1    2    0    0 -0.26303726660E+02 -0.13448706253E+02 -0.11998977546E+02  0.31886191341E+02  0.00000000000E+00 0. -1.
         11    1    3    3    0    0  0.57883330459E+01 -0.15699884849E+02  0.13672791392E+02  0.21608711401E+02  0.51100000000E-03 0. -1.
        -11    1    3    3    0    0  0.66362147570E+01  0.19609769504E+02  0.52649525898E+00  0.20708925704E+02  0.51100000000E-03 0.  1.
         12    1    3    3    0    0  0.13879178857E+02  0.95388215980E+01 -0.22003091046E+01  0.16984171554E+02  0.00000000000E+00 0. -1.
</event>
<event>
 7    1  0.4237994E-013  0.5930192E+02  0.7816164E-02  0.1266605E+00
        -11   -1    0    0    0    0  0.00000000000E+00  0.00000000000E+00  0.45593999997E+02  0.45594000000E+02  0.51100000000E-03 0. -1.
         11   -1    0    0    0    0 -0.00000000000E+00 -0.00000000000E+00 -0.45593999997E+02  0.45594000000E+02  0.51100000000E-03 0.  1.
    9900012    2    1    2    0    0 -0.14377125787E+01 -0.31712053252E+02 -0.30001317369E+01  0.59301919504E+02  0.49999955275E+02 0.  0.
         12    1    1    2    0    0  0.14377125787E+01  0.31712053252E+02  0.30001317369E+01  0.31886080496E+02  0.00000000000E+00 0. -1.
         11    1    3    3    0    0 -0.12883823071E+02  0.80657141404E+01 -0.71600697598E+01  0.16802239158E+02  0.51100000000E-03 0. -1.
        -11    1    3    3    0    0  0.56654510025E+01 -0.30553398377E+02  0.54117248451E+01  0.31541944352E+02  0.51100000000E-03 0.  1.
         12    1    3    3    0    0  0.57806594893E+01 -0.92243690159E+01 -0.12517868222E+01  0.10957735994E+02  0.00000000000E+00 0. -1.
</event>
<event>
 7    1  0.4237994E-013  0.5930195E+02  0.7816164E-02  0.1266605E+00
        -11   -1    0    0    0    0  0.00000000000E+00  0.00000000000E+00  0.45593999997E+02  0.45594000000E+02  0.51100000000E-03 0. -1.
         11   -1    0    0    0    0 -0.00000000000E+00 -0.00000000000E+00 -0.45593999997E+02  0.45594000000E+02  0.51100000000E-03 0.  1.
    9900012    2    1    2    0    0 -0.11938891492E+02  0.28778928605E+02 -0.67791095890E+01  0.59301949939E+02  0.50000010780E+02 0.  0.
         12    1    1    2    0    0  0.11938891492E+02 -0.28778928605E+02  0.67791095890E+01  0.31886050061E+02  0.00000000000E+00 0. -1.
         11    1    3    3    0    0 -0.22345768902E+01  0.31941400015E+02 -0.12555975788E+02  0.34393297270E+02  0.51100000000E-03 0.  1.
        -11    1    3    3    0    0 -0.16990879457E+01 -0.94083173208E+01 -0.44075136349E+01  0.10527559611E+02  0.51100000000E-03 0. -1.
         12    1    3    3    0    0 -0.80052266563E+01  0.62458459101E+01  0.10184379834E+02  0.14381093058E+02  0.00000000000E+00 0. -1.
</event>
<event>
 7    1  0.4237994E-013  0.5930195E+02  0.7816164E-02  0.1266605E+00
        -11   -1    0    0    0    0  0.00000000000E+00  0.00000000000E+00  0.45593999997E+02  0.45594000000E+02  0.51100000000E-03 0. -1.
         11   -1    0    0    0    0 -0.00000000000E+00 -0.00000000000E+00 -0.45593999997E+02  0.45594000000E+02  0.51100000000E-03 0.  1.
    9900012    2    1    2    0    0  0.31521032218E+02 -0.42217657942E+01 -0.23067872912E+01  0.59301952171E+02  0.50000014852E+02 0.  0.
         12    1    1    2    0    0 -0.31521032218E+02  0.42217657942E+01  0.23067872912E+01  0.31886047829E+02  0.00000000000E+00 0. -1.
         11    1    3    3    0    0  0.70791072589E+01  0.11310480952E+02 -0.10951982490E+02  0.17262290105E+02  0.51100000000E-03 0.  1.
        -11    1    3    3    0    0  0.18214598456E+02 -0.28564018658E+01  0.17459222708E+02  0.25392028008E+02  0.51100000000E-03 0. -1.
        -12    1    3    3    0    0  0.62273265032E+01 -0.12675844880E+02 -0.88140275088E+01  0.16647634058E+02  0.00000000000E+00 0.  1.
</event>
<event>
 7    1  0.4237994E-013  0.5930193E+02  0.7816164E-02  0.1266605E+00
        -11   -1    0    0    0    0  0.00000000000E+00  0.00000000000E+00  0.45593999997E+02  0.45594000000E+02  0.51100000000E-03 0.  1.
         11   -1    0    0    0    0 -0.00000000000E+00 -0.00000000000E+00 -0.45593999997E+02  0.45594000000E+02  0.51100000000E-03 0. -1.
    9900012    2    1    2    0    0  0.17037923849E+02 -0.66305404550E+01  0.26124055946E+02  0.59301933844E+02  0.49999981427E+02 0.  0.
         12    1    1    2    0    0 -0.17037923849E+02  0.66305404550E+01 -0.26124055946E+02  0.31886066156E+02  0.00000000000E+00 0. -1.
         11    1    3    3    0    0  0.26881689646E+01  0.28908200022E+00 -0.38614835018E+01  0.47139024047E+01  0.51100000000E-03 0. -1.
        -11    1    3    3    0    0  0.28285380106E+02 -0.22171222417E+01  0.27794781120E+02  0.39718109428E+02  0.51100000000E-03 0.  1.
        -12    1    3    3    0    0 -0.13935625221E+02 -0.47025002135E+01  0.21907583287E+01  0.14869922011E+02  0.00000000000E+00 0.  1.
</event>
<event>
 7    1  0.4237994E-013  0.5930193E+02  0.7816164E-02  0.1266605E+00
        -11   -1    0    0    0    0  0.00000000000E+00  0.00000000000E+00  0.45593999997E+02  0.45594000000E+02  0.51100000000E-03 0.  1.
         11   -1    0    0    0    0 -0.00000000000E+00 -0.00000000000E+00 -0.45593999997E+02  0.45594000000E+02  0.51100000000E-03 0. -1.
    9900012    2    1    2    0    0 -0.15756619428E+01 -0.25325027696E+02  0.19310138243E+02  0.59301934434E+02  0.49999982502E+02 0.  0.
         12    1    1    2    0    0  0.15756619428E+01  0.25325027696E+02 -0.19310138243E+02  0.31886065566E+02  0.00000000000E+00 0. -1.
         11    1    3    3    0    0 -0.25627334912E+01  0.15145578524E+01  0.41777044705E+01  0.51297858960E+01  0.51100000000E-03 0. -1.
        -11    1    3    3    0    0 -0.18640223369E+02 -0.23510488926E+02  0.14934026611E+01  0.30040493813E+02  0.51100000000E-03 0.  1.
        -12    1    3    3    0    0  0.19627294917E+02 -0.33290966222E+01  0.13639031111E+02  0.24131654724E+02  0.00000000000E+00 0.  1.
</event>
<event>
 7    1  0.4237994E-013  0.5930195E+02  0.7816164E-02  0.1266605E+00
        -11   -1    0    0    0    0  0.00000000000E+00  0.00000000000E+00  0.45593999997E+02  0.45594000000E+02  0.51100000000E-03 0.  1.
         11   -1    0    0    0    0 -0.00000000000E+00 -0.00000000000E+00 -0.45593999997E+02  0.45594000000E+02  0.51100000000E-03 0. -1.
    9900012    2    1    2    0    0 -0.42943310918E+00  0.27178014897E+02 -0.16670071482E+02  0.59301949919E+02  0.50000010744E+02 0.  0.
         12    1    1    2    0    0  0.42943310918E+00 -0.27178014897E+02  0.16670071482E+02  0.31886050081E+02  0.00000000000E+00 0. -1.
         11    1    3    3    0    0 -0.10695817558E+02  0.49158208689E+01  0.86615427953E+01  0.14614654697E+02  0.51100000000E-03 0. -1.
        -11    1    3    3    0    0  0.14496337778E+02  0.87073301343E+00 -0.66468099993E+01  0.15971288877E+02  0.51100000000E-03 0.  1.
         12    1    3    3    0    0 -0.42299533286E+01  0.21391461015E+02 -0.18684804278E+02  0.28716006345E+02  0.00000000000E+00 0. -1.
</event>
<event>
 7    1  0.4237994E-013  0.5930200E+02  0.7816164E-02  0.1266605E+00
        -11   -1    0    0    0    0  0.00000000000E+00  0.00000000000E+00  0.45593999997E+02  0.45594000000E+02  0.51100000000E-03 0. -1.
         11   -1    0    0    0    0 -0.00000000000E+00 -0.00000000000E+00 -0.45593999997E+02  0.45594000000E+02  0.51100000000E-03 0.  1.
    9900012    2    1    2    0    0 -0.39681485350E+01 -0.54161715700E+01 -0.31171073121E+02  0.59302001242E+02  0.50000104345E+02 0.  0.
         12    1    1    2    0    0  0.39681485350E+01  0.54161715700E+01  0.31171073121E+02  0.31885998758E+02  0.00000000000E+00 0. -1.
         11    1    3    3    0    0  0.52978167431E+01  0.15764058134E+02 -0.14364380688E+02  0.21975163797E+02  0.51100000000E-03 0.  1.
        -11    1    3    3    0    0 -0.10639160958E+02 -0.11686574936E+02 -0.21471154618E+02  0.26660424988E+02  0.51100000000E-03 0. -1.
         12    1    3    3    0    0  0.13731956803E+01 -0.94936547684E+01  0.46644621843E+01  0.10666412457E+02  0.00000000000E+00 0. -1.
</event>
<event>
 7    1  0.4237994E-013  0.5930193E+02  0.7816164E-02  0.1266605E+00
        -11   -1    0    0    0    0  0.00000000000E+00  0.00000000000E+00  0.45593999997E+02  0.45594000000E+02  0.51100000000E-03 0. -1.
         11   -1    0    0    0    0 -0.00000000000E+00 -0.00000000000E+00 -0.45593999997E+02  0.45594000000E+02  0.51100000000E-03 0.  1.
    9900012    2    1    2    0    0 -0.11810600080E+02 -0.16667065194E+02 -0.24483470313E+02  0.59301926943E+02  0.49999968841E+02 0.  0.
         12    1    1    2    0    0  0.11810600080E+02  0.16667065194E+02  0.24483470313E+02  0.31886073057E+02  0.00000000000E+00 0. -1.
         11    1    3    3    0    0  0.14064497340E+01  0.54567628847E+01 -0.21302361870E+02  0.22035085286E+02  0.51100000000E-03 0. -1.
        -11    1    3    3    0    0 -0.19322547088E+02 -0.72450146217E+01 -0.45302197597E+01  0.21127563849E+02  0.51100000000E-03 0.  1.
         12    1    3    3    0    0  0.61054972739E+01 -0.14878813457E+02  0.13491113167E+01  0.16139277809E+02  0.00000000000E+00 0. -1.
</event>
<event>
 7    1  0.4237994E-013  0.5930195E+02  0.7816164E-02  0.1266605E+00
        -11   -1    0    0    0    0  0.00000000000E+00  0.00000000000E+00  0.45593999997E+02  0.45594000000E+02  0.51100000000E-03 0.  1.
         11   -1    0    0    0    0 -0.00000000000E+00 -0.00000000000E+00 -0.45593999997E+02  0.45594000000E+02  0.51100000000E-03 0. -1.
    9900012    2    1    2    0    0 -0.29433542183E+02 -0.30488200894E+01  0.11878188035E+02  0.59301951948E+02  0.50000014444E+02 0.  0.
         12    1    1    2    0    0  0.29433542183E+02  0.30488200894E+01 -0.11878188035E+02  0.31886048052E+02  0.00000000000E+00 0. -1.
         11    1    3    3    0    0 -0.37097160680E+02 -0.93357390788E+01  0.31598268337E+01  0.38384109479E+02  0.51100000000E-03 0.  1.
        -11    1    3    3    0    0 -0.51067535896E+00  0.48053973375E+01 -0.36237994599E+01  0.60402446705E+01  0.51100000000E-03 0. -1.
         12    1    3    3    0    0  0.81742938552E+01  0.14815216519E+01  0.12342160661E+02  0.14877597798E+02  0.00000000000E+00 0. -1.
</event>
<event>
 7    1  0.4237994E-013  0.5930198E+02  0.7816164E-02  0.1266605E+00
        -11   -1    0    0    0    0  0.00000000000E+00  0.00000000000E+00  0.45593999997E+02  0.45594000000E+02  0.51100000000E-03 0. -1.
         11   -1    0    0    0    0 -0.00000000000E+00 -0.00000000000E+00 -0.45593999997E+02  0.45594000000E+02  0.51100000000E-03 0.  1.
    9900012    2    1    2    0    0 -0.15346379464E+02 -0.25007327239E+02 -0.12483608553E+02  0.59301980167E+02  0.50000065909E+02 0.  0.
         12    1    1    2    0    0  0.15346379464E+02  0.25007327239E+02  0.12483608553E+02  0.31886019833E+02  0.00000000000E+00 0. -1.
         11    1    3    3    0    0  0.22988394731E+01 -0.82297645676E+01  0.39986509633E+01  0.94341347006E+01  0.51100000000E-03 0. -1.
        -11    1    3    3    0    0 -0.41110645789E+01 -0.18908492699E+02 -0.26558893380E+02  0.32860413356E+02  0.51100000000E-03 0.  1.
         12    1    3    3    0    0 -0.13534154358E+02  0.21309300272E+01  0.10076633863E+02  0.17007432110E+02  0.00000000000E+00 0. -1.
</event>
<event>
 7    1  0.4237994E-013  0.5930194E+02  0.7816164E-02  0.1266605E+00
        -11   -1    0    0    0    0  0.00000000000E+00  0.00000000000E+00  0.45593999997E+02  0.45594000000E+02  0.51100000000E-03 0.  1.
         11   -1    0    0    0    0 -0.00000000000E+00 -0.00000000000E+00 -0.45593999997E+02  0.45594000000E+02  0.51100000000E-03 0. -1.
    9900012    2    1    2    0    0 -0.23793468829E+02  0.18775599548E+02 -0.99029471077E+01  0.59301942565E+02  0.49999997333E+02 0.  0.
         12    1    1    2    0    0  0.23793468829E+02 -0.18775599548E+02  0.99029471077E+01  0.31886057435E+02  0.00000000000E+00 0. -1.
         11    1    3    3    0    0 -0.85013453236E+00  0.94960633992E+01 -0.18648539651E+02  0.20944354375E+02  0.51100000000E-03 0. -1.
        -11    1    3    3    0    0 -0.17129461629E+02 -0.73434515287E+01  0.91075966262E+01  0.20743506276E+02  0.51100000000E-03 0.  1.
        -12    1    3    3    0    0 -0.58138726678E+01  0.16622987678E+02 -0.36200408255E+00  0.17614081914E+02  0.00000000000E+00 0.  1.
</event>
<event>
 7    1  0.4237994E-013  0.5930194E+02  0.7816164E-02  0.1266605E+00
        -11   -1    0    0    0    0  0.00000000000E+00  0.00000000000E+00  0.45593999997E+02  0.45594000000E+02  0.51100000000E-03 0. -1.
         11   -1    0    0    0    0 -0.00000000000E+00 -0.00000000000E+00 -0.45593999997E+02  0.45594000000E+02  0.51100000000E-03 0.  1.
    9900012    2    1    2    0    0 -0.30435609297E+02  0.63554546480E+01 -0.70712809533E+01  0.59301935154E+02  0.49999983816E+02 0.  0.
         12    1    1    2    0    0  0.30435609297E+02 -0.63554546480E+01  0.70712809533E+01  0.31886064846E+02  0.00000000000E+00 0. -1.
         11    1    3    3    0    0 -0.23040712792E+01 -0.42931449019E+01  0.80256188496E+01  0.93888442200E+01  0.51100000000E-03 0. -1.
        -11    1    3    3    0    0 -0.29632226103E+02  0.14827504172E+02 -0.23353871532E+02  0.40537970097E+02  0.51100000000E-03 0.  1.
        -12    1    3    3    0    0  0.15006880854E+01 -0.41789046217E+01  0.82569717289E+01  0.93751208365E+01  0.00000000000E+00 0.  1.
</event>
<event>
 7    1  0.4237994E-013  0.5930188E+02  0.7816164E-02  0.1266605E+00
        -11   -1    0    0    0    0  0.00000000000E+00  0.00000000000E+00  0.45593999997E+02  0.45594000000E+02  0.51100000000E-03 0.  1.
         11   -1    0    0    0    0 -0.00000000000E+00 -0.00000000000E+00 -0.45593999997E+02  0.45594000000E+02  0.51100000000E-03 0. -1.
    9900012    2    1    2    0    0 -0.14068630731E+02 -0.10435914144E+02  0.26643754859E+02  0.59301884720E+02  0.49999891837E+02 0.  0.
         12    1    1    2    0    0  0.14068630731E+02  0.10435914144E+02 -0.26643754859E+02  0.31886115280E+02  0.00000000000E+00 0. -1.
         11    1    3    3    0    0 -0.16361965153E+02 -0.24498604705E+02  0.85743868164E+01  0.30682497384E+02  0.51100000000E-03 0. -1.
        -11    1    3    3    0    0 -0.57095563338E+01  0.12805698913E+02  0.10326939091E+02  0.17413518583E+02  0.51100000000E-03 0.  1.
         12    1    3    3    0    0  0.80028907559E+01  0.12569916475E+01  0.77424289515E+01  0.11205868754E+02  0.00000000000E+00 0. -1.
</event>
<event>
 7    1  0.4237994E-013  0.5930195E+02  0.7816164E-02  0.1266605E+00
        -11   -1    0    0    0    0  0.00000000000E+00  0.00000000000E+00  0.45593999997E+02  0.45594000000E+02  0.51100000000E-03 0.  1.
         11   -1    0    0    0    0 -0.00000000000E+00 -0.00000000000E+00 -0.45593999997E+02  0.45594000000E+02  0.51100000000E-03 0. -1.
    9900012    2    1    2    0    0  0.82275918510E+01 -0.17577465102E+02  0.25299404248E+02  0.59301946585E+02  0.50000004664E+02 0.  0.
         12    1    1    2    0    0 -0.82275918510E+01  0.17577465102E+02 -0.25299404248E+02  0.31886053415E+02  0.00000000000E+00 0. -1.
         11    1    3    3    0    0  0.10265904310E+01  0.11808683619E+02 -0.17325608041E+00  0.11854489220E+02  0.51100000000E-03 0. -1.
        -11    1    3    3    0    0 -0.48005793611E+01 -0.27385600796E+02  0.18896057968E+02  0.33616628329E+02  0.51100000000E-03 0.  1.
        -12    1    3    3    0    0  0.12001580781E+02 -0.20005479245E+01  0.65766023602E+01  0.13830829037E+02  0.00000000000E+00 0.  1.
</event>
<event>
 7    1  0.4237994E-013  0.5930200E+02  0.7816164E-02  0.1266605E+00
        -11   -1    0    0    0    0  0.00000000000E+00  0.00000000000E+00  0.45593999997E+02  0.45594000000E+02  0.51100000000E-03 0.  1.
         11   -1    0    0    0    0 -0.00000000000E+00 -0.00000000000E+00 -0.45593999997E+02  0.45594000000E+02  0.51100000000E-03 0. -1.
    9900012    2    1    2    0    0  0.13931403926E+02  0.27666785821E+02  0.75618727865E+01  0.59302000359E+02  0.50000102735E+02 0.  0.
         12    1    1    2    0    0 -0.13931403926E+02 -0.27666785821E+02 -0.75618727865E+01  0.31885999641E+02  0.00000000000E+00 0. -1.
         11    1    3    3    0    0  0.26564650543E+02  0.28818957943E+02  0.31471108161E+01  0.39320698139E+02  0.51100000000E-03 0. -1.
        -11    1    3    3    0    0 -0.14599090007E+02  0.29720908585E+01  0.37611572963E+01  0.15365970766E+02  0.51100000000E-03 0.  1.
         12    1    3    3    0    0  0.19658433901E+01 -0.41242629801E+01  0.65360467415E+00  0.46153314543E+01  0.00000000000E+00 0. -1.
</event>
<event>
 7    1  0.4237994E-013  0.5930196E+02  0.7816164E-02  0.1266605E+00
        -11   -1    0    0    0    0  0.00000000000E+00  0.00000000000E+00  0.45593999997E+02  0.45594000000E+02  0.51100000000E-03 0.  1.
         11   -1    0    0    0    0 -0.00000000000E+00 -0.00000000000E+00 -0.45593999997E+02  0.45594000000E+02  0.51100000000E-03 0. -1.
    9900012    2    1    2    0    0  0.63995948828E+01  0.37312966952E+01  0.31013580207E+02  0.59301959999E+02  0.50000029127E+02 0.  0.
         12    1    1    2    0    0 -0.63995948828E+01 -0.37312966952E+01 -0.31013580207E+02  0.31886040001E+02  0.00000000000E+00 0. -1.
         11    1    3    3    0    0 -0.28950126983E+01 -0.23981753104E+00 -0.59509831971E+01  0.66221455922E+01  0.51100000000E-03 0. -1.
        -11    1    3    3    0    0 -0.92646826499E+01  0.17938486153E+01  0.31975167333E+02  0.33338619703E+02  0.51100000000E-03 0.  1.
        -12    1    3    3    0    0  0.18559290231E+02  0.21772656109E+01  0.49893960716E+01  0.19341194704E+02  0.00000000000E+00 0.  1.
</event>
<event>
 7    1  0.4237994E-013  0.5930193E+02  0.7816164E-02  0.1266605E+00
        -11   -1    0    0    0    0  0.00000000000E+00  0.00000000000E+00  0.45593999997E+02  0.45594000000E+02  0.51100000000E-03 0.  1.
         11   -1    0    0    0    0 -0.00000000000E+00 -0.00000000000E+00 -0.45593999997E+02  0.45594000000E+02  0.51100000000E-03 0. -1.
    9900012    2    1    2    0    0 -0.21933448963E+02 -0.22919746133E+02 -0.32140645999E+01  0.59301934745E+02  0.49999983070E+02 0.  0.
         12    1    1    2    0    0  0.21933448963E+02  0.22919746133E+02  0.32140645999E+01  0.31886065255E+02  0.00000000000E+00 0. -1.
         11    1    3    3    0    0 -0.52066907656E+01 -0.29663150541E+01 -0.15140406341E+02  0.16283137233E+02  0.51100000000E-03 0. -1.
        -11    1    3    3    0    0 -0.96494647933E+01 -0.15688386788E+01  0.19579639995E+02  0.21884600252E+02  0.51100000000E-03 0.  1.
        -12    1    3    3    0    0 -0.70772934039E+01 -0.18384592400E+02 -0.76532982543E+01  0.21134197260E+02  0.00000000000E+00 0.  1.
</event>
<event>
 7    1  0.4237994E-013  0.5930198E+02  0.7816164E-02  0.1266605E+00
        -11   -1    0    0    0    0  0.00000000000E+00  0.00000000000E+00  0.45593999997E+02  0.45594000000E+02  0.51100000000E-03 0. -1.
         11   -1    0    0    0    0 -0.00000000000E+00 -0.00000000000E+00 -0.45593999997E+02  0.45594000000E+02  0.51100000000E-03 0.  1.
    9900012    2    1    2    0    0 -0.20736389432E+02  0.12001594215E+02 -0.21040019482E+02  0.59301975943E+02  0.50000058205E+02 0.  0.
         12    1    1    2    0    0  0.20736389432E+02 -0.12001594215E+02  0.21040019482E+02  0.31886024057E+02  0.00000000000E+00 0. -1.
         11    1    3    3    0    0 -0.16342856520E+02 -0.13520150832E+02  0.50321154190E+01  0.21799211536E+02  0.51100000000E-03 0. -1.
        -11    1    3    3    0    0 -0.13643372560E+01  0.12286984259E+01 -0.45492452557E+01  0.49057872587E+01  0.51100000000E-03 0.  1.
         12    1    3    3    0    0 -0.30291956558E+01  0.24293046621E+02 -0.21522889646E+02  0.32596977147E+02  0.00000000000E+00 0. -1.
</event>
<event>
 7    1  0.4237994E-013  0.5930212E+02  0.7816164E-02  0.1266604E+00
        -11   -1    0    0    0    0  0.00000000000E+00  0.00000000000E+00  0.45593999997E+02  0.45594000000E+02  0.51100000000E-03 0.  1.
         11   -1    0    0    0    0 -0.00000000000E+00 -0.00000000000E+00 -0.45593999997E+02  0.45594000000E+02  0.51100000000E-03 0. -1.
    9900012    2    1    2    0    0 -0.56127275962E+01  0.18378808060E+02  0.25444567279E+02  0.59302120668E+02  0.50000322148E+02 0.  0.
         12    1    1    2    0    0  0.56127275962E+01 -0.18378808060E+02 -0.25444567279E+02  0.31885879332E+02  0.00000000000E+00 0. -1.
         11    1    3    3    0    0 -0.14059507737E+01  0.54004289993E+01  0.22142575675E+01  0.60036878493E+01  0.51100000000E-03 0. -1.
        -11    1    3    3    0    0 -0.83965334908E+01 -0.11352098432E+02 -0.57340483148E+01  0.15239790806E+02  0.51100000000E-03 0.  1.
        -12    1    3    3    0    0  0.41897566683E+01  0.24330477493E+02  0.28964358026E+02  0.38058642013E+02  0.00000000000E+00 0.  1.
</event>
<event>
 7    1  0.4237994E-013  0.5930199E+02  0.7816164E-02  0.1266605E+00
        -11   -1    0    0    0    0  0.00000000000E+00  0.00000000000E+00  0.45593999997E+02  0.45594000000E+02  0.51100000000E-03 0. -1.
         11   -1    0    0    0    0 -0.00000000000E+00 -0.00000000000E+00 -0.45593999997E+02  0.45594000000E+02  0.51100000000E-03 0.  1.
    9900012    2    1    2    0    0  0.25502490702E+02  0.18409202907E+02 -0.52385004427E+01  0.59301989422E+02  0.50000082788E+02 0.  0.
         12    1    1    2    0    0 -0.25502490702E+02 -0.18409202907E+02  0.52385004427E+01  0.31886010578E+02  0.00000000000E+00 0. -1.
         11    1    3    3    0    0 -0.32862444111E+01 -0.10223610323E+02  0.10974238529E+02  0.15354332350E+02  0.51100000000E-03 0. -1.
        -11    1    3    3    0    0  0.56227392007E+01  0.73558787052E+01 -0.22187074042E+01  0.95208618545E+01  0.51100000000E-03 0.  1.
         12    1    3    3    0    0  0.23165995913E+02  0.21276934525E+02 -0.13994031567E+02  0.34426795217E+02  0.00000000000E+00 0. -1.
</event>
<event>
 7    1  0.4237994E-013  0.5930194E+02  0.7816164E-02  0.1266605E+00
        -11   -1    0    0    0    0  0.00000000000E+00  0.00000000000E+00  0.45593999997E+02  0.45594000000E+02  0.51100000000E-03 0.  1.
         11   -1    0    0    0    0 -0.00000000000E+00 -0.00000000000E+00 -0.45593999997E+02  0.45594000000E+02  0.51100000000E-03 0. -1.
    9900012    2    1    2    0    0  0.13399030286E+02  0.12713754749E+02  0.25991294643E+02  0.59301937690E+02  0.49999988441E+02 0.  0.
         12    1    1    2    0    0 -0.13399030286E+02 -0.12713754749E+02 -0.25991294643E+02  0.31886062310E+02  0.00000000000E+00 0. -1.
         11    1    3    3    0    0  0.34557288035E+01  0.12341896217E+02 -0.74125621893E+01  0.14805760442E+02  0.51100000000E-03 0. -1.
        -11    1    3    3    0    0  0.97504497888E+01 -0.25458151528E+01  0.37853411355E+02  0.39171841894E+02  0.51100000000E-03 0.  1.
        -12    1    3    3    0    0  0.19285169407E+00  0.29176736841E+01 -0.44495545230E+01  0.53243353534E+01  0.00000000000E+00 0.  1.
</event>
<event>
 7    1  0.4237994E-013  0.5930194E+02  0.7816164E-02  0.1266605E+00
        -11   -1    0    0    0    0  0.00000000000E+00  0.00000000000E+00  0.45593999997E+02  0.45594000000E+02  0.51100000000E-03 0. -1.
         11   -1    0    0    0    0 -0.00000000000E+00 -0.00000000000E+00 -0.45593999997E+02  0.45594000000E+02  0.51100000000E-03 0.  1.
    9900012    2    1    2    0    0 -0.62340487994E+01  0.15580490804E+02 -0.27112831993E+02  0.59301941654E+02  0.49999995671E+02 0.  0.
         12    1    1    2    0    0  0.62340487994E+01 -0.15580490804E+02  0.27112831993E+02  0.31886058346E+02  0.00000000000E+00 0. -1.
         11    1    3    3    0    0 -0.13418726415E+02  0.10937149265E+02  0.62083350094E+01  0.18390945503E+02  0.51100000000E-03 0. -1.
        -11    1    3    3    0    0 -0.54913177224E+01 -0.23519487706E+01 -0.21210009700E+02  0.22035216020E+02  0.51100000000E-03 0.  1.
         12    1    3    3    0    0  0.12675995338E+02  0.69952903093E+01 -0.12111157303E+02  0.18875780131E+02  0.00000000000E+00 0. -1.
</event>
<event>
 7    1  0.4237994E-013  0.5930201E+02  0.7816164E-02  0.1266605E+00
        -11   -1    0    0    0    0  0.00000000000E+00  0.00000000000E+00  0.45593999997E+02  0.45594000000E+02  0.51100000000E-03 0.  1.
         11   -1    0    0    0    0 -0.00000000000E+00 -0.00000000000E+00 -0.45593999997E+02  0.45594000000E+02  0.51100000000E-03 0. -1.
    9900012    2    1    2    0    0  0.76945637708E+01 -0.22561783588E+02  0.21177248924E+02  0.59302011505E+02  0.50000123062E+02 0.  0.
         12    1    1    2    0    0 -0.76945637708E+01  0.22561783588E+02 -0.21177248924E+02  0.31885988495E+02  0.00000000000E+00 0. -1.
         11    1    3    3    0    0 -0.83922205179E+01  0.10316843062E+01  0.64322469232E+01  0.10623913520E+02  0.51100000000E-03 0. -1.
        -11    1    3    3    0    0  0.23394961420E+02 -0.27498155243E+02  0.59427981805E+01  0.36589474061E+02  0.51100000000E-03 0.  1.
        -12    1    3    3    0    0 -0.73081771314E+01  0.39046873490E+01  0.88022038207E+01  0.12088623924E+02  0.00000000000E+00 0.  1.
</event>
<event>
 7    1  0.4237994E-013  0.5930197E+02  0.7816164E-02  0.1266605E+00
        -11   -1    0    0    0    0  0.00000000000E+00  0.00000000000E+00  0.45593999997E+02  0.45594000000E+02  0.51100000000E-03 0.  1.
         11   -1    0    0    0    0 -0.00000000000E+00 -0.00000000000E+00 -0.45593999997E+02  0.45594000000E+02  0.51100000000E-03 0. -1.
    9900012    2    1    2    0    0  0.82889179637E+01  0.85715476242E+01  0.29572647702E+02  0.59301967293E+02  0.50000042430E+02 0.  0.
         12    1    1    2    0    0 -0.82889179637E+01 -0.85715476242E+01 -0.29572647702E+02  0.31886032707E+02  0.00000000000E+00 0. -1.
         11    1    3    3    0    0 -0.13702339773E+02 -0.88825188665E+01  0.13659436895E+01  0.16386551165E+02  0.51100000000E-03 0. -1.
        -11    1    3    3    0    0  0.18288186042E+01  0.10887053012E+02  0.80904474683E+01  0.13686776146E+02  0.51100000000E-03 0.  1.
         12    1    3    3    0    0  0.20162439133E+02  0.65670134785E+01  0.20116256544E+02  0.29228639981E+02  0.00000000000E+00 0. -1.
</event>
<event>
 7    1  0.4237994E-013  0.5930193E+02  0.7816164E-02  0.1266605E+00
        -11   -1    0    0    0    0  0.00000000000E+00  0.00000000000E+00  0.45593999997E+02  0.45594000000E+02  0.51100000000E-03 0.  1.
         11   -1    0    0    0    0 -0.00000000000E+00 -0.00000000000E+00 -0.45593999997E+02  0.45594000000E+02  0.51100000000E-03 0. -1.
    9900012    2    1    2    0    0  0.22695161951E+02 -0.20433929392E+02  0.91709009605E+01  0.59301932968E+02  0.49999979830E+02 0.  0.
         12    1    1    2    0    0 -0.22695161951E+02  0.20433929392E+02 -0.91709009605E+01  0.31886067032E+02  0.00000000000E+00 0. -1.
         11    1    3    3    0    0 -0.30963402298E+01 -0.21387068115E+02 -0.27322647578E+01  0.21782086133E+02  0.51100000000E-03 0. -1.
        -11    1    3    3    0    0  0.15398090422E+02 -0.10600298787E+02  0.11552190709E+02  0.21975455250E+02  0.51100000000E-03 0.  1.
         12    1    3    3    0    0  0.10393411758E+02  0.11553437510E+02  0.35097500968E+00  0.15544391584E+02  0.00000000000E+00 0. -1.
</event>
<event>
 7    1  0.4237994E-013  0.5930196E+02  0.7816164E-02  0.1266605E+00
        -11   -1    0    0    0    0  0.00000000000E+00  0.00000000000E+00  0.45593999997E+02  0.45594000000E+02  0.51100000000E-03 0.  1.
         11   -1    0    0    0    0 -0.00000000000E+00 -0.00000000000E+00 -0.45593999997E+02  0.45594000000E+02  0.51100000000E-03 0. -1.
    9900012    2    1    2    0    0  0.15814502166E+01  0.50848961623E+01  0.31438229881E+02  0.59301961491E+02  0.50000031848E+02 0.  0.
         12    1    1    2    0    0 -0.15814502166E+01 -0.50848961623E+01 -0.31438229881E+02  0.31886038509E+02  0.00000000000E+00 0. -1.
         11    1    3    3    0    0 -0.11044368466E+02 -0.10332818066E+02 -0.23995977001E+01  0.15313499710E+02  0.51100000000E-03 0.  1.
        -11    1    3    3    0    0 -0.24187520132E+01  0.74128348552E+01  0.22812071954E+01  0.81243084888E+01  0.51100000000E-03 0. -1.
         12    1    3    3    0    0  0.15044570695E+02  0.80048793726E+01  0.31556620386E+02  0.35864153292E+02  0.00000000000E+00 0. -1.
</event>
<event>
 7    1  0.4237994E-013  0.5930206E+02  0.7816164E-02  0.1266604E+00
        -11   -1    0    0    0    0  0.00000000000E+00  0.00000000000E+00  0.45593999997E+02  0.45594000000E+02  0.51100000000E-03 0.  1.
         11   -1    0    0    0    0 -0.00000000000E+00 -0.00000000000E+00 -0.45593999997E+02  0.45594000000E+02  0.51100000000E-03 0. -1.
    9900012    2    1    2    0    0  0.28963080635E+02  0.12086966149E+02 -0.56354366678E+01  0.59302063649E+02  0.50000218160E+02 0.  0.
         12    1    1    2    0    0 -0.28963080635E+02 -0.12086966149E+02  0.56354366678E+01  0.31885936351E+02  0.00000000000E+00 0. -1.
         11    1    3    3    0    0  0.15890027599E+02  0.15609505223E+00 -0.71965079827E+00  0.15907081451E+02  0.51100000000E-03 0. -1.
        -11    1    3    3    0    0 -0.13072668001E+02  0.97648901709E+01  0.15021366513E+01  0.16386096042E+02  0.51100000000E-03 0.  1.
        -12    1    3    3    0    0  0.26145721037E+02  0.21659809254E+01 -0.64179225209E+01  0.27008886156E+02  0.00000000000E+00 0.  1.
</event>
<event>
 7    1  0.4237994E-013  0.5930195E+02  0.7816164E-02  0.1266605E+00
        -11   -1    0    0    0    0  0.00000000000E+00  0.00000000000E+00  0.45593999997E+02  0.45594000000E+02  0.51100000000E-03 0. -1.
         11   -1    0    0    0    0 -0.00000000000E+00 -0.00000000000E+00 -0.45593999997E+02  0.45594000000E+02  0.51100000000E-03 0.  1.
    9900012    2    1    2    0    0  0.35678212302E+01 -0.92060756615E+01 -0.30318957681E+02  0.59301947057E+02  0.50000005526E+02 0.  0.
         12    1    1    2    0    0 -0.35678212302E+01  0.92060756615E+01  0.30318957681E+02  0.31886052943E+02  0.00000000000E+00 0. -1.
         11    1    3    3    0    0  0.71626172957E+01 -0.27767138279E+02 -0.20780511913E+02  0.35413934127E+02  0.51100000000E-03 0. -1.
        -11    1    3    3    0    0 -0.34097000847E+00  0.16747385449E+02 -0.40142055603E+01  0.17225127764E+02  0.51100000000E-03 0.  1.
         12    1    3    3    0    0 -0.32538260570E+01  0.18136771683E+01 -0.55242402068E+01  0.66628851666E+01  0.00000000000E+00 0. -1.
</event>
<event>
 7    1  0.4237994E-013  0.5930196E+02  0.7816164E-02  0.1266605E+00
        -11   -1    0    0    0    0  0.00000000000E+00  0.00000000000E+00  0.45593999997E+02  0.45594000000E+02  0.51100000000E-03 0.  1.
         11   -1    0    0    0    0 -0.00000000000E+00 -0.00000000000E+00 -0.45593999997E+02  0.45594000000E+02  0.51100000000E-03 0. -1.
    9900012    2    1    2    0    0  0.29674598443E+02 -0.10539392486E+02  0.50058714055E+01  0.59301963318E+02  0.50000035182E+02 0.  0.
         12    1    1    2    0    0 -0.29674598443E+02  0.10539392486E+02 -0.50058714055E+01  0.31886036682E+02  0.00000000000E+00 0. -1.
         11    1    3    3    0    0  0.16647632533E+02  0.77892227954E+01 -0.63686056460E+01  0.19451858493E+02  0.51100000000E-03 0. -1.
        -11    1    3    3    0    0 -0.95000924444E+01 -0.10928449191E+02  0.44086781155E+01  0.15136683955E+02  0.51100000000E-03 0.  1.
         12    1    3    3    0    0  0.22527058355E+02 -0.74001660901E+01  0.69657989360E+01  0.24713420870E+02  0.00000000000E+00 0. -1.
</event>
<event>
 7    1  0.4237994E-013  0.5930198E+02  0.7816164E-02  0.1266605E+00
        -11   -1    0    0    0    0  0.00000000000E+00  0.00000000000E+00  0.45593999997E+02  0.45594000000E+02  0.51100000000E-03 0. -1.
         11   -1    0    0    0    0 -0.00000000000E+00 -0.00000000000E+00 -0.45593999997E+02  0.45594000000E+02  0.51100000000E-03 0.  1.
    9900012    2    1    2    0    0  0.37012321677E+01  0.51948317505E+01 -0.31241520397E+02  0.59301984363E+02  0.50000073562E+02 0.  0.
         12    1    1    2    0    0 -0.37012321677E+01 -0.51948317505E+01  0.31241520397E+02  0.31886015637E+02  0.00000000000E+00 0. -1.
         11    1    3    3    0    0  0.22475831153E+02  0.55174998881E+01 -0.27997195752E+01  0.23311890121E+02  0.51100000000E-03 0. -1.
        -11    1    3    3    0    0 -0.35940160961E+01  0.50804371166E+00 -0.15817680661E+02  0.16228804080E+02  0.51100000000E-03 0.  1.
         12    1    3    3    0    0 -0.15180582889E+02 -0.83071184924E+00 -0.12624120161E+02  0.19761290162E+02  0.00000000000E+00 0. -1.
</event>
<event>
 7    1  0.4237994E-013  0.5930195E+02  0.7816164E-02  0.1266605E+00
        -11   -1    0    0    0    0  0.00000000000E+00  0.00000000000E+00  0.45593999997E+02  0.45594000000E+02  0.51100000000E-03 0. -1.
         11   -1    0    0    0    0 -0.00000000000E+00 -0.00000000000E+00 -0.45593999997E+02  0.45594000000E+02  0.51100000000E-03 0.  1.
    9900012    2    1    2    0    0 -0.22717934414E+02 -0.14626085113E+02 -0.16932013667E+02  0.59301952948E+02  0.50000016269E+02 0.  0.
         12    1    1    2    0    0  0.22717934414E+02  0.14626085113E+02  0.16932013667E+02  0.31886047052E+02  0.00000000000E+00 0. -1.
         11    1    3    3    0    0  0.95870819771E+00 -0.15459527142E+02  0.36029621955E+01  0.15902749376E+02  0.51100000000E-03 0. -1.
        -11    1    3    3    0    0 -0.25243127450E+02 -0.10093715537E+02 -0.14192342168E+02  0.30667917329E+02  0.51100000000E-03 0.  1.
         12    1    3    3    0    0  0.15664848386E+01  0.10927157567E+02 -0.63426336942E+01  0.12731286244E+02  0.00000000000E+00 0. -1.
</event>
<event>
 7    1  0.4237994E-013  0.5930195E+02  0.7816164E-02  0.1266605E+00
        -11   -1    0    0    0    0  0.00000000000E+00  0.00000000000E+00  0.45593999997E+02  0.45594000000E+02  0.51100000000E-03 0.  1.
         11   -1    0    0    0    0 -0.00000000000E+00 -0.00000000000E+00 -0.45593999997E+02  0.45594000000E+02  0.51100000000E-03 0. -1.
    9900012    2    1    2    0    0 -0.31380186114E+02  0.32828875700E+01 -0.46072353956E+01  0.59301952121E+02  0.50000014761E+02 0.  0.
         12    1    1    2    0    0  0.31380186114E+02 -0.32828875700E+01  0.46072353956E+01  0.31886047879E+02  0.00000000000E+00 0. -1.
         11    1    3    3    0    0  0.18794853569E+01 -0.10484018748E+01 -0.94871049401E+01  0.97281433020E+01  0.51100000000E-03 0. -1.
        -11    1    3    3    0    0 -0.23069213056E+02  0.19154119313E+02  0.86248660045E+01  0.31200275504E+02  0.51100000000E-03 0.  1.
         12    1    3    3    0    0 -0.10190458415E+02 -0.14822829868E+02 -0.37449964600E+01  0.18373533315E+02  0.00000000000E+00 0. -1.
</event>
<event>
 7    1  0.4237994E-013  0.5930194E+02  0.7816164E-02  0.1266605E+00
        -11   -1    0    0    0    0  0.00000000000E+00  0.00000000000E+00  0.45593999997E+02  0.45594000000E+02  0.51100000000E-03 0. -1.
         11   -1    0    0    0    0 -0.00000000000E+00 -0.00000000000E+00 -0.45593999997E+02  0.45594000000E+02  0.51100000000E-03 0.  1.
    9900012    2    1    2    0    0  0.29906812955E+02 -0.42510083740E+01  0.10209426301E+02  0.59301938488E+02  0.49999989897E+02 0.  0.
         12    1    1    2    0    0 -0.29906812955E+02  0.42510083740E+01 -0.10209426301E+02  0.31886061512E+02  0.00000000000E+00 0. -1.
         11    1    3    3    0    0  0.32660226921E+01 -0.74602989092E+00  0.24729751292E+02  0.24955641928E+02  0.51100000000E-03 0. -1.
        -11    1    3    3    0    0  0.15438057521E+02 -0.35856101136E+01  0.19693276383E+00  0.15850205130E+02  0.51100000000E-03 0.  1.
         12    1    3    3    0    0  0.11202732743E+02  0.80631630503E-01 -0.14717257755E+02  0.18496091430E+02  0.00000000000E+00 0. -1.
</event>
<event>
 7    1  0.4237994E-013  0.5930196E+02  0.7816164E-02  0.1266605E+00
        -11   -1    0    0    0    0  0.00000000000E+00  0.00000000000E+00  0.45593999997E+02  0.45594000000E+02  0.51100000000E-03 0. -1.
         11   -1    0    0    0    0 -0.00000000000E+00 -0.00000000000E+00 -0.45593999997E+02  0.45594000000E+02  0.51100000000E-03 0.  1.
    9900012    2    1    2    0    0  0.28243695940E+02  0.91128507100E+01 -0.11660583754E+02  0.59301958824E+02  0.50000026985E+02 0.  0.
         12    1    1    2    0    0 -0.28243695940E+02 -0.91128507100E+01  0.11660583754E+02  0.31886041176E+02  0.00000000000E+00 0. -1.
         11    1    3    3    0    0  0.91982751155E+01  0.66841075725E+01  0.81678826075E+01  0.13999995203E+02  0.51100000000E-03 0. -1.
        -11    1    3    3    0    0 -0.64206825748E+01 -0.89568875950E+01 -0.12077259307E+02  0.16349654208E+02  0.51100000000E-03 0.  1.
        -12    1    3    3    0    0  0.25466103399E+02  0.11385630732E+02 -0.77512070550E+01  0.28952309412E+02  0.00000000000E+00 0.  1.
</event>
<event>
 7    1  0.4237994E-013  0.5930194E+02  0.7816164E-02  0.1266605E+00
        -11   -1    0    0    0    0  0.00000000000E+00  0.00000000000E+00  0.45593999997E+02  0.45594000000E+02  0.51100000000E-03 0.  1.
         11   -1    0    0    0    0 -0.00000000000E+00 -0.00000000000E+00 -0.45593999997E+02  0.45594000000E+02  0.51100000000E-03 0. -1.
    9900012    2    1    2    0    0 -0.20894664318E+02 -0.31548834561E+01  0.23878455278E+02  0.59301938577E+02  0.49999990060E+02 0.  0.
         12    1    1    2    0    0  0.20894664318E+02  0.31548834561E+01 -0.23878455278E+02  0.31886061423E+02  0.00000000000E+00 0. -1.
         11    1    3    3    0    0  0.79219412308E+00  0.77109667352E+01  0.24354882209E+02  0.25558694552E+02  0.51100000000E-03 0. -1.
        -11    1    3    3    0    0 -0.21419184650E+02  0.88581214925E+00  0.25947385485E+01  0.21593952918E+02  0.51100000000E-03 0.  1.
         12    1    3    3    0    0 -0.26767379152E+00 -0.11751662341E+02 -0.30711654794E+01  0.12149291108E+02  0.00000000000E+00 0. -1.
</event>
<event>
 7    1  0.4237994E-013  0.5930206E+02  0.7816164E-02  0.1266604E+00
        -11   -1    0    0    0    0  0.00000000000E+00  0.00000000000E+00  0.45593999997E+02  0.45594000000E+02  0.51100000000E-03 0.  1.
         11   -1    0    0    0    0 -0.00000000000E+00 -0.00000000000E+00 -0.45593999997E+02  0.45594000000E+02  0.51100000000E-03 0. -1.
    9900012    2    1    2    0    0 -0.26970464458E+02 -0.68353191891E+01 -0.15575153621E+02  0.59302063416E+02  0.50000217735E+02 0.  0.
         12    1    1    2    0    0  0.26970464458E+02  0.68353191891E+01  0.15575153621E+02  0.31885936584E+02  0.00000000000E+00 0. -1.
         11    1    3    3    0    0 -0.40671892594E+02 -0.52872261651E+01 -0.18192190075E+02  0.44867732144E+02  0.51100000000E-03 0. -1.
        -11    1    3    3    0    0  0.97194401447E+01 -0.20419726504E+01  0.30725879917E+01  0.10396055322E+02  0.51100000000E-03 0.  1.
         12    1    3    3    0    0  0.39819879914E+01  0.49387962637E+00 -0.45555153771E+00  0.40382759505E+01  0.00000000000E+00 0. -1.
</event>
<event>
 7    1  0.4237994E-013  0.5930209E+02  0.7816164E-02  0.1266604E+00
        -11   -1    0    0    0    0  0.00000000000E+00  0.00000000000E+00  0.45593999997E+02  0.45594000000E+02  0.51100000000E-03 0.  1.
         11   -1    0    0    0    0 -0.00000000000E+00 -0.00000000000E+00 -0.45593999997E+02  0.45594000000E+02  0.51100000000E-03 0. -1.
    9900012    2    1    2    0    0 -0.16347184525E+02  0.51324876353E+01  0.26891233212E+02  0.59302089398E+02  0.50000265120E+02 0.  0.
         12    1    1    2    0    0  0.16347184525E+02 -0.51324876353E+01 -0.26891233212E+02  0.31885910602E+02  0.00000000000E+00 0. -1.
         11    1    3    3    0    0  0.10753790764E+02 -0.67202747924E+01  0.13759971643E+02  0.18712106481E+02  0.51100000000E-03 0.  1.
        -11    1    3    3    0    0 -0.21255663596E+02  0.56914286743E+01 -0.31480154658E+01  0.22228486159E+02  0.51100000000E-03 0. -1.
        -12    1    3    3    0    0 -0.58453116927E+01  0.61613337535E+01  0.16279277035E+02  0.18361496758E+02  0.00000000000E+00 0.  1.
</event>
<event>
 7    1  0.4237994E-013  0.5930196E+02  0.7816164E-02  0.1266605E+00
        -11   -1    0    0    0    0  0.00000000000E+00  0.00000000000E+00  0.45593999997E+02  0.45594000000E+02  0.51100000000E-03 0. -1.
         11   -1    0    0    0    0 -0.00000000000E+00 -0.00000000000E+00 -0.45593999997E+02  0.45594000000E+02  0.51100000000E-03 0.  1.
    9900012    2    1    2    0    0  0.18007072478E+02 -0.25010969892E+02 -0.81802516159E+01  0.59301956178E+02  0.50000022158E+02 0.  0.
         12    1    1    2    0    0 -0.18007072478E+02  0.25010969892E+02  0.81802516159E+01  0.31886043822E+02  0.00000000000E+00 0. -1.
         11    1    3    3    0    0  0.59424649261E+01 -0.71825433608E+01 -0.97789299708E+01  0.13510340120E+02  0.51100000000E-03 0.  1.
        -11    1    3    3    0    0 -0.80513182097E+01 -0.19070301273E+02  0.11123946344E+02  0.23499836129E+02  0.51100000000E-03 0. -1.
        -12    1    3    3    0    0  0.20115925761E+02  0.12418747423E+01 -0.95252679891E+01  0.22291779928E+02  0.00000000000E+00 0.  1.
</event>
<event>
 7    1  0.4237994E-013  0.5930190E+02  0.7816164E-02  0.1266605E+00
        -11   -1    0    0    0    0  0.00000000000E+00  0.00000000000E+00  0.45593999997E+02  0.45594000000E+02  0.51100000000E-03 0.  1.
         11   -1    0    0    0    0 -0.00000000000E+00 -0.00000000000E+00 -0.45593999997E+02  0.45594000000E+02  0.51100000000E-03 0. -1.
    9900012    2    1    2    0    0  0.16832794614E+02  0.21973203231E+02  0.15829039566E+02  0.59301903840E+02  0.49999926707E+02 0.  0.
         12    1    1    2    0    0 -0.16832794614E+02 -0.21973203231E+02 -0.15829039566E+02  0.31886096160E+02  0.00000000000E+00 0. -1.
         11    1    3    3    0    0 -0.77136976572E+01 -0.92551240586E+00  0.32833648390E+01  0.84343458364E+01  0.51100000000E-03 0. -1.
        -11    1    3    3    0    0  0.22716451840E+02  0.12073063629E+02  0.23870637996E+02  0.35094207616E+02  0.51100000000E-03 0.  1.
        -12    1    3    3    0    0  0.18300404314E+01  0.10825652008E+02 -0.11324963270E+02  0.15773350387E+02  0.00000000000E+00 0.  1.
</event>
<event>
 7    1  0.4237994E-013  0.5930203E+02  0.7816164E-02  0.1266604E+00
        -11   -1    0    0    0    0  0.00000000000E+00  0.00000000000E+00  0.45593999997E+02  0.45594000000E+02  0.51100000000E-03 0.  1.
         11   -1    0    0    0    0 -0.00000000000E+00 -0.00000000000E+00 -0.45593999997E+02  0.45594000000E+02  0.51100000000E-03 0. -1.
    9900012    2    1    2    0    0 -0.28727451761E+02 -0.10442953522E+02  0.90770708094E+01  0.59302031653E+02  0.50000159807E+02 0.  0.
         12    1    1    2    0    0  0.28727451761E+02  0.10442953522E+02 -0.90770708094E+01  0.31885968347E+02  0.00000000000E+00 0. -1.
         11    1    3    3    0    0 -0.18019868496E+02  0.23539473724E+01 -0.14638858337E+02  0.23335657319E+02  0.51100000000E-03 0. -1.
        -11    1    3    3    0    0  0.24530735600E+01 -0.13060237297E+02  0.15640319113E+02  0.20523326981E+02  0.51100000000E-03 0.  1.
         12    1    3    3    0    0 -0.13160656825E+02  0.26333640252E+00  0.80756100328E+01  0.15443047352E+02  0.00000000000E+00 0. -1.
</event>
<event>
 7    1  0.4237994E-013  0.5930213E+02  0.7816164E-02  0.1266604E+00
        -11   -1    0    0    0    0  0.00000000000E+00  0.00000000000E+00  0.45593999997E+02  0.45594000000E+02  0.51100000000E-03 0.  1.
         11   -1    0    0    0    0 -0.00000000000E+00 -0.00000000000E+00 -0.45593999997E+02  0.45594000000E+02  0.51100000000E-03 0. -1.
    9900012    2    1    2    0    0 -0.28122659129E+02 -0.10968648971E+01  0.14987379571E+02  0.59302131414E+02  0.50000341747E+02 0.  0.
         12    1    1    2    0    0  0.28122659129E+02  0.10968648971E+01 -0.14987379571E+02  0.31885868586E+02  0.00000000000E+00 0. -1.
         11    1    3    3    0    0 -0.10982461629E+02  0.81667972445E+01 -0.15281639840E+02  0.20514374402E+02  0.51100000000E-03 0. -1.
        -11    1    3    3    0    0 -0.19133856224E+02 -0.93763380596E+01  0.23460752635E+02  0.31692697643E+02  0.51100000000E-03 0.  1.
         12    1    3    3    0    0  0.19936587242E+01  0.11267591799E+00  0.68082667749E+01  0.70950593689E+01  0.00000000000E+00 0. -1.
</event>
<event>
 7    1  0.4237994E-013  0.5930196E+02  0.7816164E-02  0.1266605E+00
        -11   -1    0    0    0    0  0.00000000000E+00  0.00000000000E+00  0.45593999997E+02  0.45594000000E+02  0.51100000000E-03 0. -1.
         11   -1    0    0    0    0 -0.00000000000E+00 -0.00000000000E+00 -0.45593999997E+02  0.45594000000E+02  0.51100000000E-03 0.  1.
    9900012    2    1    2    0    0 -0.46082164132E+01  0.17826332728E+01 -0.31500894913E+02  0.59301955713E+02  0.50000021312E+02 0.  0.
         12    1    1    2    0    0  0.46082164132E+01 -0.17826332728E+01  0.31500894913E+02  0.31886044287E+02  0.00000000000E+00 0. -1.
         11    1    3    3    0    0  0.41851095164E+01  0.43343391097E+01  0.79113856756E+01  0.99444286287E+01  0.51100000000E-03 0. -1.
        -11    1    3    3    0    0  0.40074198770E+01  0.72819779234E+01 -0.28954910504E+02  0.30124300143E+02  0.51100000000E-03 0.  1.
        -12    1    3    3    0    0 -0.12800745807E+02 -0.98336837603E+01 -0.10457370085E+02  0.19233226942E+02  0.00000000000E+00 0.  1.
</event>
<event>
 7    1  0.4237994E-013  0.5930199E+02  0.7816164E-02  0.1266605E+00
        -11   -1    0    0    0    0  0.00000000000E+00  0.00000000000E+00  0.45593999997E+02  0.45594000000E+02  0.51100000000E-03 0.  1.
         11   -1    0    0    0    0 -0.00000000000E+00 -0.00000000000E+00 -0.45593999997E+02  0.45594000000E+02  0.51100000000E-03 0. -1.
    9900012    2    1    2    0    0 -0.19704703648E+02  0.24380708166E+02  0.58329285056E+01  0.59301994740E+02  0.50000092486E+02 0.  0.
         12    1    1    2    0    0  0.19704703648E+02 -0.24380708166E+02 -0.58329285056E+01  0.31886005260E+02  0.00000000000E+00 0. -1.
         11    1    3    3    0    0  0.34490645913E+01  0.24082252568E+02  0.27120887167E+01  0.24478691974E+02  0.51100000000E-03 0. -1.
        -11    1    3    3    0    0 -0.22754382356E+02  0.16258346788E+00 -0.76786167270E+01  0.24015609609E+02  0.51100000000E-03 0.  1.
        -12    1    3    3    0    0 -0.39938588275E+00  0.13587213017E+00  0.10799456516E+02  0.10807693156E+02  0.00000000000E+00 0.  1.
</event>
<event>
 7    1  0.4237994E-013  0.5930202E+02  0.7816164E-02  0.1266605E+00
        -11   -1    0    0    0    0  0.00000000000E+00  0.00000000000E+00  0.45593999997E+02  0.45594000000E+02  0.51100000000E-03 0.  1.
         11   -1    0    0    0    0 -0.00000000000E+00 -0.00000000000E+00 -0.45593999997E+02  0.45594000000E+02  0.51100000000E-03 0. -1.
    9900012    2    1    2    0    0 -0.14010597227E+02 -0.83830277476E+01  0.27388756759E+02  0.59302015843E+02  0.50000130973E+02 0.  0.
         12    1    1    2    0    0  0.14010597227E+02  0.83830277476E+01 -0.27388756759E+02  0.31885984157E+02  0.00000000000E+00 0. -1.
         11    1    3    3    0    0 -0.20983579840E+02  0.39351478501E+01  0.83446046913E+01  0.22922225878E+02  0.51100000000E-03 0. -1.
        -11    1    3    3    0    0  0.31838577417E+01 -0.20742857903E+02  0.93038922875E+01  0.22955729483E+02  0.51100000000E-03 0.  1.
         12    1    3    3    0    0  0.37891248714E+01  0.84246823057E+01  0.97402597802E+01  0.13424060482E+02  0.00000000000E+00 0. -1.
</event>
<event>
 7    1  0.4237994E-013  0.5930195E+02  0.7816164E-02  0.1266605E+00
        -11   -1    0    0    0    0  0.00000000000E+00  0.00000000000E+00  0.45593999997E+02  0.45594000000E+02  0.51100000000E-03 0. -1.
         11   -1    0    0    0    0 -0.00000000000E+00 -0.00000000000E+00 -0.45593999997E+02  0.45594000000E+02  0.51100000000E-03 0.  1.
    9900012    2    1    2    0    0  0.17443300190E+02  0.35163772293E+01 -0.26459146967E+02  0.59301951506E+02  0.50000013638E+02 0.  0.
         12    1    1    2    0    0 -0.17443300190E+02 -0.35163772293E+01  0.26459146967E+02  0.31886048494E+02  0.00000000000E+00 0. -1.
         11    1    3    3    0    0 -0.63259325056E+00  0.15604938551E+02 -0.22184656618E+02  0.27130670300E+02  0.51100000000E-03 0. -1.
        -11    1    3    3    0    0  0.90908680021E+01 -0.13048722143E+02  0.72905150710E+01  0.17494703223E+02  0.51100000000E-03 0.  1.
        -12    1    3    3    0    0  0.89850254383E+01  0.96016082109E+00 -0.11565005420E+02  0.14676577983E+02  0.00000000000E+00 0.  1.
</event>
<event>
 7    1  0.4237994E-013  0.5930194E+02  0.7816164E-02  0.1266605E+00
        -11   -1    0    0    0    0  0.00000000000E+00  0.00000000000E+00  0.45593999997E+02  0.45594000000E+02  0.51100000000E-03 0.  1.
         11   -1    0    0    0    0 -0.00000000000E+00 -0.00000000000E+00 -0.45593999997E+02  0.45594000000E+02  0.51100000000E-03 0. -1.
    9900012    2    1    2    0    0  0.37863970874E+01  0.23931662424E+02  0.20728237098E+02  0.59301935921E+02  0.49999985215E+02 0.  0.
         12    1    1    2    0    0 -0.37863970874E+01 -0.23931662424E+02 -0.20728237098E+02  0.31886064079E+02  0.00000000000E+00 0. -1.
         11    1    3    3    0    0 -0.56410608828E+01 -0.51383117166E+01  0.20328314666E+02  0.21713226214E+02  0.51100000000E-03 0. -1.
        -11    1    3    3    0    0  0.15770532818E+02  0.14013144051E+02 -0.14460808953E+01  0.21146372307E+02  0.51100000000E-03 0.  1.
         12    1    3    3    0    0 -0.63430748479E+01  0.15056830090E+02  0.18460033272E+01  0.16442337400E+02  0.00000000000E+00 0. -1.
</event>
<event>
 7    1  0.4237994E-013  0.5930195E+02  0.7816164E-02  0.1266605E+00
        -11   -1    0    0    0    0  0.00000000000E+00  0.00000000000E+00  0.45593999997E+02  0.45594000000E+02  0.51100000000E-03 0. -1.
         11   -1    0    0    0    0 -0.00000000000E+00 -0.00000000000E+00 -0.45593999997E+02  0.45594000000E+02  0.51100000000E-03 0.  1.
    9900012    2    1    2    0    0 -0.18689683567E+02 -0.25834056138E+02 -0.13242516990E+00  0.59301948742E+02  0.50000008598E+02 0.  0.
         12    1    1    2    0    0  0.18689683567E+02  0.25834056138E+02  0.13242516990E+00  0.31886051258E+02  0.00000000000E+00 0. -1.
         11    1    3    3    0    0  0.47438534380E+01 -0.29037632033E+02 -0.62389722055E+01  0.30076784967E+02  0.51100000000E-03 0. -1.
        -11    1    3    3    0    0 -0.13904003415E+02  0.59809619232E+01  0.10447535851E+02  0.18391417078E+02  0.51100000000E-03 0.  1.
        -12    1    3    3    0    0 -0.95295335900E+01 -0.27773860284E+01 -0.43409888158E+01  0.10833746697E+02  0.00000000000E+00 0.  1.
</event>
<event>
 7    1  0.4237994E-013  0.5930194E+02  0.7816164E-02  0.1266605E+00
        -11   -1    0    0    0    0  0.00000000000E+00  0.00000000000E+00  0.45593999997E+02  0.45594000000E+02  0.51100000000E-03 0.  1.
         11   -1    0    0    0    0 -0.00000000000E+00 -0.00000000000E+00 -0.45593999997E+02  0.45594000000E+02  0.51100000000E-03 0. -1.
    9900012    2    1    2    0    0 -0.98696202796E+01  0.20331636425E+02  0.22493027274E+02  0.59301935330E+02  0.49999984138E+02 0.  0.
         12    1    1    2    0    0  0.98696202796E+01 -0.20331636425E+02 -0.22493027274E+02  0.31886064670E+02  0.00000000000E+00 0. -1.
         11    1    3    3    0    0 -0.71832805852E+01 -0.12656756576E+02  0.15216965615E+02  0.21055855475E+02  0.51100000000E-03 0. -1.
        -11    1    3    3    0    0 -0.22004877927E+01  0.18532177430E+02  0.12942852271E+02  0.22711256504E+02  0.51100000000E-03 0.  1.
         12    1    3    3    0    0 -0.48585190178E+00  0.14456215571E+02 -0.56667906122E+01  0.15534823351E+02  0.00000000000E+00 0. -1.
</event>
<event>
 7    1  0.4237994E-013  0.5930194E+02  0.7816164E-02  0.1266605E+00
        -11   -1    0    0    0    0  0.00000000000E+00  0.00000000000E+00  0.45593999997E+02  0.45594000000E+02  0.51100000000E-03 0. -1.
         11   -1    0    0    0    0 -0.00000000000E+00 -0.00000000000E+00 -0.45593999997E+02  0.45594000000E+02  0.51100000000E-03 0.  1.
    9900012    2    1    2    0    0  0.50719222684E+01  0.22761609905E+02 -0.21746389527E+02  0.59301941316E+02  0.49999995054E+02 0.  0.
         12    1    1    2    0    0 -0.50719222684E+01 -0.22761609905E+02  0.21746389527E+02  0.31886058684E+02  0.00000000000E+00 0. -1.
         11    1    3    3    0    0  0.14001846430E+01 -0.35445610925E+01 -0.42175020035E+01  0.56843428629E+01  0.51100000000E-03 0. -1.
        -11    1    3    3    0    0  0.29326575263E+01  0.78021332930E+01  0.14439620121E+02  0.16672624076E+02  0.51100000000E-03 0.  1.
        -12    1    3    3    0    0  0.73908009908E+00  0.18504037704E+02 -0.31968507644E+02  0.36944974377E+02  0.00000000000E+00 0.  1.
</event>
<event>
 7    1  0.4237994E-013  0.5930195E+02  0.7816164E-02  0.1266605E+00
        -11   -1    0    0    0    0  0.00000000000E+00  0.00000000000E+00  0.45593999997E+02  0.45594000000E+02  0.51100000000E-03 0. -1.
         11   -1    0    0    0    0 -0.00000000000E+00 -0.00000000000E+00 -0.45593999997E+02  0.45594000000E+02  0.51100000000E-03 0.  1.
    9900012    2    1    2    0    0  0.14777929356E+02  0.21808703861E+01 -0.28170499224E+02  0.59301946337E+02  0.50000004211E+02 0.  0.
         12    1    1    2    0    0 -0.14777929356E+02 -0.21808703861E+01  0.28170499224E+02  0.31886053663E+02  0.00000000000E+00 0. -1.
         11    1    3    3    0    0  0.37735269213E+01 -0.10334034107E+02 -0.19826575847E+02  0.22674321962E+02  0.51100000000E-03 0. -1.
        -11    1    3    3    0    0  0.19487391487E+01  0.21499094741E+02 -0.38208018167E+00  0.21590614731E+02  0.51100000000E-03 0.  1.
         12    1    3    3    0    0  0.90556632856E+01 -0.89841902475E+01 -0.79618431950E+01  0.15037009643E+02  0.00000000000E+00 0. -1.
</event>
<event>
 7    1  0.4237994E-013  0.5930193E+02  0.7816164E-02  0.1266605E+00
        -11   -1    0    0    0    0  0.00000000000E+00  0.00000000000E+00  0.45593999997E+02  0.45594000000E+02  0.51100000000E-03 0.  1.
         11   -1    0    0    0    0 -0.00000000000E+00 -0.00000000000E+00 -0.45593999997E+02  0.45594000000E+02  0.51100000000E-03 0. -1.
    9900012    2    1    2    0    0 -0.44514889024E+01  0.85273234949E+01  0.30400501264E+02  0.59301929742E+02  0.49999973946E+02 0.  0.
         12    1    1    2    0    0  0.44514889024E+01 -0.85273234949E+01 -0.30400501264E+02  0.31886070258E+02  0.00000000000E+00 0. -1.
         11    1    3    3    0    0  0.77917516920E+01 -0.12338276140E+01  0.39893894229E+02  0.40666405325E+02  0.51100000000E-03 0.  1.
        -11    1    3    3    0    0 -0.10244192279E+02  0.65330907517E+01 -0.80429970764E+01  0.14571017550E+02  0.51100000000E-03 0. -1.
        -12    1    3    3    0    0 -0.19990483152E+01  0.32280603571E+01 -0.14503958889E+01  0.40645068668E+01  0.00000000000E+00 0.  1.
</event>
<event>
 7    1  0.4237994E-013  0.5930193E+02  0.7816164E-02  0.1266605E+00
        -11   -1    0    0    0    0  0.00000000000E+00  0.00000000000E+00  0.45593999997E+02  0.45594000000E+02  0.51100000000E-03 0.  1.
         11   -1    0    0    0    0 -0.00000000000E+00 -0.00000000000E+00 -0.45593999997E+02  0.45594000000E+02  0.51100000000E-03 0. -1.
    9900012    2    1    2    0    0 -0.35822160650E+01 -0.19496119288E+02  0.24975797035E+02  0.59301931306E+02  0.49999976799E+02 0.  0.
         12    1    1    2    0    0  0.35822160650E+01  0.19496119288E+02 -0.24975797035E+02  0.31886068694E+02  0.00000000000E+00 0. -1.
         11    1    3    3    0    0 -0.11441670457E+02  0.11534251392E+00  0.20294519155E+01  0.11620834827E+02  0.51100000000E-03 0. -1.
        -11    1    3    3    0    0  0.11458967814E+02 -0.54656011981E+01  0.29169985664E+02  0.31813028836E+02  0.51100000000E-03 0.  1.
        -12    1    3    3    0    0 -0.35995134220E+01 -0.14145860604E+02 -0.62236405443E+01  0.15868067643E+02  0.00000000000E+00 0.  1.
</event>
<event>
 7    1  0.4237994E-013  0.5930194E+02  0.7816164E-02  0.1266605E+00
        -11   -1    0    0    0    0  0.00000000000E+00  0.00000000000E+00  0.45593999997E+02  0.45594000000E+02  0.51100000000E-03 0. -1.
         11   -1    0    0    0    0 -0.00000000000E+00 -0.00000000000E+00 -0.45593999997E+02  0.45594000000E+02  0.51100000000E-03 0.  1.
    9900012    2    1    2    0    0 -0.30388048597E+02  0.66219356468E+01 -0.70311522288E+01  0.59301943002E+02  0.49999998129E+02 0.  0.
         12    1    1    2    0    0  0.30388048597E+02 -0.66219356468E+01  0.70311522288E+01  0.31886056998E+02  0.00000000000E+00 0. -1.
         11    1    3    3    0    0 -0.12379685959E+02 -0.79278361540E+01  0.96736920866E+01  0.17597941055E+02  0.51100000000E-03 0.  1.
        -11    1    3    3    0    0 -0.12946227620E+02  0.22520776776E+02 -0.46474080411E+01  0.26389175772E+02  0.51100000000E-03 0. -1.
        -12    1    3    3    0    0 -0.50621350180E+01 -0.79710049751E+01 -0.12057436274E+02  0.15314826175E+02  0.00000000000E+00 0.  1.
</event>
<event>
 7    1  0.4237994E-013  0.5930194E+02  0.7816164E-02  0.1266605E+00
        -11   -1    0    0    0    0  0.00000000000E+00  0.00000000000E+00  0.45593999997E+02  0.45594000000E+02  0.51100000000E-03 0. -1.
         11   -1    0    0    0    0 -0.00000000000E+00 -0.00000000000E+00 -0.45593999997E+02  0.45594000000E+02  0.51100000000E-03 0.  1.
    9900012    2    1    2    0    0  0.10729134741E+02 -0.28203843653E+02 -0.10302911396E+02  0.59301935453E+02  0.49999984361E+02 0.  0.
         12    1    1    2    0    0 -0.10729134741E+02  0.28203843653E+02  0.10302911396E+02  0.31886064547E+02  0.00000000000E+00 0. -1.
         11    1    3    3    0    0  0.80733371425E+01 -0.16867121164E+02  0.89980128280E+01  0.20751934466E+02  0.51100000000E-03 0. -1.
        -11    1    3    3    0    0 -0.65964372055E+01 -0.14796268294E+02 -0.22887903753E+02  0.28041017773E+02  0.51100000000E-03 0.  1.
        -12    1    3    3    0    0  0.92522348040E+01  0.34595458055E+01  0.35869795294E+01  0.10508983214E+02  0.00000000000E+00 0.  1.
</event>
<event>
 7    1  0.4741722E-013  0.5930193E+02  0.7816164E-02  0.1266605E+00
        -11   -1    0    0    0    0  0.00000000000E+00  0.00000000000E+00  0.45593999997E+02  0.45594000000E+02  0.51100000000E-03 0. -1.
         11   -1    0    0    0    0 -0.00000000000E+00 -0.00000000000E+00 -0.45593999997E+02  0.45594000000E+02  0.51100000000E-03 0.  1.
    9900012    2    1    2    0    0  0.25204584483E+02  0.79434343914E+00 -0.19514593949E+02  0.59301930354E+02  0.49999975063E+02 0.  0.
         12    1    1    2    0    0 -0.25204584483E+02 -0.79434343914E+00  0.19514593949E+02  0.31886069646E+02  0.00000000000E+00 0. -1.
         11    1    3    3    0    0  0.17160625965E+02  0.10921021842E+02  0.29428809683E+01  0.20552769892E+02  0.51100000000E-03 0. -1.
        -11    1    3    3    0    0 -0.53727893832E+00  0.32853899074E+01 -0.22582261200E+02  0.22826322014E+02  0.51100000000E-03 0.  1.
        -12    1    3    3    0    0  0.85812374557E+01 -0.13412068310E+02  0.12478628245E+00  0.15922838448E+02  0.00000000000E+00 0.  1.
</event>
<event>
 7    1  0.4237994E-013  0.5930187E+02  0.7816164E-02  0.1266605E+00
        -11   -1    0    0    0    0  0.00000000000E+00  0.00000000000E+00  0.45593999997E+02  0.45594000000E+02  0.51100000000E-03 0.  1.
         11   -1    0    0    0    0 -0.00000000000E+00 -0.00000000000E+00 -0.45593999997E+02  0.45594000000E+02  0.51100000000E-03 0. -1.
    9900012    2    1    2    0    0  0.25503145507E+02 -0.33279355441E+01  0.18847799945E+02  0.59301872163E+02  0.49999868935E+02 0.  0.
         12    1    1    2    0    0 -0.25503145507E+02  0.33279355441E+01 -0.18847799945E+02  0.31886127837E+02  0.00000000000E+00 0. -1.
         11    1    3    3    0    0 -0.17763667693E+01  0.31915357607E+01  0.35859944355E+01  0.51186654280E+01  0.51100000000E-03 0. -1.
        -11    1    3    3    0    0  0.35774911522E+02  0.37806826818E+01  0.30737272016E+01  0.36105202604E+02  0.51100000000E-03 0.  1.
        -12    1    3    3    0    0 -0.84953992460E+01 -0.10300153987E+02  0.12188078308E+02  0.18078004130E+02  0.00000000000E+00 0.  1.
</event>
<event>
 7    1  0.4237994E-013  0.5930196E+02  0.7816164E-02  0.1266605E+00
        -11   -1    0    0    0    0  0.00000000000E+00  0.00000000000E+00  0.45593999997E+02  0.45594000000E+02  0.51100000000E-03 0. -1.
         11   -1    0    0    0    0 -0.00000000000E+00 -0.00000000000E+00 -0.45593999997E+02  0.45594000000E+02  0.51100000000E-03 0.  1.
    9900012    2    1    2    0    0  0.31377503616E+02  0.51985880208E+01 -0.22685944455E+01  0.59301959617E+02  0.50000028431E+02 0.  0.
         12    1    1    2    0    0 -0.31377503616E+02 -0.51985880208E+01  0.22685944455E+01  0.31886040383E+02  0.00000000000E+00 0. -1.
         11    1    3    3    0    0  0.40214739664E+00 -0.79238314827E+01 -0.13246412215E+02  0.15440733944E+02  0.51100000000E-03 0. -1.
        -11    1    3    3    0    0  0.28858766200E+02  0.20101695360E+02  0.92667269519E+01  0.36370025730E+02  0.51100000000E-03 0.  1.
        -12    1    3    3    0    0  0.21165900188E+01 -0.69792758568E+01  0.17110908176E+01  0.74911999425E+01  0.00000000000E+00 0.  1.
</event>
<event>
 7    1  0.4237994E-013  0.5930193E+02  0.7816164E-02  0.1266605E+00
        -11   -1    0    0    0    0  0.00000000000E+00  0.00000000000E+00  0.45593999997E+02  0.45594000000E+02  0.51100000000E-03 0. -1.
         11   -1    0    0    0    0 -0.00000000000E+00 -0.00000000000E+00 -0.45593999997E+02  0.45594000000E+02  0.51100000000E-03 0.  1.
    9900012    2    1    2    0    0 -0.95344929478E+01  0.15851997877E+02 -0.25971699908E+02  0.59301927984E+02  0.49999970740E+02 0.  0.
         12    1    1    2    0    0  0.95344929478E+01 -0.15851997877E+02  0.25971699908E+02  0.31886072016E+02  0.00000000000E+00 0. -1.
         11    1    3    3    0    0  0.92058150959E+00  0.53320982338E+01  0.39144917759E+01  0.66784719821E+01  0.51100000000E-03 0. -1.
        -11    1    3    3    0    0  0.76169499304E+01 -0.10062807785E+02 -0.19708517194E+02  0.23403069820E+02  0.51100000000E-03 0.  1.
        -12    1    3    3    0    0 -0.18072024388E+02  0.20582707429E+02 -0.10177674490E+02  0.29220386182E+02  0.00000000000E+00 0.  1.
</event>
<event>
 7    1  0.4237994E-013  0.5930198E+02  0.7816164E-02  0.1266605E+00
        -11   -1    0    0    0    0  0.00000000000E+00  0.00000000000E+00  0.45593999997E+02  0.45594000000E+02  0.51100000000E-03 0. -1.
         11   -1    0    0    0    0 -0.00000000000E+00 -0.00000000000E+00 -0.45593999997E+02  0.45594000000E+02  0.51100000000E-03 0.  1.
    9900012    2    1    2    0    0  0.19827076935E+01  0.77484237014E+01 -0.30866631327E+02  0.59301982232E+02  0.50000069675E+02 0.  0.
         12    1    1    2    0    0 -0.19827076935E+01 -0.77484237014E+01  0.30866631327E+02  0.31886017768E+02  0.00000000000E+00 0. -1.
         11    1    3    3    0    0 -0.12711040944E+00  0.24252344783E+02 -0.27734026789E+02  0.36842483992E+02  0.51100000000E-03 0. -1.
        -11    1    3    3    0    0 -0.14992179136E+01 -0.74020801626E+01 -0.84371996227E+01  0.11323638232E+02  0.51100000000E-03 0.  1.
         12    1    3    3    0    0  0.36090360165E+01 -0.91018409189E+01  0.53045950847E+01  0.11135860007E+02  0.00000000000E+00 0. -1.
</event>
<event>
 7    1  0.4237994E-013  0.5930197E+02  0.7816164E-02  0.1266605E+00
        -11   -1    0    0    0    0  0.00000000000E+00  0.00000000000E+00  0.45593999997E+02  0.45594000000E+02  0.51100000000E-03 0. -1.
         11   -1    0    0    0    0 -0.00000000000E+00 -0.00000000000E+00 -0.45593999997E+02  0.45594000000E+02  0.51100000000E-03 0.  1.
    9900012    2    1    2    0    0 -0.58866238614E+01 -0.52508205472E+01 -0.30894904874E+02  0.59301974784E+02  0.50000056093E+02 0.  0.
         12    1    1    2    0    0  0.58866238614E+01  0.52508205472E+01  0.30894904874E+02  0.31886025216E+02  0.00000000000E+00 0. -1.
         11    1    3    3    0    0  0.99834772565E+01 -0.43937939806E+01  0.83281326501E+01  0.13723448451E+02  0.51100000000E-03 0. -1.
        -11    1    3    3    0    0 -0.15655184866E+02 -0.39611003209E+01 -0.39276379004E+02  0.42466564223E+02  0.51100000000E-03 0.  1.
        -12    1    3    3    0    0 -0.21491625155E+00  0.31040737543E+01  0.53341480154E-01  0.31119621111E+01  0.00000000000E+00 0.  1.
</event>
<event>
 7    1  0.4237994E-013  0.5930195E+02  0.7816164E-02  0.1266605E+00
        -11   -1    0    0    0    0  0.00000000000E+00  0.00000000000E+00  0.45593999997E+02  0.45594000000E+02  0.51100000000E-03 0.  1.
         11   -1    0    0    0    0 -0.00000000000E+00 -0.00000000000E+00 -0.45593999997E+02  0.45594000000E+02  0.51100000000E-03 0. -1.
    9900012    2    1    2    0    0 -0.25484836098E+02 -0.13058764443E+02  0.14025410564E+02  0.59301947544E+02  0.50000006413E+02 0.  0.
         12    1    1    2    0    0  0.25484836098E+02  0.13058764443E+02 -0.14025410564E+02  0.31886052456E+02  0.00000000000E+00 0. -1.
         11    1    3    3    0    0 -0.24950958653E+02 -0.14418734278E+02  0.49068218512E+00  0.28821710656E+02  0.51100000000E-03 0. -1.
        -11    1    3    3    0    0  0.20879198172E+01 -0.69703645930E+01  0.18885122698E+02  0.20238410296E+02  0.51100000000E-03 0.  1.
        -12    1    3    3    0    0 -0.26217972625E+01  0.83303344280E+01 -0.53503943195E+01  0.10241826592E+02  0.00000000000E+00 0.  1.
</event>
<event>
 7    1  0.4237994E-013  0.5930198E+02  0.7816164E-02  0.1266605E+00
        -11   -1    0    0    0    0  0.00000000000E+00  0.00000000000E+00  0.45593999997E+02  0.45594000000E+02  0.51100000000E-03 0. -1.
         11   -1    0    0    0    0 -0.00000000000E+00 -0.00000000000E+00 -0.45593999997E+02  0.45594000000E+02  0.51100000000E-03 0.  1.
    9900012    2    1    2    0    0 -0.24661724699E+02  0.20210982480E+02  0.18367508758E+00  0.59301980893E+02  0.50000067234E+02 0.  0.
         12    1    1    2    0    0  0.24661724699E+02 -0.20210982480E+02 -0.18367508758E+00  0.31886019107E+02  0.00000000000E+00 0. -1.
         11    1    3    3    0    0 -0.73222525045E+01 -0.10643186757E+02  0.66580235128E+01  0.14533481463E+02  0.51100000000E-03 0. -1.
        -11    1    3    3    0    0 -0.12460053896E+01  0.17625235639E+02 -0.14077627581E+02  0.22591614802E+02  0.51100000000E-03 0.  1.
        -12    1    3    3    0    0 -0.16093466805E+02  0.13228933597E+02  0.76032791556E+01  0.22176884629E+02  0.00000000000E+00 0.  1.
</event>
<event>
 7    1  0.4237994E-013  0.5930188E+02  0.7816164E-02  0.1266605E+00
        -11   -1    0    0    0    0  0.00000000000E+00  0.00000000000E+00  0.45593999997E+02  0.45594000000E+02  0.51100000000E-03 0. -1.
         11   -1    0    0    0    0 -0.00000000000E+00 -0.00000000000E+00 -0.45593999997E+02  0.45594000000E+02  0.51100000000E-03 0.  1.
    9900012    2    1    2    0    0  0.31626336100E+02 -0.28761230484E+01  0.28683104401E+01  0.59301883528E+02  0.49999889662E+02 0.  0.
         12    1    1    2    0    0 -0.31626336100E+02  0.28761230484E+01 -0.28683104401E+01  0.31886116472E+02  0.00000000000E+00 0. -1.
         11    1    3    3    0    0  0.24174424687E+02  0.17710467895E+02  0.11084907027E+02  0.31952130540E+02  0.51100000000E-03 0. -1.
        -11    1    3    3    0    0 -0.77067524067E+00 -0.15690153563E+02 -0.83258912725E+01  0.17779069854E+02  0.51100000000E-03 0.  1.
         12    1    3    3    0    0  0.82225866538E+01 -0.48964373807E+01  0.10929468560E+00  0.95706831330E+01  0.00000000000E+00 0. -1.
</event>
<event>
 7    1  0.4237994E-013  0.5930194E+02  0.7816164E-02  0.1266605E+00
        -11   -1    0    0    0    0  0.00000000000E+00  0.00000000000E+00  0.45593999997E+02  0.45594000000E+02  0.51100000000E-03 0.  1.
         11   -1    0    0    0    0 -0.00000000000E+00 -0.00000000000E+00 -0.45593999997E+02  0.45594000000E+02  0.51100000000E-03 0. -1.
    9900012    2    1    2    0    0  0.28888387002E+02  0.92782231249E+01  0.98028778640E+01  0.59301941254E+02  0.49999994941E+02 0.  0.
         12    1    1    2    0    0 -0.28888387002E+02 -0.92782231249E+01 -0.98028778640E+01  0.31886058746E+02  0.00000000000E+00 0. -1.
         11    1    3    3    0    0  0.18349912547E+02  0.22282987209E+02 -0.32508422123E+00  0.28867914532E+02  0.51100000000E-03 0. -1.
        -11    1    3    3    0    0  0.15790903950E+02 -0.80618537998E+01 -0.32671601030E+00  0.17732819230E+02  0.51100000000E-03 0.  1.
         12    1    3    3    0    0 -0.52524294938E+01 -0.49429102840E+01  0.10454678096E+02  0.12701207492E+02  0.00000000000E+00 0. -1.
</event>
<event>
 7    1  0.4237994E-013  0.5930193E+02  0.7816164E-02  0.1266605E+00
        -11   -1    0    0    0    0  0.00000000000E+00  0.00000000000E+00  0.45593999997E+02  0.45594000000E+02  0.51100000000E-03 0. -1.
         11   -1    0    0    0    0 -0.00000000000E+00 -0.00000000000E+00 -0.45593999997E+02  0.45594000000E+02  0.51100000000E-03 0.  1.
    9900012    2    1    2    0    0  0.12016064640E+02 -0.16382628109E+02 -0.24575293229E+02  0.59301931717E+02  0.49999977549E+02 0.  0.
         12    1    1    2    0    0 -0.12016064640E+02  0.16382628109E+02  0.24575293229E+02  0.31886068283E+02  0.00000000000E+00 0. -1.
         11    1    3    3    0    0 -0.11072370178E+01 -0.21616603369E+02  0.71370633173E+01  0.22791252447E+02  0.51100000000E-03 0. -1.
        -11    1    3    3    0    0  0.14897758371E+02  0.34936721482E+01 -0.24540070209E+02  0.28919958432E+02  0.51100000000E-03 0.  1.
         12    1    3    3    0    0 -0.17744567132E+01  0.17403031115E+01 -0.71722863377E+01  0.75907208391E+01  0.00000000000E+00 0. -1.
</event>
<event>
 7    1  0.4237994E-013  0.5930195E+02  0.7816164E-02  0.1266605E+00
        -11   -1    0    0    0    0  0.00000000000E+00  0.00000000000E+00  0.45593999997E+02  0.45594000000E+02  0.51100000000E-03 0. -1.
         11   -1    0    0    0    0 -0.00000000000E+00 -0.00000000000E+00 -0.45593999997E+02  0.45594000000E+02  0.51100000000E-03 0.  1.
    9900012    2    1    2    0    0 -0.22959408136E+02  0.17206266418E+02 -0.13911522292E+02  0.59301945391E+02  0.50000002487E+02 0.  0.
         12    1    1    2    0    0  0.22959408136E+02 -0.17206266418E+02  0.13911522292E+02  0.31886054609E+02  0.00000000000E+00 0. -1.
         11    1    3    3    0    0  0.13782256639E+02  0.86168598269E+01 -0.95130137716E+01  0.18833435762E+02  0.51100000000E-03 0. -1.
        -11    1    3    3    0    0 -0.30125597434E+02  0.38515286939E+01 -0.82414857394E+01  0.31469159211E+02  0.51100000000E-03 0.  1.
        -12    1    3    3    0    0 -0.66160673416E+01  0.47378778972E+01  0.38429772189E+01  0.89993504178E+01  0.00000000000E+00 0.  1.
</event>
<event>
 7    1  0.4237994E-013  0.5930195E+02  0.7816164E-02  0.1266605E+00
        -11   -1    0    0    0    0  0.00000000000E+00  0.00000000000E+00  0.45593999997E+02  0.45594000000E+02  0.51100000000E-03 0.  1.
         11   -1    0    0    0    0 -0.00000000000E+00 -0.00000000000E+00 -0.45593999997E+02  0.45594000000E+02  0.51100000000E-03 0. -1.
    9900012    2    1    2    0    0 -0.15084291390E+02 -0.17929266228E+02  0.21626962341E+02  0.59301953925E+02  0.50000018050E+02 0.  0.
         12    1    1    2    0    0  0.15084291390E+02  0.17929266228E+02 -0.21626962341E+02  0.31886046075E+02  0.00000000000E+00 0. -1.
         11    1    3    3    0    0  0.48761484251E+01 -0.27398303156E+01 -0.30498929979E+01  0.63706625387E+01  0.51100000000E-03 0. -1.
        -11    1    3    3    0    0 -0.16257814612E+02  0.11387405088E+02  0.12557224206E+02  0.23487728937E+02  0.51100000000E-03 0.  1.
        -12    1    3    3    0    0 -0.37026252036E+01 -0.26576841000E+02  0.12119631132E+02  0.29443562449E+02  0.00000000000E+00 0.  1.
</event>
<event>
 7    1  0.4237994E-013  0.5930198E+02  0.7816164E-02  0.1266605E+00
        -11   -1    0    0    0    0  0.00000000000E+00  0.00000000000E+00  0.45593999997E+02  0.45594000000E+02  0.51100000000E-03 0.  1.
         11   -1    0    0    0    0 -0.00000000000E+00 -0.00000000000E+00 -0.45593999997E+02  0.45594000000E+02  0.51100000000E-03 0. -1.
    9900012    2    1    2    0    0 -0.75140630688E+01  0.22975647330E+01  0.30902727187E+02  0.59301976493E+02  0.50000059209E+02 0.  0.
         12    1    1    2    0    0  0.75140630688E+01 -0.22975647330E+01 -0.30902727187E+02  0.31886023507E+02  0.00000000000E+00 0. -1.
         11    1    3    3    0    0 -0.14825187149E+02  0.17902885562E+02  0.61712602594E+01  0.24049614112E+02  0.51100000000E-03 0. -1.
        -11    1    3    3    0    0  0.19916006294E+01 -0.16829262988E+02  0.10319777685E+02  0.19841582031E+02  0.51100000000E-03 0.  1.
         12    1    3    3    0    0  0.53195234512E+01  0.12239421585E+01  0.14411689243E+02  0.15410780350E+02  0.00000000000E+00 0. -1.
</event>
<event>
 7    1  0.4237994E-013  0.5930196E+02  0.7816164E-02  0.1266605E+00
        -11   -1    0    0    0    0  0.00000000000E+00  0.00000000000E+00  0.45593999997E+02  0.45594000000E+02  0.51100000000E-03 0.  1.
         11   -1    0    0    0    0 -0.00000000000E+00 -0.00000000000E+00 -0.45593999997E+02  0.45594000000E+02  0.51100000000E-03 0. -1.
    9900012    2    1    2    0    0 -0.12667301025E+02  0.28593273382E+02  0.62196303111E+01  0.59301959181E+02  0.50000027635E+02 0.  0.
         12    1    1    2    0    0  0.12667301025E+02 -0.28593273382E+02 -0.62196303111E+01  0.31886040819E+02  0.00000000000E+00 0. -1.
         11    1    3    3    0    0  0.57306788229E+00  0.95915603073E+01 -0.82091237976E+01  0.12637885492E+02  0.51100000000E-03 0. -1.
        -11    1    3    3    0    0 -0.10979080483E+02  0.29898853543E+02  0.15613313126E+02  0.35471921268E+02  0.51100000000E-03 0.  1.
        -12    1    3    3    0    0 -0.22612884239E+01 -0.10897140469E+02 -0.11845590173E+01  0.11192152420E+02  0.00000000000E+00 0.  1.
</event>
<event>
 7    1  0.4237994E-013  0.5930194E+02  0.7816164E-02  0.1266605E+00
        -11   -1    0    0    0    0  0.00000000000E+00  0.00000000000E+00  0.45593999997E+02  0.45594000000E+02  0.51100000000E-03 0. -1.
         11   -1    0    0    0    0 -0.00000000000E+00 -0.00000000000E+00 -0.45593999997E+02  0.45594000000E+02  0.51100000000E-03 0.  1.
    9900012    2    1    2    0    0  0.22310728128E+02 -0.42164560725E+00 -0.22776624664E+02  0.59301937124E+02  0.49999987410E+02 0.  0.
         12    1    1    2    0    0 -0.22310728128E+02  0.42164560725E+00  0.22776624664E+02  0.31886062876E+02  0.00000000000E+00 0. -1.
         11    1    3    3    0    0  0.19870816400E+02 -0.14202280411E+02  0.47235450162E+01  0.24877017326E+02  0.51100000000E-03 0. -1.
        -11    1    3    3    0    0 -0.60878055352E+01  0.57721191382E+01 -0.74917365262E+01  0.11247437576E+02  0.51100000000E-03 0.  1.
         12    1    3    3    0    0  0.85277172626E+01  0.80085156654E+01 -0.20008433154E+02  0.23177482222E+02  0.00000000000E+00 0. -1.
</event>
<event>
 7    1  0.4237994E-013  0.5930198E+02  0.7816164E-02  0.1266605E+00
        -11   -1    0    0    0    0  0.00000000000E+00  0.00000000000E+00  0.45593999997E+02  0.45594000000E+02  0.51100000000E-03 0.  1.
         11   -1    0    0    0    0 -0.00000000000E+00 -0.00000000000E+00 -0.45593999997E+02  0.45594000000E+02  0.51100000000E-03 0. -1.
    9900012    2    1    2    0    0 -0.20703150282E+02 -0.22487943664E+02 -0.90769174946E+01  0.59301976839E+02  0.50000059839E+02 0.  0.
         12    1    1    2    0    0  0.20703150282E+02  0.22487943664E+02  0.90769174946E+01  0.31886023161E+02  0.00000000000E+00 0. -1.
         11    1    3    3    0    0 -0.53262876316E+01 -0.16769011132E+02 -0.84566888471E+01  0.19521389827E+02  0.51100000000E-03 0. -1.
        -11    1    3    3    0    0 -0.17490102474E+02  0.80297286227E+01 -0.11233536408E+02  0.22283908248E+02  0.51100000000E-03 0.  1.
        -12    1    3    3    0    0  0.21132398240E+01 -0.13748661155E+02  0.10613307761E+02  0.17496678763E+02  0.00000000000E+00 0.  1.
</event>
<event>
 7    1  0.4237994E-013  0.5930199E+02  0.7816164E-02  0.1266605E+00
        -11   -1    0    0    0    0  0.00000000000E+00  0.00000000000E+00  0.45593999997E+02  0.45594000000E+02  0.51100000000E-03 0. -1.
         11   -1    0    0    0    0 -0.00000000000E+00 -0.00000000000E+00 -0.45593999997E+02  0.45594000000E+02  0.51100000000E-03 0.  1.
    9900012    2    1    2    0    0  0.16842786131E+02  0.29116235680E+01 -0.26917658931E+02  0.59301994312E+02  0.50000091706E+02 0.  0.
         12    1    1    2    0    0 -0.16842786131E+02 -0.29116235680E+01  0.26917658931E+02  0.31886005688E+02  0.00000000000E+00 0. -1.
         11    1    3    3    0    0 -0.52952739782E+01  0.14971431080E+02 -0.10909719434E+01  0.15917722674E+02  0.51100000000E-03 0. -1.
        -11    1    3    3    0    0  0.23398587505E+02 -0.11950562613E+01 -0.20868069482E+02  0.31375123599E+02  0.51100000000E-03 0.  1.
         12    1    3    3    0    0 -0.12605273962E+01 -0.10864751251E+02 -0.49586175051E+01  0.12009148039E+02  0.00000000000E+00 0. -1.
</event>
<event>
 7    1  0.4237994E-013  0.5930195E+02  0.7816164E-02  0.1266605E+00
        -11   -1    0    0    0    0  0.00000000000E+00  0.00000000000E+00  0.45593999997E+02  0.45594000000E+02  0.51100000000E-03 0. -1.
         11   -1    0    0    0    0 -0.00000000000E+00 -0.00000000000E+00 -0.45593999997E+02  0.45594000000E+02  0.51100000000E-03 0.  1.
    9900012    2    1    2    0    0 -0.27188881701E+02  0.15688653551E+02 -0.55992166433E+01  0.59301947165E+02  0.50000005721E+02 0.  0.
         12    1    1    2    0    0  0.27188881701E+02 -0.15688653551E+02  0.55992166433E+01  0.31886052835E+02  0.00000000000E+00 0. -1.
         11    1    3    3    0    0 -0.14195452120E+02  0.98922120797E+01  0.12690610715E+02  0.21457360539E+02  0.51100000000E-03 0. -1.
        -11    1    3    3    0    0 -0.73841117518E+01 -0.11766843375E+02 -0.12020596702E+02  0.18370586673E+02  0.51100000000E-03 0.  1.
         12    1    3    3    0    0 -0.56093178294E+01  0.17563284847E+02 -0.62692306563E+01  0.19473999952E+02  0.00000000000E+00 0. -1.
</event>
<event>
 7    1  0.4237994E-013  0.5930190E+02  0.7816164E-02  0.1266605E+00
        -11   -1    0    0    0    0  0.00000000000E+00  0.00000000000E+00  0.45593999997E+02  0.45594000000E+02  0.51100000000E-03 0.  1.
         11   -1    0    0    0    0 -0.00000000000E+00 -0.00000000000E+00 -0.45593999997E+02  0.45594000000E+02  0.51100000000E-03 0. -1.
    9900012    2    1    2    0    0  0.26783135115E+02 -0.83087062403E+01  0.15177366688E+02  0.59301899806E+02  0.49999919351E+02 0.  0.
         12    1    1    2    0    0 -0.26783135115E+02  0.83087062403E+01 -0.15177366688E+02  0.31886100194E+02  0.00000000000E+00 0. -1.
         11    1    3    3    0    0  0.21276532039E+01 -0.20999711442E+01  0.63743153955E+00  0.30566495042E+01  0.51100000000E-03 0. -1.
        -11    1    3    3    0    0  0.19920736233E+02 -0.57422066339E+01 -0.15465575180E+02  0.25864892906E+02  0.51100000000E-03 0.  1.
        -12    1    3    3    0    0  0.47347456777E+01 -0.46652846219E+00  0.30005510329E+02  0.30380357396E+02  0.00000000000E+00 0.  1.
</event>
<event>
 7    1  0.4237994E-013  0.5930196E+02  0.7816164E-02  0.1266605E+00
        -11   -1    0    0    0    0  0.00000000000E+00  0.00000000000E+00  0.45593999997E+02  0.45594000000E+02  0.51100000000E-03 0.  1.
         11   -1    0    0    0    0 -0.00000000000E+00 -0.00000000000E+00 -0.45593999997E+02  0.45594000000E+02  0.51100000000E-03 0. -1.
    9900012    2    1    2    0    0  0.17544557294E+02  0.18473812057E+02  0.19173592004E+02  0.59301955202E+02  0.50000020379E+02 0.  0.
         12    1    1    2    0    0 -0.17544557294E+02 -0.18473812057E+02 -0.19173592004E+02  0.31886044798E+02  0.00000000000E+00 0. -1.
         11    1    3    3    0    0 -0.17385284901E+01 -0.89023793864E+01  0.10017532097E+02  0.13513910967E+02  0.51100000000E-03 0. -1.
        -11    1    3    3    0    0  0.14188726065E+02  0.25274615895E+02 -0.60540115655E+01  0.29610424047E+02  0.51100000000E-03 0.  1.
        -12    1    3    3    0    0  0.50943597191E+01  0.21015755483E+01  0.15210071472E+02  0.16177620187E+02  0.00000000000E+00 0.  1.
</event>
<event>
 7    1  0.4237994E-013  0.5930195E+02  0.7816164E-02  0.1266605E+00
        -11   -1    0    0    0    0  0.00000000000E+00  0.00000000000E+00  0.45593999997E+02  0.45594000000E+02  0.51100000000E-03 0. -1.
         11   -1    0    0    0    0 -0.00000000000E+00 -0.00000000000E+00 -0.45593999997E+02  0.45594000000E+02  0.51100000000E-03 0.  1.
    9900012    2    1    2    0    0 -0.30785464867E+02 -0.34594853779E+01 -0.75503386949E+01  0.59301945046E+02  0.50000001857E+02 0.  0.
         12    1    1    2    0    0  0.30785464867E+02  0.34594853779E+01  0.75503386949E+01  0.31886054954E+02  0.00000000000E+00 0. -1.
         11    1    3    3    0    0  0.26794968556E+01 -0.79580727793E+01  0.10079981604E+02  0.13119323731E+02  0.51100000000E-03 0. -1.
        -11    1    3    3    0    0 -0.16324205530E+02  0.15301855968E+02 -0.10356833264E+02  0.24655435056E+02  0.51100000000E-03 0.  1.
        -12    1    3    3    0    0 -0.17140756192E+02 -0.10803268567E+02 -0.72734870353E+01  0.21527186259E+02  0.00000000000E+00 0.  1.
</event>
<event>
 7    1  0.4237994E-013  0.5930194E+02  0.7816164E-02  0.1266605E+00
        -11   -1    0    0    0    0  0.00000000000E+00  0.00000000000E+00  0.45593999997E+02  0.45594000000E+02  0.51100000000E-03 0.  1.
         11   -1    0    0    0    0 -0.00000000000E+00 -0.00000000000E+00 -0.45593999997E+02  0.45594000000E+02  0.51100000000E-03 0. -1.
    9900012    2    1    2    0    0 -0.25825211679E+02  0.84477861886E+01  0.16685738983E+02  0.59301944503E+02  0.50000000867E+02 0.  0.
         12    1    1    2    0    0  0.25825211679E+02 -0.84477861886E+01 -0.16685738983E+02  0.31886055497E+02  0.00000000000E+00 0. -1.
         11    1    3    3    0    0 -0.65823628712E+01  0.13322144856E+02 -0.42497100152E+01  0.15455325296E+02  0.51100000000E-03 0. -1.
        -11    1    3    3    0    0 -0.71207035129E+01 -0.18063300889E+02  0.16279505171E+02  0.25337907301E+02  0.51100000000E-03 0.  1.
        -12    1    3    3    0    0 -0.12122145295E+02  0.13188942222E+02  0.46559438276E+01  0.18508711906E+02  0.00000000000E+00 0.  1.
</event>
<event>
 7    1  0.4237994E-013  0.5930196E+02  0.7816164E-02  0.1266605E+00
        -11   -1    0    0    0    0  0.00000000000E+00  0.00000000000E+00  0.45593999997E+02  0.45594000000E+02  0.51100000000E-03 0.  1.
         11   -1    0    0    0    0 -0.00000000000E+00 -0.00000000000E+00 -0.45593999997E+02  0.45594000000E+02  0.51100000000E-03 0. -1.
    9900012    2    1    2    0    0  0.16034432615E+02  0.83702328214E+01  0.26259396420E+02  0.59301957174E+02  0.50000023975E+02 0.  0.
         12    1    1    2    0    0 -0.16034432615E+02 -0.83702328214E+01 -0.26259396420E+02  0.31886042826E+02  0.00000000000E+00 0. -1.
         11    1    3    3    0    0 -0.53739254097E+01 -0.14644532294E+02 -0.14458383342E+01  0.15666264685E+02  0.51100000000E-03 0. -1.
        -11    1    3    3    0    0  0.42529679399E+01  0.12783957251E+02  0.13879413806E+02  0.19343097662E+02  0.51100000000E-03 0.  1.
         12    1    3    3    0    0  0.17155390085E+02  0.10230807864E+02  0.13825820948E+02  0.24292594827E+02  0.00000000000E+00 0. -1.
</event>
<event>
 7    1  0.4237994E-013  0.5930193E+02  0.7816164E-02  0.1266605E+00
        -11   -1    0    0    0    0  0.00000000000E+00  0.00000000000E+00  0.45593999997E+02  0.45594000000E+02  0.51100000000E-03 0.  1.
         11   -1    0    0    0    0 -0.00000000000E+00 -0.00000000000E+00 -0.45593999997E+02  0.45594000000E+02  0.51100000000E-03 0. -1.
    9900012    2    1    2    0    0 -0.19563989011E+02  0.20656704574E+01  0.25093913294E+02  0.59301934942E+02  0.49999983430E+02 0.  0.
         12    1    1    2    0    0  0.19563989011E+02 -0.20656704574E+01 -0.25093913294E+02  0.31886065058E+02  0.00000000000E+00 0. -1.
         11    1    3    3    0    0 -0.25285543333E+02  0.25026240869E+01  0.47171557035E+01  0.25843246452E+02  0.51100000000E-03 0. -1.
        -11    1    3    3    0    0  0.14460563411E+02  0.41971243740E+01  0.64597802978E+01  0.16384520406E+02  0.51100000000E-03 0.  1.
        -12    1    3    3    0    0 -0.87390090883E+01 -0.46340780034E+01  0.13916977293E+02  0.17074168084E+02  0.00000000000E+00 0.  1.
</event>
<event>
 7    1  0.4237994E-013  0.5930195E+02  0.7816164E-02  0.1266605E+00
        -11   -1    0    0    0    0  0.00000000000E+00  0.00000000000E+00  0.45593999997E+02  0.45594000000E+02  0.51100000000E-03 0.  1.
         11   -1    0    0    0    0 -0.00000000000E+00 -0.00000000000E+00 -0.45593999997E+02  0.45594000000E+02  0.51100000000E-03 0. -1.
    9900012    2    1    2    0    0 -0.29927355260E+02 -0.10082023390E+02  0.44075653671E+01  0.59301946294E+02  0.50000004133E+02 0.  0.
         12    1    1    2    0    0  0.29927355260E+02  0.10082023390E+02 -0.44075653671E+01  0.31886053706E+02  0.00000000000E+00 0. -1.
         11    1    3    3    0    0 -0.78366065315E+01  0.10392023633E+02  0.16137114883E+02  0.20731932716E+02  0.51100000000E-03 0. -1.
        -11    1    3    3    0    0 -0.96035843665E+01 -0.17622636277E+02  0.15382128852E+01  0.20128393904E+02  0.51100000000E-03 0.  1.
         12    1    3    3    0    0 -0.12487164362E+02 -0.28514107462E+01 -0.13267762401E+02  0.18441619674E+02  0.00000000000E+00 0. -1.
</event>
<event>
 7    1  0.4237994E-013  0.5930194E+02  0.7816164E-02  0.1266605E+00
        -11   -1    0    0    0    0  0.00000000000E+00  0.00000000000E+00  0.45593999997E+02  0.45594000000E+02  0.51100000000E-03 0. -1.
         11   -1    0    0    0    0 -0.00000000000E+00 -0.00000000000E+00 -0.45593999997E+02  0.45594000000E+02  0.51100000000E-03 0.  1.
    9900012    2    1    2    0    0  0.17258511786E+02 -0.17180609239E+02  0.20583764458E+02  0.59301938434E+02  0.49999989799E+02 0.  0.
         12    1    1    2    0    0 -0.17258511786E+02  0.17180609239E+02 -0.20583764458E+02  0.31886061566E+02  0.00000000000E+00 0. -1.
         11    1    3    3    0    0  0.14888857613E+02 -0.19416578511E+02  0.35506939448E+01  0.24724259945E+02  0.51100000000E-03 0. -1.
        -11    1    3    3    0    0 -0.49422901636E+01  0.44221851986E+01 -0.68323403454E+01  0.95217030435E+01  0.51100000000E-03 0.  1.
         12    1    3    3    0    0  0.73119443366E+01 -0.21862159264E+01  0.23865410859E+02  0.25055975445E+02  0.00000000000E+00 0. -1.
</event>
<event>
 7    1  0.4237994E-013  0.5930193E+02  0.7816164E-02  0.1266605E+00
        -11   -1    0    0    0    0  0.00000000000E+00  0.00000000000E+00  0.45593999997E+02  0.45594000000E+02  0.51100000000E-03 0.  1.
         11   -1    0    0    0    0 -0.00000000000E+00 -0.00000000000E+00 -0.45593999997E+02  0.45594000000E+02  0.51100000000E-03 0. -1.
    9900012    2    1    2    0    0  0.26046452252E+02 -0.18269854675E+02 -0.21251417852E+01  0.59301929493E+02  0.49999973491E+02 0.  0.
         12    1    1    2    0    0 -0.26046452252E+02  0.18269854675E+02  0.21251417852E+01  0.31886070507E+02  0.00000000000E+00 0. -1.
         11    1    3    3    0    0  0.16117365766E+01  0.63449976245E+01  0.55563814639E+01  0.85866212727E+01  0.51100000000E-03 0. -1.
        -11    1    3    3    0    0  0.25850468460E+02 -0.30509072488E+01 -0.12024204023E+02  0.28672918186E+02  0.51100000000E-03 0.  1.
        -12    1    3    3    0    0 -0.14157527839E+01 -0.21563945051E+02  0.43426807743E+01  0.22042390034E+02  0.00000000000E+00 0.  1.
</event>
<event>
 7    1  0.4237994E-013  0.5930196E+02  0.7816164E-02  0.1266605E+00
        -11   -1    0    0    0    0  0.00000000000E+00  0.00000000000E+00  0.45593999997E+02  0.45594000000E+02  0.51100000000E-03 0. -1.
         11   -1    0    0    0    0 -0.00000000000E+00 -0.00000000000E+00 -0.45593999997E+02  0.45594000000E+02  0.51100000000E-03 0.  1.
    9900012    2    1    2    0    0  0.13047532776E+02 -0.27444987689E+02 -0.96568254041E+01  0.59301957008E+02  0.50000023673E+02 0.  0.
         12    1    1    2    0    0 -0.13047532776E+02  0.27444987689E+02  0.96568254041E+01  0.31886042992E+02  0.00000000000E+00 0. -1.
         11    1    3    3    0    0 -0.14616610067E+02 -0.62862892766E+01  0.13445687963E+01  0.15967798478E+02  0.51100000000E-03 0. -1.
        -11    1    3    3    0    0  0.54817545426E+01 -0.22948167474E+01 -0.12849090053E+02  0.14156798092E+02  0.51100000000E-03 0.  1.
         12    1    3    3    0    0  0.22182388300E+02 -0.18863881665E+02  0.18476958524E+01  0.29177360438E+02  0.00000000000E+00 0. -1.
</event>
<event>
 7    1  0.4237994E-013  0.5930195E+02  0.7816164E-02  0.1266605E+00
        -11   -1    0    0    0    0  0.00000000000E+00  0.00000000000E+00  0.45593999997E+02  0.45594000000E+02  0.51100000000E-03 0.  1.
         11   -1    0    0    0    0 -0.00000000000E+00 -0.00000000000E+00 -0.45593999997E+02  0.45594000000E+02  0.51100000000E-03 0. -1.
    9900012    2    1    2    0    0  0.25403625337E+02 -0.83544025103E+01  0.17366061222E+02  0.59301948129E+02  0.50000007479E+02 0.  0.
         12    1    1    2    0    0 -0.25403625337E+02  0.83544025103E+01 -0.17366061222E+02  0.31886051871E+02  0.00000000000E+00 0. -1.
         11    1    3    3    0    0  0.15052721565E+02  0.75093055672E+01 -0.37024937929E+01  0.17224475527E+02  0.51100000000E-03 0. -1.
        -11    1    3    3    0    0 -0.11042203845E+02 -0.38691269732E+01  0.48033146966E+01  0.12648013347E+02  0.51100000000E-03 0.  1.
         12    1    3    3    0    0  0.21393107618E+02 -0.11994581104E+02  0.16265240318E+02  0.29429459255E+02  0.00000000000E+00 0. -1.
</event>
<event>
 7    1  0.4237994E-013  0.5930194E+02  0.7816164E-02  0.1266605E+00
        -11   -1    0    0    0    0  0.00000000000E+00  0.00000000000E+00  0.45593999997E+02  0.45594000000E+02  0.51100000000E-03 0.  1.
         11   -1    0    0    0    0 -0.00000000000E+00 -0.00000000000E+00 -0.45593999997E+02  0.45594000000E+02  0.51100000000E-03 0. -1.
    9900012    2    1    2    0    0 -0.54590208407E+01 -0.19431241535E+02  0.24684943953E+02  0.59301944834E+02  0.50000001470E+02 0.  0.
         12    1    1    2    0    0  0.54590208407E+01  0.19431241535E+02 -0.24684943953E+02  0.31886055166E+02  0.00000000000E+00 0. -1.
         11    1    3    3    0    0  0.11981562878E+02 -0.26734555034E+02  0.20593680396E+02  0.35810528541E+02  0.51100000000E-03 0. -1.
        -11    1    3    3    0    0 -0.11428550764E+02 -0.11990023939E+01  0.59078452942E+01  0.12920991277E+02  0.51100000000E-03 0.  1.
         12    1    3    3    0    0 -0.60120329549E+01  0.85023158934E+01 -0.18165817374E+01  0.10570425016E+02  0.00000000000E+00 0. -1.
</event>
<event>
 7    1  0.4237994E-013  0.5930194E+02  0.7816164E-02  0.1266605E+00
        -11   -1    0    0    0    0  0.00000000000E+00  0.00000000000E+00  0.45593999997E+02  0.45594000000E+02  0.51100000000E-03 0.  1.
         11   -1    0    0    0    0 -0.00000000000E+00 -0.00000000000E+00 -0.45593999997E+02  0.45594000000E+02  0.51100000000E-03 0. -1.
    9900012    2    1    2    0    0 -0.27003208767E+02  0.11857462518E+02  0.12122218612E+02  0.59301939015E+02  0.49999990857E+02 0.  0.
         12    1    1    2    0    0  0.27003208767E+02 -0.11857462518E+02 -0.12122218612E+02  0.31886060985E+02  0.00000000000E+00 0. -1.
         11    1    3    3    0    0 -0.12349181607E+02  0.21867401574E+02  0.48077303091E+01  0.25569509361E+02  0.51100000000E-03 0. -1.
        -11    1    3    3    0    0 -0.21554292671E+02 -0.11754668451E+02  0.15971836769E+01  0.24603064015E+02  0.51100000000E-03 0.  1.
        -12    1    3    3    0    0  0.69002655112E+01  0.17447293941E+01  0.57173046263E+01  0.91293656392E+01  0.00000000000E+00 0.  1.
</event>
<event>
 7    1  0.4237994E-013  0.5930193E+02  0.7816164E-02  0.1266605E+00
        -11   -1    0    0    0    0  0.00000000000E+00  0.00000000000E+00  0.45593999997E+02  0.45594000000E+02  0.51100000000E-03 0.  1.
         11   -1    0    0    0    0 -0.00000000000E+00 -0.00000000000E+00 -0.45593999997E+02  0.45594000000E+02  0.51100000000E-03 0. -1.
    9900012    2    1    2    0    0  0.30005505864E+01 -0.26188876732E+02  0.17940489841E+02  0.59301925547E+02  0.49999966296E+02 0.  0.
         12    1    1    2    0    0 -0.30005505864E+01  0.26188876732E+02 -0.17940489841E+02  0.31886074453E+02  0.00000000000E+00 0. -1.
         11    1    3    3    0    0  0.64325479992E+01  0.42984952982E+01  0.24222073023E+01  0.81068997815E+01  0.51100000000E-03 0. -1.
        -11    1    3    3    0    0 -0.94674588442E+01 -0.20013303193E+02 -0.89682273761E+01  0.23887113350E+02  0.51100000000E-03 0.  1.
        -12    1    3    3    0    0  0.60354614314E+01 -0.10474068836E+02  0.24486509915E+02  0.27307912415E+02  0.00000000000E+00 0.  1.
</event>
<event>
 7    1  0.4237994E-013  0.5930195E+02  0.7816164E-02  0.1266605E+00
        -11   -1    0    0    0    0  0.00000000000E+00  0.00000000000E+00  0.45593999997E+02  0.45594000000E+02  0.51100000000E-03 0. -1.
         11   -1    0    0    0    0 -0.00000000000E+00 -0.00000000000E+00 -0.45593999997E+02  0.45594000000E+02  0.51100000000E-03 0.  1.
    9900012    2    1    2    0    0  0.22333044233E+02 -0.13225124762E+02 -0.18521648341E+02  0.59301949023E+02  0.50000009109E+02 0.  0.
         12    1    1    2    0    0 -0.22333044233E+02  0.13225124762E+02  0.18521648341E+02  0.31886050977E+02  0.00000000000E+00 0. -1.
         11    1    3    3    0    0 -0.23195897754E+01 -0.67083509237E+01 -0.12769778534E+01  0.72120136953E+01  0.51100000000E-03 0. -1.
        -11    1    3    3    0    0 -0.72751642249E+01 -0.24160662855E+01 -0.18343755158E+02  0.19881115269E+02  0.51100000000E-03 0.  1.
        -12    1    3    3    0    0  0.31927798233E+02 -0.41007075526E+01  0.10990846698E+01  0.32208820058E+02  0.00000000000E+00 0.  1.
</event>
<event>
 7    1  0.4237994E-013  0.5930195E+02  0.7816164E-02  0.1266605E+00
        -11   -1    0    0    0    0  0.00000000000E+00  0.00000000000E+00  0.45593999997E+02  0.45594000000E+02  0.51100000000E-03 0.  1.
         11   -1    0    0    0    0 -0.00000000000E+00 -0.00000000000E+00 -0.45593999997E+02  0.45594000000E+02  0.51100000000E-03 0. -1.
    9900012    2    1    2    0    0 -0.96098690349E+01  0.13825297064E+02 -0.27078250704E+02  0.59301951594E+02  0.50000013799E+02 0.  0.
         12    1    1    2    0    0  0.96098690349E+01 -0.13825297064E+02  0.27078250704E+02  0.31886048406E+02  0.00000000000E+00 0. -1.
         11    1    3    3    0    0  0.14330765666E+01 -0.25075462037E+01 -0.25109546224E+01  0.38270602015E+01  0.51100000000E-03 0. -1.
        -11    1    3    3    0    0  0.16748330416E+01  0.23759524846E+02  0.32110275003E+01  0.24033950664E+02  0.51100000000E-03 0.  1.
        -12    1    3    3    0    0 -0.12717778643E+02 -0.74266815787E+01 -0.27778323582E+02  0.31440940729E+02  0.00000000000E+00 0.  1.
</event>
<event>
 7    1  0.4237994E-013  0.5930192E+02  0.7816164E-02  0.1266605E+00
        -11   -1    0    0    0    0  0.00000000000E+00  0.00000000000E+00  0.45593999997E+02  0.45594000000E+02  0.51100000000E-03 0. -1.
         11   -1    0    0    0    0 -0.00000000000E+00 -0.00000000000E+00 -0.45593999997E+02  0.45594000000E+02  0.51100000000E-03 0.  1.
    9900012    2    1    2    0    0  0.50673721478E+01  0.29580278162E+02 -0.10772703663E+02  0.59301917443E+02  0.49999951516E+02 0.  0.
         12    1    1    2    0    0 -0.50673721478E+01 -0.29580278162E+02  0.10772703663E+02  0.31886082557E+02  0.00000000000E+00 0. -1.
         11    1    3    3    0    0  0.24395134326E+02  0.25772854697E+02  0.17659607707E+01  0.35531411958E+02  0.51100000000E-03 0.  1.
        -11    1    3    3    0    0 -0.90572515674E+01  0.13891954845E+00 -0.39203715078E+01  0.98702795106E+01  0.51100000000E-03 0. -1.
        -12    1    3    3    0    0 -0.10270510611E+02  0.36685039162E+01 -0.86182929261E+01  0.13900225975E+02  0.00000000000E+00 0.  1.
</event>
<event>
 7    1  0.4237994E-013  0.5930214E+02  0.7816164E-02  0.1266604E+00
        -11   -1    0    0    0    0  0.00000000000E+00  0.00000000000E+00  0.45593999997E+02  0.45594000000E+02  0.51100000000E-03 0. -1.
         11   -1    0    0    0    0 -0.00000000000E+00 -0.00000000000E+00 -0.45593999997E+02  0.45594000000E+02  0.51100000000E-03 0.  1.
    9900012    2    1    2    0    0  0.87793643600E+01 -0.22736987873E+02 -0.20558708102E+02  0.59302135814E+02  0.50000349770E+02 0.  0.
         12    1    1    2    0    0 -0.87793643600E+01  0.22736987873E+02  0.20558708102E+02  0.31885864186E+02  0.00000000000E+00 0. -1.
         11    1    3    3    0    0 -0.10943691030E+02  0.31786736230E+01  0.22577523701E+01  0.11617477583E+02  0.51100000000E-03 0.  1.
        -11    1    3    3    0    0  0.25720318293E+02 -0.23972272212E+02 -0.16788531553E+02  0.38962281761E+02  0.51100000000E-03 0. -1.
         12    1    3    3    0    0 -0.59972629026E+01 -0.19433892840E+01 -0.60279289185E+01  0.87223764696E+01  0.00000000000E+00 0. -1.
</event>
<event>
 7    1  0.4237994E-013  0.5930183E+02  0.7816164E-02  0.1266605E+00
        -11   -1    0    0    0    0  0.00000000000E+00  0.00000000000E+00  0.45593999997E+02  0.45594000000E+02  0.51100000000E-03 0.  1.
         11   -1    0    0    0    0 -0.00000000000E+00 -0.00000000000E+00 -0.45593999997E+02  0.45594000000E+02  0.51100000000E-03 0. -1.
    9900012    2    1    2    0    0  0.31660630827E+02  0.30207378593E+01  0.22820420155E+01  0.59301825609E+02  0.49999784031E+02 0.  0.
         12    1    1    2    0    0 -0.31660630827E+02 -0.30207378593E+01 -0.22820420155E+01  0.31886174391E+02  0.00000000000E+00 0. -1.
         11    1    3    3    0    0 -0.31903412424E+01  0.88192643683E+01 -0.86751175147E+01  0.12775576910E+02  0.51100000000E-03 0. -1.
        -11    1    3    3    0    0  0.17927785610E+02 -0.11746796069E+02  0.17253692212E+02  0.27515134199E+02  0.51100000000E-03 0.  1.
        -12    1    3    3    0    0  0.16923186459E+02  0.59482695603E+01 -0.62965326818E+01  0.19011114499E+02  0.00000000000E+00 0.  1.
</event>
<event>
 7    1  0.4237994E-013  0.5930195E+02  0.7816164E-02  0.1266605E+00
        -11   -1    0    0    0    0  0.00000000000E+00  0.00000000000E+00  0.45593999997E+02  0.45594000000E+02  0.51100000000E-03 0.  1.
         11   -1    0    0    0    0 -0.00000000000E+00 -0.00000000000E+00 -0.45593999997E+02  0.45594000000E+02  0.51100000000E-03 0. -1.
    9900012    2    1    2    0    0 -0.19228232780E+02  0.10761381913E+02  0.23047518616E+02  0.59301946765E+02  0.50000004993E+02 0.  0.
         12    1    1    2    0    0  0.19228232780E+02 -0.10761381913E+02 -0.23047518616E+02  0.31886053235E+02  0.00000000000E+00 0. -1.
         11    1    3    3    0    0  0.22245231006E+01  0.51481386039E+01 -0.14483237360E+02  0.15531129991E+02  0.51100000000E-03 0. -1.
        -11    1    3    3    0    0 -0.46608096845E+01  0.51238089769E+00  0.53352034258E+01  0.71028217601E+01  0.51100000000E-03 0.  1.
         12    1    3    3    0    0 -0.16791946196E+02  0.51008624118E+01  0.32195552550E+02  0.36667995015E+02  0.00000000000E+00 0. -1.
</event>
<event>
 7    1  0.4237994E-013  0.5930194E+02  0.7816164E-02  0.1266605E+00
        -11   -1    0    0    0    0  0.00000000000E+00  0.00000000000E+00  0.45593999997E+02  0.45594000000E+02  0.51100000000E-03 0. -1.
         11   -1    0    0    0    0 -0.00000000000E+00 -0.00000000000E+00 -0.45593999997E+02  0.45594000000E+02  0.51100000000E-03 0.  1.
    9900012    2    1    2    0    0 -0.69096549826E+01 -0.30576064530E+02 -0.58379609273E+01  0.59301939692E+02  0.49999992093E+02 0.  0.
         12    1    1    2    0    0  0.69096549826E+01  0.30576064530E+02  0.58379609273E+01  0.31886060308E+02  0.00000000000E+00 0. -1.
         11    1    3    3    0    0 -0.10048332438E+02  0.77151069478E+01 -0.39769365313E+01  0.13278097922E+02  0.51100000000E-03 0. -1.
        -11    1    3    3    0    0  0.12047867454E+02 -0.15189791673E+02 -0.72242001695E+01  0.20689851368E+02  0.51100000000E-03 0.  1.
         12    1    3    3    0    0 -0.89091899990E+01 -0.23101379805E+02  0.53631757735E+01  0.25333990402E+02  0.00000000000E+00 0. -1.
</event>
<event>
 7    1  0.4237994E-013  0.5930193E+02  0.7816164E-02  0.1266605E+00
        -11   -1    0    0    0    0  0.00000000000E+00  0.00000000000E+00  0.45593999997E+02  0.45594000000E+02  0.51100000000E-03 0. -1.
         11   -1    0    0    0    0 -0.00000000000E+00 -0.00000000000E+00 -0.45593999997E+02  0.45594000000E+02  0.51100000000E-03 0.  1.
    9900012    2    1    2    0    0  0.35567493445E+01  0.45940978650E+01 -0.31352279005E+02  0.59301927807E+02  0.49999970417E+02 0.  0.
         12    1    1    2    0    0 -0.35567493445E+01 -0.45940978650E+01  0.31352279005E+02  0.31886072193E+02  0.00000000000E+00 0. -1.
         11    1    3    3    0    0 -0.11981719405E+02 -0.12210238270E+02 -0.17015746270E+00  0.17107906720E+02  0.51100000000E-03 0. -1.
        -11    1    3    3    0    0  0.14794479367E+02  0.89709298958E+01 -0.10925196837E+02  0.20462505446E+02  0.51100000000E-03 0.  1.
         12    1    3    3    0    0  0.74398938284E+00  0.78334062389E+01 -0.20256924706E+02  0.21731515641E+02  0.00000000000E+00 0. -1.
</event>
<event>
 7    1  0.4237994E-013  0.5930195E+02  0.7816164E-02  0.1266605E+00
        -11   -1    0    0    0    0  0.00000000000E+00  0.00000000000E+00  0.45593999997E+02  0.45594000000E+02  0.51100000000E-03 0. -1.
         11   -1    0    0    0    0 -0.00000000000E+00 -0.00000000000E+00 -0.45593999997E+02  0.45594000000E+02  0.51100000000E-03 0.  1.
    9900012    2    1    2    0    0  0.56818093551E+01  0.18242084210E+02 -0.25527707244E+02  0.59301946136E+02  0.50000003845E+02 0.  0.
         12    1    1    2    0    0 -0.56818093551E+01 -0.18242084210E+02  0.25527707244E+02  0.31886053864E+02  0.00000000000E+00 0. -1.
         11    1    3    3    0    0 -0.94634144727E+00  0.21886763915E+02 -0.29952038640E+01  0.22111020855E+02  0.51100000000E-03 0. -1.
        -11    1    3    3    0    0  0.19750742444E+01 -0.16106942568E+02 -0.13534306986E+02  0.21130830155E+02  0.51100000000E-03 0.  1.
        -12    1    3    3    0    0  0.46530765580E+01  0.12462262863E+02 -0.89981963942E+01  0.16060095127E+02  0.00000000000E+00 0.  1.
</event>
<event>
 7    1  0.4237994E-013  0.5930194E+02  0.7816164E-02  0.1266605E+00
        -11   -1    0    0    0    0  0.00000000000E+00  0.00000000000E+00  0.45593999997E+02  0.45594000000E+02  0.51100000000E-03 0. -1.
         11   -1    0    0    0    0 -0.00000000000E+00 -0.00000000000E+00 -0.45593999997E+02  0.45594000000E+02  0.51100000000E-03 0.  1.
    9900012    2    1    2    0    0  0.26364831190E+01 -0.26184644938E+02 -0.18003720294E+02  0.59301943201E+02  0.49999998492E+02 0.  0.
         12    1    1    2    0    0 -0.26364831190E+01  0.26184644938E+02  0.18003720294E+02  0.31886056799E+02  0.00000000000E+00 0. -1.
         11    1    3    3    0    0 -0.23245614877E+00  0.74378515991E+01 -0.56597916812E+01  0.93492734694E+01  0.51100000000E-03 0.  1.
        -11    1    3    3    0    0  0.77187968502E+01 -0.15838292477E+02  0.10568411385E+02  0.20545623691E+02  0.51100000000E-03 0. -1.
        -12    1    3    3    0    0 -0.48498575824E+01 -0.17784204061E+02 -0.22912339998E+02  0.29407046040E+02  0.00000000000E+00 0.  1.
</event>
<event>
 7    1  0.4237994E-013  0.5930194E+02  0.7816164E-02  0.1266605E+00
        -11   -1    0    0    0    0  0.00000000000E+00  0.00000000000E+00  0.45593999997E+02  0.45594000000E+02  0.51100000000E-03 0.  1.
         11   -1    0    0    0    0 -0.00000000000E+00 -0.00000000000E+00 -0.45593999997E+02  0.45594000000E+02  0.51100000000E-03 0. -1.
    9900012    2    1    2    0    0  0.24868165997E+02 -0.19202575963E+02 -0.54365546587E+01  0.59301941444E+02  0.49999995289E+02 0.  0.
         12    1    1    2    0    0 -0.24868165997E+02  0.19202575963E+02  0.54365546587E+01  0.31886058556E+02  0.00000000000E+00 0. -1.
         11    1    3    3    0    0 -0.14202278187E+02 -0.42814560615E+01  0.29076815704E+01  0.15115891773E+02  0.51100000000E-03 0. -1.
        -11    1    3    3    0    0  0.45598774322E+01  0.12866378524E+01 -0.31910840020E+01  0.57123494753E+01  0.51100000000E-03 0.  1.
         12    1    3    3    0    0  0.34510566752E+02 -0.16207757754E+02 -0.51531522271E+01  0.38473700196E+02  0.00000000000E+00 0. -1.
</event>
<event>
 7    1  0.4237994E-013  0.5930194E+02  0.7816164E-02  0.1266605E+00
        -11   -1    0    0    0    0  0.00000000000E+00  0.00000000000E+00  0.45593999997E+02  0.45594000000E+02  0.51100000000E-03 0.  1.
         11   -1    0    0    0    0 -0.00000000000E+00 -0.00000000000E+00 -0.45593999997E+02  0.45594000000E+02  0.51100000000E-03 0. -1.
    9900012    2    1    2    0    0 -0.27735730442E+02  0.13937097787E+02  0.72943280789E+01  0.59301942545E+02  0.49999997296E+02 0.  0.
         12    1    1    2    0    0  0.27735730442E+02 -0.13937097787E+02 -0.72943280789E+01  0.31886057455E+02  0.00000000000E+00 0. -1.
         11    1    3    3    0    0 -0.22788049354E+02  0.77587954285E+01  0.14956022536E+01  0.24119098786E+02  0.51100000000E-03 0. -1.
        -11    1    3    3    0    0  0.13499012787E+02 -0.27364499184E+01 -0.39489534931E+00  0.13779239710E+02  0.51100000000E-03 0.  1.
        -12    1    3    3    0    0 -0.18446693875E+02  0.89147522771E+01  0.61936211747E+01  0.21403604050E+02  0.00000000000E+00 0.  1.
</event>
<event>
 7    1  0.4237994E-013  0.5930191E+02  0.7816164E-02  0.1266605E+00
        -11   -1    0    0    0    0  0.00000000000E+00  0.00000000000E+00  0.45593999997E+02  0.45594000000E+02  0.51100000000E-03 0.  1.
         11   -1    0    0    0    0 -0.00000000000E+00 -0.00000000000E+00 -0.45593999997E+02  0.45594000000E+02  0.51100000000E-03 0. -1.
    9900012    2    1    2    0    0  0.16291180879E+01  0.22795582619E+02  0.22235791779E+02  0.59301905088E+02  0.49999928983E+02 0.  0.
         12    1    1    2    0    0 -0.16291180879E+01 -0.22795582619E+02 -0.22235791779E+02  0.31886094912E+02  0.00000000000E+00 0. -1.
         11    1    3    3    0    0 -0.30606391928E+01 -0.10840418926E+02  0.48665870339E+01  0.12270528284E+02  0.51100000000E-03 0. -1.
        -11    1    3    3    0    0  0.20312633324E+01  0.21154663263E+02  0.24483877089E+02  0.32420765661E+02  0.51100000000E-03 0.  1.
         12    1    3    3    0    0  0.26584939483E+01  0.12481338282E+02 -0.71146723439E+01  0.14610611142E+02  0.00000000000E+00 0. -1.
</event>
<event>
 7    1  0.4237994E-013  0.5930202E+02  0.7816164E-02  0.1266604E+00
        -11   -1    0    0    0    0  0.00000000000E+00  0.00000000000E+00  0.45593999997E+02  0.45594000000E+02  0.51100000000E-03 0. -1.
         11   -1    0    0    0    0 -0.00000000000E+00 -0.00000000000E+00 -0.45593999997E+02  0.45594000000E+02  0.51100000000E-03 0.  1.
    9900012    2    1    2    0    0  0.20671765161E+02 -0.13245583391E+02 -0.20345719400E+02  0.59302021073E+02  0.50000140512E+02 0.  0.
         12    1    1    2    0    0 -0.20671765161E+02  0.13245583391E+02  0.20345719400E+02  0.31885978927E+02  0.00000000000E+00 0. -1.
         11    1    3    3    0    0  0.81114749333E+01  0.10583369970E+02  0.82450883445E+01  0.15677538952E+02  0.51100000000E-03 0. -1.
        -11    1    3    3    0    0 -0.16710393032E+00 -0.44089406114E+01 -0.17209477186E+02  0.17766057140E+02  0.51100000000E-03 0.  1.
         12    1    3    3    0    0  0.12727394158E+02 -0.19420012750E+02 -0.11381330558E+02  0.25858424981E+02  0.00000000000E+00 0. -1.
</event>
<event>
 7    1  0.4237994E-013  0.5930197E+02  0.7816164E-02  0.1266605E+00
        -11   -1    0    0    0    0  0.00000000000E+00  0.00000000000E+00  0.45593999997E+02  0.45594000000E+02  0.51100000000E-03 0.  1.
         11   -1    0    0    0    0 -0.00000000000E+00 -0.00000000000E+00 -0.45593999997E+02  0.45594000000E+02  0.51100000000E-03 0. -1.
    9900012    2    1    2    0    0 -0.27255049467E+02 -0.16520503004E+02 -0.97695395782E+00  0.59301965753E+02  0.50000039622E+02 0.  0.
         12    1    1    2    0    0  0.27255049467E+02  0.16520503004E+02  0.97695395782E+00  0.31886034247E+02  0.00000000000E+00 0. -1.
         11    1    3    3    0    0 -0.94980584062E+01  0.13335786831E+01  0.13710064620E+01  0.96887153210E+01  0.51100000000E-03 0. -1.
        -11    1    3    3    0    0 -0.18115398203E+00  0.43474114390E+01 -0.17127723046E+02  0.17671776933E+02  0.51100000000E-03 0.  1.
        -12    1    3    3    0    0 -0.17575837079E+02 -0.22201493126E+02  0.14779762626E+02  0.31941473499E+02  0.00000000000E+00 0.  1.
</event>
<event>
 7    1  0.4237994E-013  0.5930196E+02  0.7816164E-02  0.1266605E+00
        -11   -1    0    0    0    0  0.00000000000E+00  0.00000000000E+00  0.45593999997E+02  0.45594000000E+02  0.51100000000E-03 0. -1.
         11   -1    0    0    0    0 -0.00000000000E+00 -0.00000000000E+00 -0.45593999997E+02  0.45594000000E+02  0.51100000000E-03 0.  1.
    9900012    2    1    2    0    0 -0.19163472820E+02 -0.25355938693E+02 -0.25606468276E+01  0.59301964974E+02  0.50000038201E+02 0.  0.
         12    1    1    2    0    0  0.19163472820E+02  0.25355938693E+02  0.25606468276E+01  0.31886035026E+02  0.00000000000E+00 0. -1.
         11    1    3    3    0    0 -0.10144819288E+02 -0.84400420765E+01  0.54367690601E+01  0.14272705655E+02  0.51100000000E-03 0. -1.
        -11    1    3    3    0    0  0.78360398692E-01 -0.28903633763E+02 -0.79629837402E+01  0.29980581971E+02  0.51100000000E-03 0.  1.
        -12    1    3    3    0    0 -0.90970139306E+01  0.11987737146E+02 -0.34432147525E-01  0.15048677348E+02  0.00000000000E+00 0.  1.
</event>
<event>
 7    1  0.4237994E-013  0.5930194E+02  0.7816164E-02  0.1266605E+00
        -11   -1    0    0    0    0  0.00000000000E+00  0.00000000000E+00  0.45593999997E+02  0.45594000000E+02  0.51100000000E-03 0. -1.
         11   -1    0    0    0    0 -0.00000000000E+00 -0.00000000000E+00 -0.45593999997E+02  0.45594000000E+02  0.51100000000E-03 0.  1.
    9900012    2    1    2    0    0 -0.23785742408E+02  0.40553189933E-01 -0.21235762107E+02  0.59301940684E+02  0.49999993902E+02 0.  0.
         12    1    1    2    0    0  0.23785742408E+02 -0.40553189933E-01  0.21235762107E+02  0.31886059316E+02  0.00000000000E+00 0. -1.
         11    1    3    3    0    0 -0.77594076438E+01 -0.22027667406E+02 -0.38773683315E+01  0.23674047473E+02  0.51100000000E-03 0. -1.
        -11    1    3    3    0    0 -0.13960609457E+02  0.20567672600E+02 -0.82855400051E+01  0.26202632426E+02  0.51100000000E-03 0.  1.
        -12    1    3    3    0    0 -0.20657253068E+01  0.15005479955E+01 -0.90728537703E+01  0.94252607851E+01  0.00000000000E+00 0.  1.
</event>
<event>
 7    1  0.4237994E-013  0.5930194E+02  0.7816164E-02  0.1266605E+00
        -11   -1    0    0    0    0  0.00000000000E+00  0.00000000000E+00  0.45593999997E+02  0.45594000000E+02  0.51100000000E-03 0.  1.
         11   -1    0    0    0    0 -0.00000000000E+00 -0.00000000000E+00 -0.45593999997E+02  0.45594000000E+02  0.51100000000E-03 0. -1.
    9900012    2    1    2    0    0  0.89436620968E+00  0.68932779325E+01  0.31119185623E+02  0.59301939011E+02  0.49999990851E+02 0.  0.
         12    1    1    2    0    0 -0.89436620968E+00 -0.68932779325E+01 -0.31119185623E+02  0.31886060989E+02  0.00000000000E+00 0. -1.
         11    1    3    3    0    0 -0.13060957198E+02  0.17299698192E+02  0.16223333280E+02  0.27075167653E+02  0.51100000000E-03 0.  1.
        -11    1    3    3    0    0  0.38943421524E+01 -0.10495066191E+02 -0.30944275240E+01  0.11614120592E+02  0.51100000000E-03 0. -1.
         12    1    3    3    0    0  0.10060981255E+02  0.88645931593E-01  0.17990279867E+02  0.20612650766E+02  0.00000000000E+00 0. -1.
</event>
<event>
 7    1  0.4237994E-013  0.5930193E+02  0.7816164E-02  0.1266605E+00
        -11   -1    0    0    0    0  0.00000000000E+00  0.00000000000E+00  0.45593999997E+02  0.45594000000E+02  0.51100000000E-03 0. -1.
         11   -1    0    0    0    0 -0.00000000000E+00 -0.00000000000E+00 -0.45593999997E+02  0.45594000000E+02  0.51100000000E-03 0.  1.
    9900012    2    1    2    0    0 -0.10865196167E+01  0.27244120940E+02 -0.16531744285E+02  0.59301933768E+02  0.49999981289E+02 0.  0.
         12    1    1    2    0    0  0.10865196167E+01 -0.27244120940E+02  0.16531744285E+02  0.31886066232E+02  0.00000000000E+00 0. -1.
         11    1    3    3    0    0  0.76134359988E+01 -0.10495825127E+02  0.74870697323E+00  0.12987968094E+02  0.51100000000E-03 0. -1.
        -11    1    3    3    0    0  0.45553086038E+01  0.14108528603E+02 -0.13604653768E+01  0.14887991205E+02  0.51100000000E-03 0.  1.
         12    1    3    3    0    0 -0.13255264219E+02  0.23631417465E+02 -0.15919985881E+02  0.31425974470E+02  0.00000000000E+00 0. -1.
</event>
<event>
 7    1  0.4237994E-013  0.5930194E+02  0.7816164E-02  0.1266605E+00
        -11   -1    0    0    0    0  0.00000000000E+00  0.00000000000E+00  0.45593999997E+02  0.45594000000E+02  0.51100000000E-03 0.  1.
         11   -1    0    0    0    0 -0.00000000000E+00 -0.00000000000E+00 -0.45593999997E+02  0.45594000000E+02  0.51100000000E-03 0. -1.
    9900012    2    1    2    0    0  0.13460544652E+02  0.18956655380E+02  0.21821544937E+02  0.59301939269E+02  0.49999991321E+02 0.  0.
         12    1    1    2    0    0 -0.13460544652E+02 -0.18956655380E+02 -0.21821544937E+02  0.31886060731E+02  0.00000000000E+00 0. -1.
         11    1    3    3    0    0 -0.33537697393E+01  0.16063299380E+02  0.10225185531E+02  0.19334729836E+02  0.51100000000E-03 0. -1.
        -11    1    3    3    0    0 -0.58289226659E+00  0.27306167908E+01 -0.11056878700E+02  0.11403972917E+02  0.51100000000E-03 0.  1.
        -12    1    3    3    0    0  0.17397206658E+02  0.16273920919E+00  0.22653238106E+02  0.28563236516E+02  0.00000000000E+00 0.  1.
</event>
<event>
 7    1  0.4237994E-013  0.5930220E+02  0.7816164E-02  0.1266604E+00
        -11   -1    0    0    0    0  0.00000000000E+00  0.00000000000E+00  0.45593999997E+02  0.45594000000E+02  0.51100000000E-03 0.  1.
         11   -1    0    0    0    0 -0.00000000000E+00 -0.00000000000E+00 -0.45593999997E+02  0.45594000000E+02  0.51100000000E-03 0. -1.
    9900012    2    1    2    0    0 -0.22199110230E+02 -0.21686454386E+02  0.73213191129E+01  0.59302195754E+02  0.50000459087E+02 0.  0.
         12    1    1    2    0    0  0.22199110230E+02  0.21686454386E+02 -0.73213191129E+01  0.31885804246E+02  0.00000000000E+00 0. -1.
         11    1    3    3    0    0  0.81348989735E-01  0.21251047686E+01 -0.12900608720E+02  0.13074723460E+02  0.51100000000E-03 0. -1.
        -11    1    3    3    0    0 -0.35901285377E+01 -0.22136889592E+02  0.78932855525E+01  0.23774668469E+02  0.51100000000E-03 0.  1.
        -12    1    3    3    0    0 -0.18690330682E+02 -0.16746695623E+01  0.12328642281E+02  0.22452803826E+02  0.00000000000E+00 0.  1.
</event>
<event>
 7    1  0.4237994E-013  0.5930195E+02  0.7816164E-02  0.1266605E+00
        -11   -1    0    0    0    0  0.00000000000E+00  0.00000000000E+00  0.45593999997E+02  0.45594000000E+02  0.51100000000E-03 0.  1.
         11   -1    0    0    0    0 -0.00000000000E+00 -0.00000000000E+00 -0.45593999997E+02  0.45594000000E+02  0.51100000000E-03 0. -1.
    9900012    2    1    2    0    0  0.14603301439E+02  0.28156658988E+02  0.32658965160E+01  0.59301953861E+02  0.50000017934E+02 0.  0.
         12    1    1    2    0    0 -0.14603301439E+02 -0.28156658988E+02 -0.32658965160E+01  0.31886046139E+02  0.00000000000E+00 0. -1.
         11    1    3    3    0    0  0.15254878151E+02  0.83212166804E+01 -0.12727174055E+02  0.21539148407E+02  0.51100000000E-03 0. -1.
        -11    1    3    3    0    0  0.12157464494E+02  0.17195514239E+02  0.11044560797E+02  0.23779654672E+02  0.51100000000E-03 0.  1.
         12    1    3    3    0    0 -0.12809041205E+02  0.26399280686E+01  0.49485097740E+01  0.13983150782E+02  0.00000000000E+00 0. -1.
</event>
<event>
 7    1  0.4237994E-013  0.5930192E+02  0.7816164E-02  0.1266605E+00
        -11   -1    0    0    0    0  0.00000000000E+00  0.00000000000E+00  0.45593999997E+02  0.45594000000E+02  0.51100000000E-03 0.  1.
         11   -1    0    0    0    0 -0.00000000000E+00 -0.00000000000E+00 -0.45593999997E+02  0.45594000000E+02  0.51100000000E-03 0. -1.
    9900012    2    1    2    0    0  0.56416848257E+01 -0.18041572933E+02  0.25678690226E+02  0.59301920070E+02  0.49999956307E+02 0.  0.
         12    1    1    2    0    0 -0.56416848257E+01  0.18041572933E+02 -0.25678690226E+02  0.31886079930E+02  0.00000000000E+00 0. -1.
         11    1    3    3    0    0  0.11029563363E+02 -0.19825294660E+02  0.43300531182E+01  0.23096383626E+02  0.51100000000E-03 0. -1.
        -11    1    3    3    0    0 -0.37418515605E+01  0.11368173853E+02  0.23385171510E+02  0.26269813031E+02  0.51100000000E-03 0.  1.
         12    1    3    3    0    0 -0.16460269772E+01 -0.95844521264E+01 -0.20365344018E+01  0.99357234131E+01  0.00000000000E+00 0. -1.
</event>
<event>
 7    1  0.4237994E-013  0.5930198E+02  0.7816164E-02  0.1266605E+00
        -11   -1    0    0    0    0  0.00000000000E+00  0.00000000000E+00  0.45593999997E+02  0.45594000000E+02  0.51100000000E-03 0.  1.
         11   -1    0    0    0    0 -0.00000000000E+00 -0.00000000000E+00 -0.45593999997E+02  0.45594000000E+02  0.51100000000E-03 0. -1.
    9900012    2    1    2    0    0 -0.15673699736E+02 -0.17957506656E+02  0.21179741240E+02  0.59301978804E+02  0.50000063424E+02 0.  0.
         12    1    1    2    0    0  0.15673699736E+02  0.17957506656E+02 -0.21179741240E+02  0.31886021196E+02  0.00000000000E+00 0. -1.
         11    1    3    3    0    0  0.11636135753E+02 -0.53841577942E+01  0.87891124245E+01  0.15544687449E+02  0.51100000000E-03 0.  1.
        -11    1    3    3    0    0 -0.21970625161E+02 -0.13613262519E+02 -0.43010135088E+01  0.26201679409E+02  0.51100000000E-03 0. -1.
        -12    1    3    3    0    0 -0.53392103283E+01  0.10399136578E+01  0.16691642324E+02  0.17555611947E+02  0.00000000000E+00 0.  1.
</event>
<event>
 7    1  0.4237994E-013  0.5930194E+02  0.7816164E-02  0.1266605E+00
        -11   -1    0    0    0    0  0.00000000000E+00  0.00000000000E+00  0.45593999997E+02  0.45594000000E+02  0.51100000000E-03 0. -1.
         11   -1    0    0    0    0 -0.00000000000E+00 -0.00000000000E+00 -0.45593999997E+02  0.45594000000E+02  0.51100000000E-03 0.  1.
    9900012    2    1    2    0    0  0.14082010258E+02 -0.19303458569E+01 -0.28542802753E+02  0.59301939769E+02  0.49999992233E+02 0.  0.
         12    1    1    2    0    0 -0.14082010258E+02  0.19303458569E+01  0.28542802753E+02  0.31886060231E+02  0.00000000000E+00 0. -1.
         11    1    3    3    0    0  0.25482137302E+01 -0.33690909864E+01  0.38086242932E+01  0.56876872767E+01  0.51100000000E-03 0. -1.
        -11    1    3    3    0    0  0.85960880581E+01  0.19757043282E+02 -0.26515077656E+02  0.34165521107E+02  0.51100000000E-03 0.  1.
        -12    1    3    3    0    0  0.29377084698E+01 -0.18318298153E+02 -0.58363493904E+01  0.19448731385E+02  0.00000000000E+00 0.  1.
</event>
<event>
 7    1  0.4237994E-013  0.5930196E+02  0.7816164E-02  0.1266605E+00
        -11   -1    0    0    0    0  0.00000000000E+00  0.00000000000E+00  0.45593999997E+02  0.45594000000E+02  0.51100000000E-03 0. -1.
         11   -1    0    0    0    0 -0.00000000000E+00 -0.00000000000E+00 -0.45593999997E+02  0.45594000000E+02  0.51100000000E-03 0.  1.
    9900012    2    1    2    0    0  0.15289472567E+02  0.11164777715E+02 -0.25657349938E+02  0.59301955425E+02  0.50000020786E+02 0.  0.
         12    1    1    2    0    0 -0.15289472567E+02 -0.11164777715E+02  0.25657349938E+02  0.31886044575E+02  0.00000000000E+00 0. -1.
         11    1    3    3    0    0 -0.32384675323E+01  0.12201010512E+02 -0.19879513054E+01  0.12779056309E+02  0.51100000000E-03 0. -1.
        -11    1    3    3    0    0  0.23158658359E+02 -0.34771329160E+01 -0.11969221735E+01  0.23448806649E+02  0.51100000000E-03 0.  1.
        -12    1    3    3    0    0 -0.46307182599E+01  0.24409001186E+01 -0.22472476459E+02  0.23074092467E+02  0.00000000000E+00 0.  1.
</event>
<event>
 7    1  0.4237994E-013  0.5930193E+02  0.7816164E-02  0.1266605E+00
        -11   -1    0    0    0    0  0.00000000000E+00  0.00000000000E+00  0.45593999997E+02  0.45594000000E+02  0.51100000000E-03 0.  1.
         11   -1    0    0    0    0 -0.00000000000E+00 -0.00000000000E+00 -0.45593999997E+02  0.45594000000E+02  0.51100000000E-03 0. -1.
    9900012    2    1    2    0    0  0.21881614672E+02  0.20827011228E+02 -0.10205497942E+02  0.59301927091E+02  0.49999969111E+02 0.  0.
         12    1    1    2    0    0 -0.21881614672E+02 -0.20827011228E+02  0.10205497942E+02  0.31886072909E+02  0.00000000000E+00 0. -1.
         11    1    3    3    0    0  0.35148299063E+01 -0.88161317037E+01  0.12468344457E+02  0.15669646494E+02  0.51100000000E-03 0. -1.
        -11    1    3    3    0    0  0.18144449072E+02  0.24124973927E+02 -0.13825971214E+02  0.33202302321E+02  0.51100000000E-03 0.  1.
        -12    1    3    3    0    0  0.22233569346E+00  0.55181690046E+01 -0.88478711854E+01  0.10429978276E+02  0.00000000000E+00 0.  1.
</event>
<event>
 7    1  0.4237994E-013  0.5930204E+02  0.7816164E-02  0.1266604E+00
        -11   -1    0    0    0    0  0.00000000000E+00  0.00000000000E+00  0.45593999997E+02  0.45594000000E+02  0.51100000000E-03 0. -1.
         11   -1    0    0    0    0 -0.00000000000E+00 -0.00000000000E+00 -0.45593999997E+02  0.45594000000E+02  0.51100000000E-03 0.  1.
    9900012    2    1    2    0    0  0.15968402116E+02 -0.27293900496E+02  0.40948286037E+01  0.59302039269E+02  0.50000173698E+02 0.  0.
         12    1    1    2    0    0 -0.15968402116E+02  0.27293900496E+02 -0.40948286037E+01  0.31885960731E+02  0.00000000000E+00 0. -1.
         11    1    3    3    0    0 -0.36996735230E+01 -0.80637857704E+01  0.14742262376E+02  0.17206002596E+02  0.51100000000E-03 0. -1.
        -11    1    3    3    0    0  0.70897499524E+01  0.28790298985E+01 -0.14474806709E+02  0.16372947110E+02  0.51100000000E-03 0.  1.
        -12    1    3    3    0    0  0.12578325687E+02 -0.22109144624E+02  0.38273729367E+01  0.25723089563E+02  0.00000000000E+00 0.  1.
</event>
<event>
 7    1  0.4237994E-013  0.5930179E+02  0.7816164E-02  0.1266605E+00
        -11   -1    0    0    0    0  0.00000000000E+00  0.00000000000E+00  0.45593999997E+02  0.45594000000E+02  0.51100000000E-03 0.  1.
         11   -1    0    0    0    0 -0.00000000000E+00 -0.00000000000E+00 -0.45593999997E+02  0.45594000000E+02  0.51100000000E-03 0. -1.
    9900012    2    1    2    0    0  0.80590255902E+01 -0.20711042837E+02  0.22865595014E+02  0.59301786299E+02  0.49999712340E+02 0.  0.
         12    1    1    2    0    0 -0.80590255902E+01  0.20711042837E+02 -0.22865595014E+02  0.31886213701E+02  0.00000000000E+00 0. -1.
         11    1    3    3    0    0  0.80521740221E+01  0.50907250215E+01 -0.73208056878E+01  0.12014457287E+02  0.51100000000E-03 0. -1.
        -11    1    3    3    0    0 -0.10877999454E+02 -0.14930849552E+02  0.76356554710E+01  0.19989106413E+02  0.51100000000E-03 0.  1.
        -12    1    3    3    0    0  0.10884851022E+02 -0.10870918306E+02  0.22550745231E+02  0.27298222599E+02  0.00000000000E+00 0.  1.
</event>
<event>
 7    1  0.4237994E-013  0.5930193E+02  0.7816164E-02  0.1266605E+00
        -11   -1    0    0    0    0  0.00000000000E+00  0.00000000000E+00  0.45593999997E+02  0.45594000000E+02  0.51100000000E-03 0. -1.
         11   -1    0    0    0    0 -0.00000000000E+00 -0.00000000000E+00 -0.45593999997E+02  0.45594000000E+02  0.51100000000E-03 0.  1.
    9900012    2    1    2    0    0  0.22125254293E+02  0.20823522094E+02 -0.96734414042E+01  0.59301930651E+02  0.49999975605E+02 0.  0.
         12    1    1    2    0    0 -0.22125254293E+02 -0.20823522094E+02  0.96734414042E+01  0.31886069349E+02  0.00000000000E+00 0. -1.
         11    1    3    3    0    0  0.42723916470E+01  0.28318642654E+01 -0.16310673703E+02  0.17097100998E+02  0.51100000000E-03 0.  1.
        -11    1    3    3    0    0  0.27644358959E+01  0.92957762008E+00  0.16952268546E+02  0.17201326388E+02  0.51100000000E-03 0. -1.
        -12    1    3    3    0    0  0.15088426750E+02  0.17062080208E+02 -0.10315036247E+02  0.25003503266E+02  0.00000000000E+00 0.  1.
</event>
<event>
 7    1  0.4237994E-013  0.5930192E+02  0.7816164E-02  0.1266605E+00
        -11   -1    0    0    0    0  0.00000000000E+00  0.00000000000E+00  0.45593999997E+02  0.45594000000E+02  0.51100000000E-03 0. -1.
         11   -1    0    0    0    0 -0.00000000000E+00 -0.00000000000E+00 -0.45593999997E+02  0.45594000000E+02  0.51100000000E-03 0.  1.
    9900012    2    1    2    0    0 -0.86789366754E+01 -0.28267292659E+02  0.11931392072E+02  0.59301923213E+02  0.49999962039E+02 0.  0.
         12    1    1    2    0    0  0.86789366754E+01  0.28267292659E+02 -0.11931392072E+02  0.31886076787E+02  0.00000000000E+00 0. -1.
         11    1    3    3    0    0 -0.23311015857E+02 -0.22209018159E+02  0.95902304474E+01  0.33594887531E+02  0.51100000000E-03 0. -1.
        -11    1    3    3    0    0  0.27977965618E+01 -0.77383978817E+01 -0.67875846110E+01  0.10666853917E+02  0.51100000000E-03 0.  1.
         12    1    3    3    0    0  0.11834282620E+02  0.16801233820E+01  0.91287462353E+01  0.15040181765E+02  0.00000000000E+00 0. -1.
</event>
<event>
 7    1  0.4237994E-013  0.5930195E+02  0.7816164E-02  0.1266605E+00
        -11   -1    0    0    0    0  0.00000000000E+00  0.00000000000E+00  0.45593999997E+02  0.45594000000E+02  0.51100000000E-03 0. -1.
         11   -1    0    0    0    0 -0.00000000000E+00 -0.00000000000E+00 -0.45593999997E+02  0.45594000000E+02  0.51100000000E-03 0.  1.
    9900012    2    1    2    0    0 -0.22176456527E+02  0.17200868830E+02 -0.15134562947E+02  0.59301951198E+02  0.50000013076E+02 0.  0.
         12    1    1    2    0    0  0.22176456527E+02 -0.17200868830E+02  0.15134562947E+02  0.31886048802E+02  0.00000000000E+00 0. -1.
         11    1    3    3    0    0 -0.21381529199E+02  0.11481559139E+01 -0.27895663786E+02  0.35166121640E+02  0.51100000000E-03 0. -1.
        -11    1    3    3    0    0  0.49451838908E+01  0.75961354875E+01  0.19755344227E+01  0.92767911787E+01  0.51100000000E-03 0.  1.
         12    1    3    3    0    0 -0.57401112192E+01  0.84565774291E+01  0.10785566417E+02  0.14859038379E+02  0.00000000000E+00 0. -1.
</event>
<event>
 7    1  0.4237994E-013  0.5930194E+02  0.7816164E-02  0.1266605E+00
        -11   -1    0    0    0    0  0.00000000000E+00  0.00000000000E+00  0.45593999997E+02  0.45594000000E+02  0.51100000000E-03 0. -1.
         11   -1    0    0    0    0 -0.00000000000E+00 -0.00000000000E+00 -0.45593999997E+02  0.45594000000E+02  0.51100000000E-03 0.  1.
    9900012    2    1    2    0    0 -0.25497798047E+02 -0.13582761208E+02 -0.13494126572E+02  0.59301944125E+02  0.50000000178E+02 0.  0.
         12    1    1    2    0    0  0.25497798047E+02  0.13582761208E+02  0.13494126572E+02  0.31886055875E+02  0.00000000000E+00 0. -1.
         11    1    3    3    0    0 -0.10327844229E+02 -0.56260669087E+01  0.17576040346E+02  0.21147912185E+02  0.51100000000E-03 0. -1.
        -11    1    3    3    0    0 -0.36843434141E+01 -0.84130606917E+01 -0.20808550642E+02  0.22745323842E+02  0.51100000000E-03 0.  1.
         12    1    3    3    0    0 -0.11485610405E+02  0.45636639248E+00 -0.10261616277E+02  0.15408708099E+02  0.00000000000E+00 0. -1.
</event>
<event>
 7    1  0.4237994E-013  0.5930195E+02  0.7816164E-02  0.1266605E+00
        -11   -1    0    0    0    0  0.00000000000E+00  0.00000000000E+00  0.45593999997E+02  0.45594000000E+02  0.51100000000E-03 0.  1.
         11   -1    0    0    0    0 -0.00000000000E+00 -0.00000000000E+00 -0.45593999997E+02  0.45594000000E+02  0.51100000000E-03 0. -1.
    9900012    2    1    2    0    0 -0.85932027966E+01  0.17437572900E+02  0.25274654933E+02  0.59301948741E+02  0.50000008595E+02 0.  0.
         12    1    1    2    0    0  0.85932027966E+01 -0.17437572900E+02 -0.25274654933E+02  0.31886051259E+02  0.00000000000E+00 0. -1.
         11    1    3    3    0    0 -0.87226211483E+01 -0.88777201003E+01 -0.57936366065E-01  0.12445938726E+02  0.51100000000E-03 0. -1.
        -11    1    3    3    0    0 -0.12838185186E+02  0.14417900525E+02  0.49549859016E+01  0.19931049645E+02  0.51100000000E-03 0.  1.
         12    1    3    3    0    0  0.12967603537E+02  0.11897392475E+02  0.20377605397E+02  0.26924960370E+02  0.00000000000E+00 0. -1.
</event>
<event>
 7    1  0.4237994E-013  0.5930196E+02  0.7816164E-02  0.1266605E+00
        -11   -1    0    0    0    0  0.00000000000E+00  0.00000000000E+00  0.45593999997E+02  0.45594000000E+02  0.51100000000E-03 0.  1.
         11   -1    0    0    0    0 -0.00000000000E+00 -0.00000000000E+00 -0.45593999997E+02  0.45594000000E+02  0.51100000000E-03 0. -1.
    9900012    2    1    2    0    0  0.27161592322E+01 -0.15948452043E+02  0.27477062608E+02  0.59301958961E+02  0.50000027235E+02 0.  0.
         12    1    1    2    0    0 -0.27161592322E+01  0.15948452043E+02 -0.27477062608E+02  0.31886041039E+02  0.00000000000E+00 0. -1.
         11    1    3    3    0    0 -0.19956114527E+01  0.12742812611E+02  0.17728003200E+02  0.21923590856E+02  0.51100000000E-03 0. -1.
        -11    1    3    3    0    0  0.13060065909E+02 -0.15101961008E+02  0.72153316469E+01  0.21229591585E+02  0.51100000000E-03 0.  1.
        -12    1    3    3    0    0 -0.83482952240E+01 -0.13589303646E+02  0.25337277613E+01  0.16148776521E+02  0.00000000000E+00 0.  1.
</event>
<event>
 7    1  0.4237994E-013  0.5930194E+02  0.7816164E-02  0.1266605E+00
        -11   -1    0    0    0    0  0.00000000000E+00  0.00000000000E+00  0.45593999997E+02  0.45594000000E+02  0.51100000000E-03 0.  1.
         11   -1    0    0    0    0 -0.00000000000E+00 -0.00000000000E+00 -0.45593999997E+02  0.45594000000E+02  0.51100000000E-03 0. -1.
    9900012    2    1    2    0    0 -0.22884210135E+02  0.98096171484E+01  0.19919968149E+02  0.59301940457E+02  0.49999993489E+02 0.  0.
         12    1    1    2    0    0  0.22884210135E+02 -0.98096171484E+01 -0.19919968149E+02  0.31886059543E+02  0.00000000000E+00 0. -1.
         11    1    3    3    0    0 -0.15549512209E+02  0.52261253725E+01 -0.24082299787E+01  0.16580087100E+02  0.51100000000E-03 0. -1.
        -11    1    3    3    0    0 -0.12994378637E+02 -0.75460539762E+01  0.24908872839E+02  0.29090354985E+02  0.51100000000E-03 0.  1.
        -12    1    3    3    0    0  0.56596807113E+01  0.12129545752E+02 -0.25806747115E+01  0.13631498372E+02  0.00000000000E+00 0.  1.
</event>
<event>
 7    1  0.4237994E-013  0.5930194E+02  0.7816164E-02  0.1266605E+00
        -11   -1    0    0    0    0  0.00000000000E+00  0.00000000000E+00  0.45593999997E+02  0.45594000000E+02  0.51100000000E-03 0. -1.
         11   -1    0    0    0    0 -0.00000000000E+00 -0.00000000000E+00 -0.45593999997E+02  0.45594000000E+02  0.51100000000E-03 0.  1.
    9900012    2    1    2    0    0  0.17896965566E+02  0.18887049203E+02 -0.18430914820E+02  0.59301943092E+02  0.49999998293E+02 0.  0.
         12    1    1    2    0    0 -0.17896965566E+02 -0.18887049203E+02  0.18430914820E+02  0.31886056908E+02  0.00000000000E+00 0. -1.
         11    1    3    3    0    0 -0.33040096588E+00  0.20272750911E+02 -0.15564630202E+02  0.25560737624E+02  0.51100000000E-03 0.  1.
        -11    1    3    3    0    0  0.24504877897E+02  0.13085058831E+01  0.30185091584E+01  0.24724737131E+02  0.51100000000E-03 0. -1.
        -12    1    3    3    0    0 -0.62775113649E+01 -0.26942075915E+01 -0.58847937761E+01  0.90164683368E+01  0.00000000000E+00 0.  1.
</event>
<event>
 7    1  0.4237994E-013  0.5930195E+02  0.7816164E-02  0.1266605E+00
        -11   -1    0    0    0    0  0.00000000000E+00  0.00000000000E+00  0.45593999997E+02  0.45594000000E+02  0.51100000000E-03 0. -1.
         11   -1    0    0    0    0 -0.00000000000E+00 -0.00000000000E+00 -0.45593999997E+02  0.45594000000E+02  0.51100000000E-03 0.  1.
    9900012    2    1    2    0    0  0.58110975258E+01  0.12186315067E+02 -0.28886761705E+02  0.59301950838E+02  0.50000012420E+02 0.  0.
         12    1    1    2    0    0 -0.58110975258E+01 -0.12186315067E+02  0.28886761705E+02  0.31886049162E+02  0.00000000000E+00 0. -1.
         11    1    3    3    0    0 -0.13638112753E+02 -0.10541666879E+02 -0.64733644751E+01  0.18412748517E+02  0.51100000000E-03 0. -1.
        -11    1    3    3    0    0  0.16643544021E+02  0.74747429579E+01 -0.15367724392E+02  0.23854691219E+02  0.51100000000E-03 0.  1.
        -12    1    3    3    0    0  0.28056662577E+01  0.15253238988E+02 -0.70456728375E+01  0.17034511103E+02  0.00000000000E+00 0.  1.
</event>
<event>
 7    1  0.4237994E-013  0.5930195E+02  0.7816164E-02  0.1266605E+00
        -11   -1    0    0    0    0  0.00000000000E+00  0.00000000000E+00  0.45593999997E+02  0.45594000000E+02  0.51100000000E-03 0. -1.
         11   -1    0    0    0    0 -0.00000000000E+00 -0.00000000000E+00 -0.45593999997E+02  0.45594000000E+02  0.51100000000E-03 0.  1.
    9900012    2    1    2    0    0 -0.19694556448E+02 -0.43138001151E+01 -0.24702951260E+02  0.59301949350E+02  0.50000009706E+02 0.  0.
         12    1    1    2    0    0  0.19694556448E+02  0.43138001151E+01  0.24702951260E+02  0.31886050650E+02  0.00000000000E+00 0. -1.
         11    1    3    3    0    0 -0.31288026608E+00  0.38056505415E+01  0.24009909640E+01  0.45106128159E+01  0.51100000000E-03 0. -1.
        -11    1    3    3    0    0  0.37952399704E+00  0.81112292903E+01 -0.28049903730E+02  0.29201595480E+02  0.51100000000E-03 0.  1.
        -12    1    3    3    0    0 -0.19761200179E+02 -0.16230679947E+02  0.94596150569E+00  0.25589741054E+02  0.00000000000E+00 0.  1.
</event>
<event>
 7    1  0.4237994E-013  0.5930196E+02  0.7816164E-02  0.1266605E+00
        -11   -1    0    0    0    0  0.00000000000E+00  0.00000000000E+00  0.45593999997E+02  0.45594000000E+02  0.51100000000E-03 0.  1.
         11   -1    0    0    0    0 -0.00000000000E+00 -0.00000000000E+00 -0.45593999997E+02  0.45594000000E+02  0.51100000000E-03 0. -1.
    9900012    2    1    2    0    0 -0.68608085772E+01 -0.30217306023E+02  0.75208701819E+01  0.59301956566E+02  0.50000022866E+02 0.  0.
         12    1    1    2    0    0  0.68608085772E+01  0.30217306023E+02 -0.75208701819E+01  0.31886043434E+02  0.00000000000E+00 0. -1.
         11    1    3    3    0    0 -0.18610204066E+01  0.21132562701E+01  0.13238821476E+02  0.13534978513E+02  0.51100000000E-03 0. -1.
        -11    1    3    3    0    0  0.26663048067E+01 -0.36367290896E+02 -0.25940903133E+01  0.36557055861E+02  0.51100000000E-03 0.  1.
        -12    1    3    3    0    0 -0.76660929772E+01  0.40367286028E+01 -0.31238609807E+01  0.92099221915E+01  0.00000000000E+00 0.  1.
</event>
<event>
 7    1  0.4237994E-013  0.5930195E+02  0.7816164E-02  0.1266605E+00
        -11   -1    0    0    0    0  0.00000000000E+00  0.00000000000E+00  0.45593999997E+02  0.45594000000E+02  0.51100000000E-03 0.  1.
         11   -1    0    0    0    0 -0.00000000000E+00 -0.00000000000E+00 -0.45593999997E+02  0.45594000000E+02  0.51100000000E-03 0. -1.
    9900012    2    1    2    0    0 -0.15101642244E+02  0.30232887819E+01  0.27919887573E+02  0.59301952963E+02  0.50000016296E+02 0.  0.
         12    1    1    2    0    0  0.15101642244E+02 -0.30232887819E+01 -0.27919887573E+02  0.31886047037E+02  0.00000000000E+00 0. -1.
         11    1    3    3    0    0 -0.12338904110E+02 -0.17693208659E+02  0.21916855607E+02  0.30751369843E+02  0.51100000000E-03 0.  1.
        -11    1    3    3    0    0 -0.36068232924E+01  0.11097257519E+02 -0.60199140232E+01  0.13130029087E+02  0.51100000000E-03 0. -1.
        -12    1    3    3    0    0  0.84408515856E+00  0.96192399219E+01  0.12022945990E+02  0.15420554033E+02  0.00000000000E+00 0.  1.
</event>
<event>
 7    1  0.4237994E-013  0.5930195E+02  0.7816164E-02  0.1266605E+00
        -11   -1    0    0    0    0  0.00000000000E+00  0.00000000000E+00  0.45593999997E+02  0.45594000000E+02  0.51100000000E-03 0.  1.
         11   -1    0    0    0    0 -0.00000000000E+00 -0.00000000000E+00 -0.45593999997E+02  0.45594000000E+02  0.51100000000E-03 0. -1.
    9900012    2    1    2    0    0 -0.74319560773E+01 -0.43145221505E+01  0.30706211552E+02  0.59301945048E+02  0.50000001861E+02 0.  0.
         12    1    1    2    0    0  0.74319560773E+01  0.43145221505E+01 -0.30706211552E+02  0.31886054952E+02  0.00000000000E+00 0. -1.
         11    1    3    3    0    0 -0.11751562878E+02 -0.38125772214E+00 -0.62347647042E+01  0.13308526541E+02  0.51100000000E-03 0. -1.
        -11    1    3    3    0    0 -0.76319879895E+01 -0.32550999320E+01  0.31974057541E+02  0.33033063317E+02  0.51100000000E-03 0.  1.
         12    1    3    3    0    0  0.11951594790E+02 -0.67816449636E+00  0.49669187155E+01  0.12960355189E+02  0.00000000000E+00 0. -1.
</event>
<event>
 7    1  0.4237994E-013  0.5930196E+02  0.7816164E-02  0.1266605E+00
        -11   -1    0    0    0    0  0.00000000000E+00  0.00000000000E+00  0.45593999997E+02  0.45594000000E+02  0.51100000000E-03 0.  1.
         11   -1    0    0    0    0 -0.00000000000E+00 -0.00000000000E+00 -0.45593999997E+02  0.45594000000E+02  0.51100000000E-03 0. -1.
    9900012    2    1    2    0    0 -0.14089963229E+02  0.26992097607E+02 -0.94667237421E+01  0.59301964571E+02  0.50000037465E+02 0.  0.
         12    1    1    2    0    0  0.14089963229E+02 -0.26992097607E+02  0.94667237421E+01  0.31886035429E+02  0.00000000000E+00 0. -1.
         11    1    3    3    0    0  0.17169577428E+01  0.14674876712E+01 -0.13108301506E+02  0.13301467309E+02  0.51100000000E-03 0. -1.
        -11    1    3    3    0    0 -0.83378459283E+01 -0.63139270435E+01  0.77823422260E+01  0.13036494936E+02  0.51100000000E-03 0.  1.
        -12    1    3    3    0    0 -0.74690750433E+01  0.31838536979E+02 -0.41407644625E+01  0.32964002325E+02  0.00000000000E+00 0.  1.
</event>
<event>
 7    1  0.4237994E-013  0.5930193E+02  0.7816164E-02  0.1266605E+00
        -11   -1    0    0    0    0  0.00000000000E+00  0.00000000000E+00  0.45593999997E+02  0.45594000000E+02  0.51100000000E-03 0. -1.
         11   -1    0    0    0    0 -0.00000000000E+00 -0.00000000000E+00 -0.45593999997E+02  0.45594000000E+02  0.51100000000E-03 0.  1.
    9900012    2    1    2    0    0  0.18792981876E+01  0.31138844087E+02 -0.66001379510E+01  0.59301934177E+02  0.49999982034E+02 0.  0.
         12    1    1    2    0    0 -0.18792981876E+01 -0.31138844087E+02  0.66001379510E+01  0.31886065823E+02  0.00000000000E+00 0. -1.
         11    1    3    3    0    0 -0.20873983766E+01 -0.20452451185E+01 -0.61602976271E+01  0.68183228651E+01  0.51100000000E-03 0. -1.
        -11    1    3    3    0    0  0.11915532063E+02  0.36533255857E+02 -0.98993396220E+01  0.39681930562E+02  0.51100000000E-03 0.  1.
        -12    1    3    3    0    0 -0.79488354986E+01 -0.33491666523E+01  0.94594992981E+01  0.12801680750E+02  0.00000000000E+00 0.  1.
</event>
<event>
 7    1  0.4237994E-013  0.5930190E+02  0.7816164E-02  0.1266605E+00
        -11   -1    0    0    0    0  0.00000000000E+00  0.00000000000E+00  0.45593999997E+02  0.45594000000E+02  0.51100000000E-03 0.  1.
         11   -1    0    0    0    0 -0.00000000000E+00 -0.00000000000E+00 -0.45593999997E+02  0.45594000000E+02  0.51100000000E-03 0. -1.
    9900012    2    1    2    0    0 -0.47858180303E+01 -0.29759922221E+02  0.10400290016E+02  0.59301904955E+02  0.49999928740E+02 0.  0.
         12    1    1    2    0    0  0.47858180303E+01  0.29759922221E+02 -0.10400290016E+02  0.31886095045E+02  0.00000000000E+00 0. -1.
         11    1    3    3    0    0  0.52809221856E+01 -0.46066836482E+01 -0.12040237577E+02  0.13931151946E+02  0.51100000000E-03 0. -1.
        -11    1    3    3    0    0 -0.18924940889E+02 -0.23898716400E+02  0.17515600329E+02  0.35158189492E+02  0.51100000000E-03 0.  1.
         12    1    3    3    0    0  0.88582006727E+01 -0.12545221730E+01  0.49249272640E+01  0.10212563517E+02  0.00000000000E+00 0. -1.
</event>
<event>
 7    1  0.4237994E-013  0.5930193E+02  0.7816164E-02  0.1266605E+00
        -11   -1    0    0    0    0  0.00000000000E+00  0.00000000000E+00  0.45593999997E+02  0.45594000000E+02  0.51100000000E-03 0.  1.
         11   -1    0    0    0    0 -0.00000000000E+00 -0.00000000000E+00 -0.45593999997E+02  0.45594000000E+02  0.51100000000E-03 0. -1.
    9900012    2    1    2    0    0 -0.30608086183E+02  0.74875870214E+01  0.48787803667E+01  0.59301930987E+02  0.49999976218E+02 0.  0.
         12    1    1    2    0    0  0.30608086183E+02 -0.74875870214E+01 -0.48787803667E+01  0.31886069013E+02  0.00000000000E+00 0. -1.
         11    1    3    3    0    0 -0.12685528805E+02 -0.85358778878E+01 -0.81284610217E+01  0.17316342894E+02  0.51100000000E-03 0. -1.
        -11    1    3    3    0    0 -0.56537044162E+01  0.64448231391E+01  0.22276620324E+02  0.23869393211E+02  0.51100000000E-03 0.  1.
        -12    1    3    3    0    0 -0.12268852962E+02  0.95786417702E+01 -0.92693789360E+01  0.18116194883E+02  0.00000000000E+00 0.  1.
</event>
<event>
 7    1  0.4237994E-013  0.5930194E+02  0.7816164E-02  0.1266605E+00
        -11   -1    0    0    0    0  0.00000000000E+00  0.00000000000E+00  0.45593999997E+02  0.45594000000E+02  0.51100000000E-03 0.  1.
         11   -1    0    0    0    0 -0.00000000000E+00 -0.00000000000E+00 -0.45593999997E+02  0.45594000000E+02  0.51100000000E-03 0. -1.
    9900012    2    1    2    0    0 -0.32142674624E+01 -0.31651686764E+02  0.21353925955E+01  0.59301942045E+02  0.49999996385E+02 0.  0.
         12    1    1    2    0    0  0.32142674624E+01  0.31651686764E+02 -0.21353925955E+01  0.31886057955E+02  0.00000000000E+00 0. -1.
         11    1    3    3    0    0 -0.32098844812E+01  0.18333931908E+01 -0.28358090807E+01  0.46590237580E+01  0.51100000000E-03 0. -1.
        -11    1    3    3    0    0 -0.56031127513E+01 -0.20754276787E+02  0.23256157276E+02  0.31669918361E+02  0.51100000000E-03 0.  1.
        -12    1    3    3    0    0  0.55987297701E+01 -0.12730803168E+02 -0.18284955600E+02  0.22972999927E+02  0.00000000000E+00 0.  1.
</event>
<event>
 7    1  0.4237994E-013  0.5930199E+02  0.7816164E-02  0.1266605E+00
        -11   -1    0    0    0    0  0.00000000000E+00  0.00000000000E+00  0.45593999997E+02  0.45594000000E+02  0.51100000000E-03 0. -1.
         11   -1    0    0    0    0 -0.00000000000E+00 -0.00000000000E+00 -0.45593999997E+02  0.45594000000E+02  0.51100000000E-03 0.  1.
    9900012    2    1    2    0    0 -0.14901550983E+02 -0.23473029761E+02  0.15610194328E+02  0.59301991865E+02  0.50000087243E+02 0.  0.
         12    1    1    2    0    0  0.14901550983E+02  0.23473029761E+02 -0.15610194328E+02  0.31886008135E+02  0.00000000000E+00 0. -1.
         11    1    3    3    0    0 -0.29122106825E+02 -0.94680263412E+01  0.15454233530E+02  0.34301223928E+02  0.51100000000E-03 0. -1.
        -11    1    3    3    0    0  0.16517413133E+02 -0.11004159449E+02 -0.30056940167E+01  0.20073630926E+02  0.51100000000E-03 0.  1.
         12    1    3    3    0    0 -0.22968572906E+01 -0.30008439717E+01  0.31616548145E+01  0.49271370107E+01  0.00000000000E+00 0. -1.
</event>
<event>
 7    1  0.4237994E-013  0.5930195E+02  0.7816164E-02  0.1266605E+00
        -11   -1    0    0    0    0  0.00000000000E+00  0.00000000000E+00  0.45593999997E+02  0.45594000000E+02  0.51100000000E-03 0. -1.
         11   -1    0    0    0    0 -0.00000000000E+00 -0.00000000000E+00 -0.45593999997E+02  0.45594000000E+02  0.51100000000E-03 0.  1.
    9900012    2    1    2    0    0 -0.11308208629E+02 -0.12815772188E+02 -0.26918402736E+02  0.59301952816E+02  0.50000016027E+02 0.  0.
         12    1    1    2    0    0  0.11308208629E+02  0.12815772188E+02  0.26918402736E+02  0.31886047184E+02  0.00000000000E+00 0. -1.
         11    1    3    3    0    0 -0.13278749521E+02 -0.15587529150E+02  0.82472238776E+01  0.22075166043E+02  0.51100000000E-03 0. -1.
        -11    1    3    3    0    0  0.40616397627E+01  0.66214410843E+01 -0.20569576990E+02  0.21987448634E+02  0.51100000000E-03 0.  1.
         12    1    3    3    0    0 -0.20910988701E+01 -0.38496841216E+01 -0.14596049623E+02  0.15239338140E+02  0.00000000000E+00 0. -1.
</event>
<event>
 7    1  0.4237994E-013  0.5930194E+02  0.7816164E-02  0.1266605E+00
        -11   -1    0    0    0    0  0.00000000000E+00  0.00000000000E+00  0.45593999997E+02  0.45594000000E+02  0.51100000000E-03 0.  1.
         11   -1    0    0    0    0 -0.00000000000E+00 -0.00000000000E+00 -0.45593999997E+02  0.45594000000E+02  0.51100000000E-03 0. -1.
    9900012    2    1    2    0    0 -0.13084853935E+02  0.11713870452E+01  0.29054007932E+02  0.59301938359E+02  0.49999989661E+02 0.  0.
         12    1    1    2    0    0  0.13084853935E+02 -0.11713870452E+01 -0.29054007932E+02  0.31886061641E+02  0.00000000000E+00 0. -1.
         11    1    3    3    0    0 -0.14429408026E+02  0.10218988952E+02  0.23678245209E+02  0.29551562524E+02  0.51100000000E-03 0.  1.
        -11    1    3    3    0    0  0.12226375683E+01 -0.24700817376E+00 -0.11047327884E+02  0.11117522624E+02  0.51100000000E-03 0. -1.
         12    1    3    3    0    0  0.12191652269E+00 -0.88005937334E+01  0.16423090607E+02  0.18632853211E+02  0.00000000000E+00 0. -1.
</event>
<event>
 7    1  0.4237994E-013  0.5930193E+02  0.7816164E-02  0.1266605E+00
        -11   -1    0    0    0    0  0.00000000000E+00  0.00000000000E+00  0.45593999997E+02  0.45594000000E+02  0.51100000000E-03 0.  1.
         11   -1    0    0    0    0 -0.00000000000E+00 -0.00000000000E+00 -0.45593999997E+02  0.45594000000E+02  0.51100000000E-03 0. -1.
    9900012    2    1    2    0    0  0.24683439659E+02 -0.89787094848E+01  0.18078505370E+02  0.59301925080E+02  0.49999965444E+02 0.  0.
         12    1    1    2    0    0 -0.24683439659E+02  0.89787094848E+01 -0.18078505370E+02  0.31886074920E+02  0.00000000000E+00 0. -1.
         11    1    3    3    0    0 -0.76209030938E+01  0.11094458936E+02  0.98605144715E+01  0.16685170930E+02  0.51100000000E-03 0.  1.
        -11    1    3    3    0    0  0.24683416324E+02 -0.19224090808E+02 -0.12303762105E+00  0.31286608115E+02  0.51100000000E-03 0. -1.
        -12    1    3    3    0    0  0.76209264289E+01 -0.84907761278E+00  0.83410285194E+01  0.11330146036E+02  0.00000000000E+00 0.  1.
</event>
<event>
 7    1  0.4237994E-013  0.5930195E+02  0.7816164E-02  0.1266605E+00
        -11   -1    0    0    0    0  0.00000000000E+00  0.00000000000E+00  0.45593999997E+02  0.45594000000E+02  0.51100000000E-03 0. -1.
         11   -1    0    0    0    0 -0.00000000000E+00 -0.00000000000E+00 -0.45593999997E+02  0.45594000000E+02  0.51100000000E-03 0.  1.
    9900012    2    1    2    0    0 -0.34446232034E+01  0.19069166921E+02 -0.25322359513E+02  0.59301945879E+02  0.50000003377E+02 0.  0.
         12    1    1    2    0    0  0.34446232034E+01 -0.19069166921E+02  0.25322359513E+02  0.31886054121E+02  0.00000000000E+00 0. -1.
         11    1    3    3    0    0  0.28764228863E+01 -0.30755834178E+01  0.92538430584E+01  0.10166938260E+02  0.51100000000E-03 0. -1.
        -11    1    3    3    0    0  0.31954256212E+01  0.19833987611E+02 -0.33789239769E+02  0.39310437977E+02  0.51100000000E-03 0.  1.
         12    1    3    3    0    0 -0.95164717109E+01  0.23107627277E+01 -0.78696280211E+00  0.98245696425E+01  0.00000000000E+00 0. -1.
</event>
<event>
 7    1  0.4237994E-013  0.5930195E+02  0.7816164E-02  0.1266605E+00
        -11   -1    0    0    0    0  0.00000000000E+00  0.00000000000E+00  0.45593999997E+02  0.45594000000E+02  0.51100000000E-03 0. -1.
         11   -1    0    0    0    0 -0.00000000000E+00 -0.00000000000E+00 -0.45593999997E+02  0.45594000000E+02  0.51100000000E-03 0.  1.
    9900012    2    1    2    0    0  0.86574017879E+01  0.10703380952E+02 -0.28761205560E+02  0.59301954231E+02  0.50000018609E+02 0.  0.
         12    1    1    2    0    0 -0.86574017879E+01 -0.10703380952E+02  0.28761205560E+02  0.31886045769E+02  0.00000000000E+00 0. -1.
         11    1    3    3    0    0 -0.14192230384E+01  0.22720363202E+02 -0.16453742547E+02  0.28088338187E+02  0.51100000000E-03 0. -1.
        -11    1    3    3    0    0  0.17858188368E+02 -0.10096889465E+02 -0.10278691718E+02  0.22945883560E+02  0.51100000000E-03 0.  1.
        -12    1    3    3    0    0 -0.77815635416E+01 -0.19200927848E+01 -0.20287712947E+01  0.82677324836E+01  0.00000000000E+00 0.  1.
</event>
<event>
 7    1  0.4237994E-013  0.5930196E+02  0.7816164E-02  0.1266605E+00
        -11   -1    0    0    0    0  0.00000000000E+00  0.00000000000E+00  0.45593999997E+02  0.45594000000E+02  0.51100000000E-03 0.  1.
         11   -1    0    0    0    0 -0.00000000000E+00 -0.00000000000E+00 -0.45593999997E+02  0.45594000000E+02  0.51100000000E-03 0. -1.
    9900012    2    1    2    0    0  0.36375425475E+01  0.27034179875E+02  0.16511851335E+02  0.59301955533E+02  0.50000020982E+02 0.  0.
         12    1    1    2    0    0 -0.36375425475E+01 -0.27034179875E+02 -0.16511851335E+02  0.31886044467E+02  0.00000000000E+00 0. -1.
         11    1    3    3    0    0  0.95244764756E+01  0.15798564395E+00 -0.86732934323E+01  0.12882803686E+02  0.51100000000E-03 0. -1.
        -11    1    3    3    0    0 -0.75804096843E+00  0.28841590446E+02  0.10436814313E+02  0.30681249303E+02  0.51100000000E-03 0.  1.
        -12    1    3    3    0    0 -0.51288929596E+01 -0.19653962148E+01  0.14748330454E+02  0.15737902543E+02  0.00000000000E+00 0.  1.
</event>
<event>
 7    1  0.4237994E-013  0.5930192E+02  0.7816164E-02  0.1266605E+00
        -11   -1    0    0    0    0  0.00000000000E+00  0.00000000000E+00  0.45593999997E+02  0.45594000000E+02  0.51100000000E-03 0.  1.
         11   -1    0    0    0    0 -0.00000000000E+00 -0.00000000000E+00 -0.45593999997E+02  0.45594000000E+02  0.51100000000E-03 0. -1.
    9900012    2    1    2    0    0 -0.10652207366E+02  0.11668743401E+02  0.27696448516E+02  0.59301915971E+02  0.49999948831E+02 0.  0.
         12    1    1    2    0    0  0.10652207366E+02 -0.11668743401E+02 -0.27696448516E+02  0.31886084029E+02  0.00000000000E+00 0. -1.
         11    1    3    3    0    0  0.12886881459E+02 -0.83282138148E+01  0.31135728420E+01  0.15656474546E+02  0.51100000000E-03 0. -1.
        -11    1    3    3    0    0 -0.79833788011E+01  0.17658574672E+02  0.18462989209E+02  0.26766426121E+02  0.51100000000E-03 0.  1.
        -12    1    3    3    0    0 -0.15555710024E+02  0.23383825436E+01  0.61198864652E+01  0.16879015304E+02  0.00000000000E+00 0.  1.
</event>
<event>
 7    1  0.4237994E-013  0.5930170E+02  0.7816164E-02  0.1266606E+00
        -11   -1    0    0    0    0  0.00000000000E+00  0.00000000000E+00  0.45593999997E+02  0.45594000000E+02  0.51100000000E-03 0.  1.
         11   -1    0    0    0    0 -0.00000000000E+00 -0.00000000000E+00 -0.45593999997E+02  0.45594000000E+02  0.51100000000E-03 0. -1.
    9900012    2    1    2    0    0  0.83801187157E+01  0.30592731457E+02  0.32549101095E+01  0.59301701257E+02  0.49999557243E+02 0.  0.
         12    1    1    2    0    0 -0.83801187157E+01 -0.30592731457E+02 -0.32549101095E+01  0.31886298743E+02  0.00000000000E+00 0. -1.
         11    1    3    3    0    0  0.64662230491E+00  0.62070130149E+01 -0.17370625177E+02  0.18457620385E+02  0.51100000000E-03 0. -1.
        -11    1    3    3    0    0 -0.30941721674E+01  0.69773685360E+01  0.18766159515E+02  0.20258981127E+02  0.51100000000E-03 0.  1.
        -12    1    3    3    0    0  0.10827668578E+02  0.17408349906E+02  0.18593757714E+01  0.20585099746E+02  0.00000000000E+00 0.  1.
</event>
<event>
 7    1  0.4237994E-013  0.5930192E+02  0.7816164E-02  0.1266605E+00
        -11   -1    0    0    0    0  0.00000000000E+00  0.00000000000E+00  0.45593999997E+02  0.45594000000E+02  0.51100000000E-03 0.  1.
         11   -1    0    0    0    0 -0.00000000000E+00 -0.00000000000E+00 -0.45593999997E+02  0.45594000000E+02  0.51100000000E-03 0. -1.
    9900012    2    1    2    0    0  0.30332163657E+01  0.39607499228E+01  0.31493398301E+02  0.59301920310E+02  0.49999956745E+02 0.  0.
         12    1    1    2    0    0 -0.30332163657E+01 -0.39607499228E+01 -0.31493398301E+02  0.31886079690E+02  0.00000000000E+00 0. -1.
         11    1    3    3    0    0  0.12767342924E+02 -0.63580656564E+01 -0.13020885685E+01  0.14322202314E+02  0.51100000000E-03 0. -1.
        -11    1    3    3    0    0 -0.61751558611E-01  0.18222335001E+02  0.20937019619E+02  0.27756370385E+02  0.51100000000E-03 0.  1.
        -12    1    3    3    0    0 -0.96723749997E+01 -0.79035194222E+01  0.11858467250E+02  0.17223347611E+02  0.00000000000E+00 0.  1.
</event>
<event>
 7    1  0.4237994E-013  0.5930195E+02  0.7816164E-02  0.1266605E+00
        -11   -1    0    0    0    0  0.00000000000E+00  0.00000000000E+00  0.45593999997E+02  0.45594000000E+02  0.51100000000E-03 0.  1.
         11   -1    0    0    0    0 -0.00000000000E+00 -0.00000000000E+00 -0.45593999997E+02  0.45594000000E+02  0.51100000000E-03 0. -1.
    9900012    2    1    2    0    0 -0.17347188879E+02 -0.73079826779E+01  0.25736915455E+02  0.59301946780E+02  0.50000005019E+02 0.  0.
         12    1    1    2    0    0  0.17347188879E+02  0.73079826779E+01 -0.25736915455E+02  0.31886053220E+02  0.00000000000E+00 0. -1.
         11    1    3    3    0    0 -0.11347914598E+02 -0.22656705343E+02 -0.30019353925E+01  0.25516917507E+02  0.51100000000E-03 0. -1.
        -11    1    3    3    0    0  0.24258586309E+00  0.84532952477E+01  0.14078039909E+02  0.16422796851E+02  0.51100000000E-03 0.  1.
         12    1    3    3    0    0 -0.62418601439E+01  0.68954274169E+01  0.14660810938E+02  0.17362232422E+02  0.00000000000E+00 0. -1.
</event>
<event>
 7    1  0.4237994E-013  0.5930194E+02  0.7816164E-02  0.1266605E+00
        -11   -1    0    0    0    0  0.00000000000E+00  0.00000000000E+00  0.45593999997E+02  0.45594000000E+02  0.51100000000E-03 0.  1.
         11   -1    0    0    0    0 -0.00000000000E+00 -0.00000000000E+00 -0.45593999997E+02  0.45594000000E+02  0.51100000000E-03 0. -1.
    9900012    2    1    2    0    0 -0.30385972850E+02  0.95794298998E+01  0.12836205917E+01  0.59301944975E+02  0.50000001728E+02 0.  0.
         12    1    1    2    0    0  0.30385972850E+02 -0.95794298998E+01 -0.12836205917E+01  0.31886055025E+02  0.00000000000E+00 0. -1.
         11    1    3    3    0    0 -0.17862518927E+02  0.12692222861E+02 -0.13820770681E+02  0.25907060930E+02  0.51100000000E-03 0. -1.
        -11    1    3    3    0    0 -0.11768701250E+02  0.13273063631E+01  0.22100867329E+02  0.25074138236E+02  0.51100000000E-03 0.  1.
        -12    1    3    3    0    0 -0.75475267292E+00 -0.44400993246E+01 -0.69964760569E+01  0.83207458094E+01  0.00000000000E+00 0.  1.
</event>
<event>
 7    1  0.4237994E-013  0.5930195E+02  0.7816164E-02  0.1266605E+00
        -11   -1    0    0    0    0  0.00000000000E+00  0.00000000000E+00  0.45593999997E+02  0.45594000000E+02  0.51100000000E-03 0. -1.
         11   -1    0    0    0    0 -0.00000000000E+00 -0.00000000000E+00 -0.45593999997E+02  0.45594000000E+02  0.51100000000E-03 0.  1.
    9900012    2    1    2    0    0  0.90261457319E+01  0.21507898686E+02 -0.21740723860E+02  0.59301951536E+02  0.50000013693E+02 0.  0.
         12    1    1    2    0    0 -0.90261457319E+01 -0.21507898686E+02  0.21740723860E+02  0.31886048464E+02  0.00000000000E+00 0. -1.
         11    1    3    3    0    0  0.92531379572E+01  0.15984806141E+02  0.58441163179E+01  0.19372358793E+02  0.51100000000E-03 0. -1.
        -11    1    3    3    0    0  0.20186591257E+01 -0.89735016542E+01 -0.22659867588E+02  0.24455435306E+02  0.51100000000E-03 0.  1.
        -12    1    3    3    0    0 -0.22456513510E+01  0.14496594199E+02 -0.49249725899E+01  0.15474157437E+02  0.00000000000E+00 0.  1.
</event>
<event>
 7    1  0.4237994E-013  0.5930193E+02  0.7816164E-02  0.1266605E+00
        -11   -1    0    0    0    0  0.00000000000E+00  0.00000000000E+00  0.45593999997E+02  0.45594000000E+02  0.51100000000E-03 0. -1.
         11   -1    0    0    0    0 -0.00000000000E+00 -0.00000000000E+00 -0.45593999997E+02  0.45594000000E+02  0.51100000000E-03 0.  1.
    9900012    2    1    2    0    0  0.16398482237E+02  0.16823077613E+01 -0.27294342447E+02  0.59301929237E+02  0.49999973025E+02 0.  0.
         12    1    1    2    0    0 -0.16398482237E+02 -0.16823077613E+01  0.27294342447E+02  0.31886070763E+02  0.00000000000E+00 0. -1.
         11    1    3    3    0    0  0.12410946955E+02 -0.17451401126E+02 -0.21639842310E+02  0.30444470451E+02  0.51100000000E-03 0. -1.
        -11    1    3    3    0    0  0.11031562890E+02  0.54563564634E+01  0.42647564272E+00  0.12314588397E+02  0.51100000000E-03 0.  1.
         12    1    3    3    0    0 -0.70440276078E+01  0.13677352424E+02 -0.60809757803E+01  0.16542870389E+02  0.00000000000E+00 0. -1.
</event>
<event>
 7    1  0.4237994E-013  0.5930196E+02  0.7816164E-02  0.1266605E+00
        -11   -1    0    0    0    0  0.00000000000E+00  0.00000000000E+00  0.45593999997E+02  0.45594000000E+02  0.51100000000E-03 0. -1.
         11   -1    0    0    0    0 -0.00000000000E+00 -0.00000000000E+00 -0.45593999997E+02  0.45594000000E+02  0.51100000000E-03 0.  1.
    9900012    2    1    2    0    0  0.21788791217E+02 -0.74631502897E+01 -0.22051513075E+02  0.59301964438E+02  0.50000037224E+02 0.  0.
         12    1    1    2    0    0 -0.21788791217E+02  0.74631502897E+01  0.22051513075E+02  0.31886035562E+02  0.00000000000E+00 0. -1.
         11    1    3    3    0    0  0.18048292877E+02 -0.87076278175E+01  0.37819648284E+00  0.20042621855E+02  0.51100000000E-03 0. -1.
        -11    1    3    3    0    0 -0.43050580680E+01 -0.13518655244E+02 -0.15669247203E+02  0.21137948641E+02  0.51100000000E-03 0.  1.
        -12    1    3    3    0    0  0.80455564076E+01  0.14763132772E+02 -0.67604623547E+01  0.18121393942E+02  0.00000000000E+00 0.  1.
</event>
<event>
 7    1  0.4237994E-013  0.5930191E+02  0.7816164E-02  0.1266605E+00
        -11   -1    0    0    0    0  0.00000000000E+00  0.00000000000E+00  0.45593999997E+02  0.45594000000E+02  0.51100000000E-03 0. -1.
         11   -1    0    0    0    0 -0.00000000000E+00 -0.00000000000E+00 -0.45593999997E+02  0.45594000000E+02  0.51100000000E-03 0.  1.
    9900012    2    1    2    0    0  0.28609091848E+02  0.11325881885E+02 -0.83646314900E+01  0.59301909039E+02  0.49999936189E+02 0.  0.
         12    1    1    2    0    0 -0.28609091848E+02 -0.11325881885E+02  0.83646314900E+01  0.31886090961E+02  0.00000000000E+00 0. -1.
         11    1    3    3    0    0  0.30038166684E+02  0.12846164148E+02 -0.79520800118E+01  0.33623666781E+02  0.51100000000E-03 0. -1.
        -11    1    3    3    0    0 -0.51953869354E+01 -0.77260028989E+01 -0.99930863435E+01  0.13658145596E+02  0.51100000000E-03 0.  1.
        -12    1    3    3    0    0  0.37663120995E+01  0.62057206364E+01  0.95805348652E+01  0.12020096661E+02  0.00000000000E+00 0.  1.
</event>
<event>
 7    1  0.4237994E-013  0.5930193E+02  0.7816164E-02  0.1266605E+00
        -11   -1    0    0    0    0  0.00000000000E+00  0.00000000000E+00  0.45593999997E+02  0.45594000000E+02  0.51100000000E-03 0.  1.
         11   -1    0    0    0    0 -0.00000000000E+00 -0.00000000000E+00 -0.45593999997E+02  0.45594000000E+02  0.51100000000E-03 0. -1.
    9900012    2    1    2    0    0  0.27983861880E+02  0.88071131973E+01  0.12492394968E+02  0.59301926227E+02  0.49999967537E+02 0.  0.
         12    1    1    2    0    0 -0.27983861880E+02 -0.88071131973E+01 -0.12492394968E+02  0.31886073773E+02  0.00000000000E+00 0. -1.
         11    1    3    3    0    0  0.27747109361E+02 -0.78959639325E+01  0.12073732887E+02  0.31273364871E+02  0.51100000000E-03 0. -1.
        -11    1    3    3    0    0  0.40723820824E+01  0.17691275770E+02 -0.71299447630E+01  0.19503887991E+02  0.51100000000E-03 0.  1.
         12    1    3    3    0    0 -0.38356295629E+01 -0.98819863999E+00  0.75486068438E+01  0.85246733649E+01  0.00000000000E+00 0. -1.
</event>
<event>
 7    1  0.4237994E-013  0.5930193E+02  0.7816164E-02  0.1266605E+00
        -11   -1    0    0    0    0  0.00000000000E+00  0.00000000000E+00  0.45593999997E+02  0.45594000000E+02  0.51100000000E-03 0.  1.
         11   -1    0    0    0    0 -0.00000000000E+00 -0.00000000000E+00 -0.45593999997E+02  0.45594000000E+02  0.51100000000E-03 0. -1.
    9900012    2    1    2    0    0 -0.78168890954E+01  0.22069325816E+02  0.21646307062E+02  0.59301929271E+02  0.49999973087E+02 0.  0.
         12    1    1    2    0    0  0.78168890954E+01 -0.22069325816E+02 -0.21646307062E+02  0.31886070729E+02  0.00000000000E+00 0. -1.
         11    1    3    3    0    0 -0.69222520760E+01  0.49077146120E+01  0.91913245664E+01  0.12509343870E+02  0.51100000000E-03 0.  1.
        -11    1    3    3    0    0  0.18916230283E+02  0.49812949283E+01  0.13075012048E+02  0.23528557278E+02  0.51100000000E-03 0. -1.
        -12    1    3    3    0    0 -0.19810867302E+02  0.12180316276E+02 -0.62002955244E+00  0.23264028123E+02  0.00000000000E+00 0.  1.
</event>
<event>
 7    1  0.4237994E-013  0.5930195E+02  0.7816164E-02  0.1266605E+00
        -11   -1    0    0    0    0  0.00000000000E+00  0.00000000000E+00  0.45593999997E+02  0.45594000000E+02  0.51100000000E-03 0.  1.
         11   -1    0    0    0    0 -0.00000000000E+00 -0.00000000000E+00 -0.45593999997E+02  0.45594000000E+02  0.51100000000E-03 0. -1.
    9900012    2    1    2    0    0 -0.22681645839E+01  0.22483103658E+02  0.22496354033E+02  0.59301945596E+02  0.50000002861E+02 0.  0.
         12    1    1    2    0    0  0.22681645839E+01 -0.22483103658E+02 -0.22496354033E+02  0.31886054404E+02  0.00000000000E+00 0. -1.
         11    1    3    3    0    0  0.15459479040E+02  0.21782239640E+02  0.14178723382E+01  0.26748304959E+02  0.51100000000E-03 0. -1.
        -11    1    3    3    0    0 -0.12306643028E+02  0.87516129189E+01  0.12680859868E+02  0.19719239300E+02  0.51100000000E-03 0.  1.
         12    1    3    3    0    0 -0.54210005958E+01 -0.80507489018E+01  0.83976218268E+01  0.12834401337E+02  0.00000000000E+00 0. -1.
</event>
<event>
 7    1  0.4237994E-013  0.5930195E+02  0.7816164E-02  0.1266605E+00
        -11   -1    0    0    0    0  0.00000000000E+00  0.00000000000E+00  0.45593999997E+02  0.45594000000E+02  0.51100000000E-03 0.  1.
         11   -1    0    0    0    0 -0.00000000000E+00 -0.00000000000E+00 -0.45593999997E+02  0.45594000000E+02  0.51100000000E-03 0. -1.
    9900012    2    1    2    0    0 -0.66934804985E+01  0.26538787460E+02  0.16358802976E+02  0.59301947314E+02  0.50000005994E+02 0.  0.
         12    1    1    2    0    0  0.66934804985E+01 -0.26538787460E+02 -0.16358802976E+02  0.31886052686E+02  0.00000000000E+00 0. -1.
         11    1    3    3    0    0 -0.83552554452E+01 -0.10089934632E+02  0.14598275796E+02  0.19614452093E+02  0.51100000000E-03 0. -1.
        -11    1    3    3    0    0 -0.23332900770E+01  0.21997435611E+02  0.76659055444E+01  0.23411482741E+02  0.51100000000E-03 0.  1.
         12    1    3    3    0    0  0.39950650236E+01  0.14631286481E+02 -0.59053783640E+01  0.16276012480E+02  0.00000000000E+00 0. -1.
</event>
<event>
 7    1  0.4237994E-013  0.5930194E+02  0.7816164E-02  0.1266605E+00
        -11   -1    0    0    0    0  0.00000000000E+00  0.00000000000E+00  0.45593999997E+02  0.45594000000E+02  0.51100000000E-03 0.  1.
         11   -1    0    0    0    0 -0.00000000000E+00 -0.00000000000E+00 -0.45593999997E+02  0.45594000000E+02  0.51100000000E-03 0. -1.
    9900012    2    1    2    0    0  0.17951606615E+02  0.22695711722E+02  0.13392736279E+02  0.59301938850E+02  0.49999990557E+02 0.  0.
         12    1    1    2    0    0 -0.17951606615E+02 -0.22695711722E+02 -0.13392736279E+02  0.31886061150E+02  0.00000000000E+00 0. -1.
         11    1    3    3    0    0  0.58730609165E+01 -0.12212306015E+01  0.34898120496E+01  0.69399594461E+01  0.51100000000E-03 0. -1.
        -11    1    3    3    0    0 -0.83056514534E+01  0.29157530397E+02  0.70070128938E+01  0.31116613808E+02  0.51100000000E-03 0.  1.
        -12    1    3    3    0    0  0.20384197151E+02 -0.52405880733E+01  0.28959113359E+01  0.21245365596E+02  0.00000000000E+00 0.  1.
</event>
<event>
 7    1  0.4237994E-013  0.5930197E+02  0.7816164E-02  0.1266605E+00
        -11   -1    0    0    0    0  0.00000000000E+00  0.00000000000E+00  0.45593999997E+02  0.45594000000E+02  0.51100000000E-03 0.  1.
         11   -1    0    0    0    0 -0.00000000000E+00 -0.00000000000E+00 -0.45593999997E+02  0.45594000000E+02  0.51100000000E-03 0. -1.
    9900012    2    1    2    0    0  0.31645030355E+02 -0.38515459015E+01 -0.69015769359E+00  0.59301973756E+02  0.50000054216E+02 0.  0.
         12    1    1    2    0    0 -0.31645030355E+02  0.38515459015E+01  0.69015769359E+00  0.31886026244E+02  0.00000000000E+00 0. -1.
         11    1    3    3    0    0  0.22493002365E+02  0.95129068432E+01 -0.20088421342E+02  0.31622384861E+02  0.51100000000E-03 0. -1.
        -11    1    3    3    0    0 -0.91897879067E+00 -0.60187661847E+01  0.11236335385E+02  0.12779878776E+02  0.51100000000E-03 0.  1.
         12    1    3    3    0    0  0.10071006781E+02 -0.73456865600E+01  0.81619282640E+01  0.14899710118E+02  0.00000000000E+00 0. -1.
</event>
<event>
 7    1  0.4237994E-013  0.5930194E+02  0.7816164E-02  0.1266605E+00
        -11   -1    0    0    0    0  0.00000000000E+00  0.00000000000E+00  0.45593999997E+02  0.45594000000E+02  0.51100000000E-03 0.  1.
         11   -1    0    0    0    0 -0.00000000000E+00 -0.00000000000E+00 -0.45593999997E+02  0.45594000000E+02  0.51100000000E-03 0. -1.
    9900012    2    1    2    0    0  0.19249382546E+02  0.24194682700E+02  0.77974073602E+01  0.59301937827E+02  0.49999988691E+02 0.  0.
         12    1    1    2    0    0 -0.19249382546E+02 -0.24194682700E+02 -0.77974073602E+01  0.31886062173E+02  0.00000000000E+00 0. -1.
         11    1    3    3    0    0 -0.11058288949E+02  0.10353931427E+02 -0.63019933482E+01  0.16407460830E+02  0.51100000000E-03 0. -1.
        -11    1    3    3    0    0  0.21220328843E+02 -0.28767494069E+01  0.62165720363E+01  0.22298515903E+02  0.51100000000E-03 0.  1.
        -12    1    3    3    0    0  0.90873426530E+01  0.16717500680E+02  0.78828286721E+01  0.20595961093E+02  0.00000000000E+00 0.  1.
</event>
<event>
 7    1  0.4237994E-013  0.5930194E+02  0.7816164E-02  0.1266605E+00
        -11   -1    0    0    0    0  0.00000000000E+00  0.00000000000E+00  0.45593999997E+02  0.45594000000E+02  0.51100000000E-03 0.  1.
         11   -1    0    0    0    0 -0.00000000000E+00 -0.00000000000E+00 -0.45593999997E+02  0.45594000000E+02  0.51100000000E-03 0. -1.
    9900012    2    1    2    0    0  0.14989166590E+02  0.21805681001E+01  0.28058703116E+02  0.59301940148E+02  0.49999992925E+02 0.  0.
         12    1    1    2    0    0 -0.14989166590E+02 -0.21805681001E+01 -0.28058703116E+02  0.31886059852E+02  0.00000000000E+00 0. -1.
         11    1    3    3    0    0  0.12508726287E+02  0.19489142624E+02 -0.54464181075E+00  0.23164445785E+02  0.51100000000E-03 0. -1.
        -11    1    3    3    0    0  0.46863984762E+01 -0.33878675579E+01  0.16754116197E+02  0.17724005954E+02  0.51100000000E-03 0.  1.
         12    1    3    3    0    0 -0.22059581726E+01 -0.13920706966E+02  0.11849228730E+02  0.18413488409E+02  0.00000000000E+00 0. -1.
</event>
<event>
 7    1  0.4237994E-013  0.5930197E+02  0.7816164E-02  0.1266605E+00
        -11   -1    0    0    0    0  0.00000000000E+00  0.00000000000E+00  0.45593999997E+02  0.45594000000E+02  0.51100000000E-03 0. -1.
         11   -1    0    0    0    0 -0.00000000000E+00 -0.00000000000E+00 -0.45593999997E+02  0.45594000000E+02  0.51100000000E-03 0.  1.
    9900012    2    1    2    0    0  0.27012323672E+02  0.54530209392E+01 -0.16041138099E+02  0.59301965768E+02  0.50000039649E+02 0.  0.
         12    1    1    2    0    0 -0.27012323672E+02 -0.54530209392E+01  0.16041138099E+02  0.31886034232E+02  0.00000000000E+00 0. -1.
         11    1    3    3    0    0  0.13193783232E+02 -0.85897551252E+01 -0.34587177737E+01  0.16119011694E+02  0.51100000000E-03 0. -1.
        -11    1    3    3    0    0 -0.11157757247E+02  0.10997843634E+02 -0.80601199707E+01  0.17618559691E+02  0.51100000000E-03 0.  1.
        -12    1    3    3    0    0  0.24976297687E+02  0.30449324300E+01 -0.45223003551E+01  0.25564394383E+02  0.00000000000E+00 0.  1.
</event>
<event>
 7    1  0.4237994E-013  0.5930194E+02  0.7816164E-02  0.1266605E+00
        -11   -1    0    0    0    0  0.00000000000E+00  0.00000000000E+00  0.45593999997E+02  0.45594000000E+02  0.51100000000E-03 0.  1.
         11   -1    0    0    0    0 -0.00000000000E+00 -0.00000000000E+00 -0.45593999997E+02  0.45594000000E+02  0.51100000000E-03 0. -1.
    9900012    2    1    2    0    0 -0.23207824129E+02 -0.17653752388E+02  0.12902046506E+02  0.59301939123E+02  0.49999991055E+02 0.  0.
         12    1    1    2    0    0  0.23207824129E+02  0.17653752388E+02 -0.12902046506E+02  0.31886060877E+02  0.00000000000E+00 0. -1.
         11    1    3    3    0    0 -0.23641417626E+02 -0.46458314115E+01 -0.40184286677E+01  0.24426382174E+02  0.51100000000E-03 0. -1.
        -11    1    3    3    0    0 -0.19821535851E+00 -0.96564769324E+01  0.24624198281E+02  0.26450670640E+02  0.51100000000E-03 0.  1.
        -12    1    3    3    0    0  0.63180885590E+00 -0.33514440445E+01 -0.77037231068E+01  0.84248863090E+01  0.00000000000E+00 0.  1.
</event>
<event>
 7    1  0.4237994E-013  0.5930198E+02  0.7816164E-02  0.1266605E+00
        -11   -1    0    0    0    0  0.00000000000E+00  0.00000000000E+00  0.45593999997E+02  0.45594000000E+02  0.51100000000E-03 0.  1.
         11   -1    0    0    0    0 -0.00000000000E+00 -0.00000000000E+00 -0.45593999997E+02  0.45594000000E+02  0.51100000000E-03 0. -1.
    9900012    2    1    2    0    0  0.94859362876E+01  0.15928533317E+02  0.25942576547E+02  0.59301977376E+02  0.50000060820E+02 0.  0.
         12    1    1    2    0    0 -0.94859362876E+01 -0.15928533317E+02 -0.25942576547E+02  0.31886022624E+02  0.00000000000E+00 0. -1.
         11    1    3    3    0    0 -0.10668450451E+02 -0.59800407837E+01  0.84335594001E+01  0.14856030668E+02  0.51100000000E-03 0. -1.
        -11    1    3    3    0    0  0.18368787663E+02  0.29638603054E+01  0.27817253529E-01  0.18606386059E+02  0.51100000000E-03 0.  1.
        -12    1    3    3    0    0  0.17855990756E+01  0.18944713796E+02  0.17481199893E+02  0.25839560649E+02  0.00000000000E+00 0.  1.
</event>
<event>
 7    1  0.4237994E-013  0.5930190E+02  0.7816164E-02  0.1266605E+00
        -11   -1    0    0    0    0  0.00000000000E+00  0.00000000000E+00  0.45593999997E+02  0.45594000000E+02  0.51100000000E-03 0.  1.
         11   -1    0    0    0    0 -0.00000000000E+00 -0.00000000000E+00 -0.45593999997E+02  0.45594000000E+02  0.51100000000E-03 0. -1.
    9900012    2    1    2    0    0  0.72895320948E+01  0.51663964310E+00  0.31037386081E+02  0.59301897551E+02  0.49999915237E+02 0.  0.
         12    1    1    2    0    0 -0.72895320948E+01 -0.51663964310E+00 -0.31037386081E+02  0.31886102449E+02  0.00000000000E+00 0. -1.
         11    1    3    3    0    0  0.14717328394E+02 -0.90180006446E+01  0.29250419163E+02  0.33963378987E+02  0.51100000000E-03 0. -1.
        -11    1    3    3    0    0  0.54887702319E+01  0.32494818759E+01 -0.62063758853E+01  0.88997097150E+01  0.51100000000E-03 0.  1.
         12    1    3    3    0    0 -0.12916566531E+02  0.62851584118E+01  0.79933428027E+01  0.16438808849E+02  0.00000000000E+00 0. -1.
</event>
<event>
 7    1  0.4237994E-013  0.5930193E+02  0.7816164E-02  0.1266605E+00
        -11   -1    0    0    0    0  0.00000000000E+00  0.00000000000E+00  0.45593999997E+02  0.45594000000E+02  0.51100000000E-03 0.  1.
         11   -1    0    0    0    0 -0.00000000000E+00 -0.00000000000E+00 -0.45593999997E+02  0.45594000000E+02  0.51100000000E-03 0. -1.
    9900012    2    1    2    0    0  0.17519936141E+02 -0.10552457156E+02  0.24462602187E+02  0.59301930626E+02  0.49999975558E+02 0.  0.
         12    1    1    2    0    0 -0.17519936141E+02  0.10552457156E+02 -0.24462602187E+02  0.31886069374E+02  0.00000000000E+00 0. -1.
         11    1    3    3    0    0 -0.65217505989E+01  0.10824668086E+01 -0.11036067047E+02  0.12864670279E+02  0.51100000000E-03 0. -1.
        -11    1    3    3    0    0  0.86727687280E+01 -0.37883537628E+00  0.38475838629E+01  0.94954902714E+01  0.51100000000E-03 0.  1.
         12    1    3    3    0    0  0.15368918012E+02 -0.11256088588E+02  0.31651085371E+02  0.36941770075E+02  0.00000000000E+00 0. -1.
</event>
<event>
 7    1  0.4237994E-013  0.5930196E+02  0.7816164E-02  0.1266605E+00
        -11   -1    0    0    0    0  0.00000000000E+00  0.00000000000E+00  0.45593999997E+02  0.45594000000E+02  0.51100000000E-03 0. -1.
         11   -1    0    0    0    0 -0.00000000000E+00 -0.00000000000E+00 -0.45593999997E+02  0.45594000000E+02  0.51100000000E-03 0.  1.
    9900012    2    1    2    0    0  0.47448916813E+01 -0.30828129467E+02  0.66205903771E+01  0.59301956338E+02  0.50000022451E+02 0.  0.
         12    1    1    2    0    0 -0.47448916813E+01  0.30828129467E+02 -0.66205903771E+01  0.31886043662E+02  0.00000000000E+00 0. -1.
         11    1    3    3    0    0  0.24290646154E+02 -0.24718325241E+02  0.10258745554E+02  0.36142398287E+02  0.51100000000E-03 0.  1.
        -11    1    3    3    0    0 -0.13228515812E+02  0.36219988706E+00 -0.47222746780E+01  0.14050789933E+02  0.51100000000E-03 0. -1.
        -12    1    3    3    0    0 -0.63172386613E+01 -0.64720041127E+01  0.10841195013E+01  0.91087681182E+01  0.00000000000E+00 0.  1.
</event>
<event>
 7    1  0.4237994E-013  0.5930195E+02  0.7816164E-02  0.1266605E+00
        -11   -1    0    0    0    0  0.00000000000E+00  0.00000000000E+00  0.45593999997E+02  0.45594000000E+02  0.51100000000E-03 0.  1.
         11   -1    0    0    0    0 -0.00000000000E+00 -0.00000000000E+00 -0.45593999997E+02  0.45594000000E+02  0.51100000000E-03 0. -1.
    9900012    2    1    2    0    0 -0.19331210508E+02 -0.24854996952E+02  0.50253210469E+01  0.59301946233E+02  0.50000004023E+02 0.  0.
         12    1    1    2    0    0  0.19331210508E+02  0.24854996952E+02 -0.50253210469E+01  0.31886053767E+02  0.00000000000E+00 0. -1.
         11    1    3    3    0    0 -0.11725334458E+02  0.46687276885E+01  0.15199684125E+02  0.19756287205E+02  0.51100000000E-03 0.  1.
        -11    1    3    3    0    0  0.72639904331E+01 -0.17275532564E+02 -0.29525266226E+01  0.18971742042E+02  0.51100000000E-03 0. -1.
         12    1    3    3    0    0 -0.14869866483E+02 -0.12248192077E+02 -0.72218364555E+01  0.20573916986E+02  0.00000000000E+00 0. -1.
</event>
<event>
 7    1  0.4237994E-013  0.5930194E+02  0.7816164E-02  0.1266605E+00
        -11   -1    0    0    0    0  0.00000000000E+00  0.00000000000E+00  0.45593999997E+02  0.45594000000E+02  0.51100000000E-03 0.  1.
         11   -1    0    0    0    0 -0.00000000000E+00 -0.00000000000E+00 -0.45593999997E+02  0.45594000000E+02  0.51100000000E-03 0. -1.
    9900012    2    1    2    0    0 -0.23153688912E+02 -0.19414072933E+02  0.10184365485E+02  0.59301939748E+02  0.49999992194E+02 0.  0.
         12    1    1    2    0    0  0.23153688912E+02  0.19414072933E+02 -0.10184365485E+02  0.31886060252E+02  0.00000000000E+00 0. -1.
         11    1    3    3    0    0 -0.23491506925E+01 -0.12741426666E+02 -0.18532871323E+02  0.22612602287E+02  0.51100000000E-03 0. -1.
        -11    1    3    3    0    0 -0.12589501712E+02 -0.11046118460E+01  0.18851303730E+02  0.22695536417E+02  0.51100000000E-03 0.  1.
        -12    1    3    3    0    0 -0.82150365077E+01 -0.55680344210E+01  0.98659330781E+01  0.13993801043E+02  0.00000000000E+00 0.  1.
</event>
<event>
 7    1  0.4237994E-013  0.5930197E+02  0.7816164E-02  0.1266605E+00
        -11   -1    0    0    0    0  0.00000000000E+00  0.00000000000E+00  0.45593999997E+02  0.45594000000E+02  0.51100000000E-03 0.  1.
         11   -1    0    0    0    0 -0.00000000000E+00 -0.00000000000E+00 -0.45593999997E+02  0.45594000000E+02  0.51100000000E-03 0. -1.
    9900012    2    1    2    0    0  0.11517269938E+02 -0.25052914415E+02  0.16013216100E+02  0.59301966735E+02  0.50000041413E+02 0.  0.
         12    1    1    2    0    0 -0.11517269938E+02  0.25052914415E+02 -0.16013216100E+02  0.31886033265E+02  0.00000000000E+00 0. -1.
         11    1    3    3    0    0  0.58110889965E+01 -0.22112625070E+02  0.23416487461E+01  0.22983042921E+02  0.51100000000E-03 0. -1.
        -11    1    3    3    0    0 -0.39967284991E+01  0.12448063638E+02  0.12501914217E+02  0.18089388779E+02  0.51100000000E-03 0.  1.
        -12    1    3    3    0    0  0.97029094406E+01 -0.15388352983E+02  0.11696531365E+01  0.18229535035E+02  0.00000000000E+00 0.  1.
</event>
<event>
 7    1  0.4237994E-013  0.5930207E+02  0.7816164E-02  0.1266604E+00
        -11   -1    0    0    0    0  0.00000000000E+00  0.00000000000E+00  0.45593999997E+02  0.45594000000E+02  0.51100000000E-03 0. -1.
         11   -1    0    0    0    0 -0.00000000000E+00 -0.00000000000E+00 -0.45593999997E+02  0.45594000000E+02  0.51100000000E-03 0.  1.
    9900012    2    1    2    0    0  0.16457125537E+02  0.13576702027E+02 -0.23697021750E+02  0.59302068013E+02  0.50000226119E+02 0.  0.
         12    1    1    2    0    0 -0.16457125537E+02 -0.13576702027E+02  0.23697021750E+02  0.31885931987E+02  0.00000000000E+00 0. -1.
         11    1    3    3    0    0  0.83978554713E+01 -0.32556908694E+00 -0.78920770856E+00  0.84411385971E+01  0.51100000000E-03 0. -1.
        -11    1    3    3    0    0  0.12478780232E+01  0.85431053074E+01 -0.34963203080E+02  0.36013433850E+02  0.51100000000E-03 0.  1.
        -12    1    3    3    0    0  0.68113920427E+01  0.53591658063E+01  0.12055389038E+02  0.14847495566E+02  0.00000000000E+00 0.  1.
</event>
<event>
 7    1  0.4237994E-013  0.5930195E+02  0.7816164E-02  0.1266605E+00
        -11   -1    0    0    0    0  0.00000000000E+00  0.00000000000E+00  0.45593999997E+02  0.45594000000E+02  0.51100000000E-03 0.  1.
         11   -1    0    0    0    0 -0.00000000000E+00 -0.00000000000E+00 -0.45593999997E+02  0.45594000000E+02  0.51100000000E-03 0. -1.
    9900012    2    1    2    0    0  0.24619721024E+01 -0.30781573305E+01  0.31641484242E+02  0.59301954710E+02  0.50000019482E+02 0.  0.
         12    1    1    2    0    0 -0.24619721024E+01  0.30781573305E+01 -0.31641484242E+02  0.31886045290E+02  0.00000000000E+00 0. -1.
         11    1    3    3    0    0 -0.84344382999E+01  0.14094948849E+02 -0.48977096059E+01  0.17140446089E+02  0.51100000000E-03 0. -1.
        -11    1    3    3    0    0  0.65361967317E+01 -0.56174305659E+01  0.16678440175E+02  0.18773592113E+02  0.51100000000E-03 0.  1.
         12    1    3    3    0    0  0.43602136706E+01 -0.11555675613E+02  0.19860753673E+02  0.23387916508E+02  0.00000000000E+00 0. -1.
</event>
<event>
 7    1  0.4237994E-013  0.5930192E+02  0.7816164E-02  0.1266605E+00
        -11   -1    0    0    0    0  0.00000000000E+00  0.00000000000E+00  0.45593999997E+02  0.45594000000E+02  0.51100000000E-03 0. -1.
         11   -1    0    0    0    0 -0.00000000000E+00 -0.00000000000E+00 -0.45593999997E+02  0.45594000000E+02  0.51100000000E-03 0.  1.
    9900012    2    1    2    0    0  0.95517996277E+01  0.20559391621E+02 -0.22423131606E+02  0.59301916970E+02  0.49999950654E+02 0.  0.
         12    1    1    2    0    0 -0.95517996277E+01 -0.20559391621E+02  0.22423131606E+02  0.31886083030E+02  0.00000000000E+00 0. -1.
         11    1    3    3    0    0 -0.56802068468E+01 -0.10149860271E+02 -0.92732458597E+01  0.14875399234E+02  0.51100000000E-03 0. -1.
        -11    1    3    3    0    0  0.15538176788E+02  0.34420498267E+02 -0.89455590277E+01  0.38810161883E+02  0.51100000000E-03 0.  1.
        -12    1    3    3    0    0 -0.30617031325E+00 -0.37112463745E+01 -0.42043267185E+01  0.56163558531E+01  0.00000000000E+00 0.  1.
</event>
<event>
 7    1  0.4237994E-013  0.5930197E+02  0.7816164E-02  0.1266605E+00
        -11   -1    0    0    0    0  0.00000000000E+00  0.00000000000E+00  0.45593999997E+02  0.45594000000E+02  0.51100000000E-03 0.  1.
         11   -1    0    0    0    0 -0.00000000000E+00 -0.00000000000E+00 -0.45593999997E+02  0.45594000000E+02  0.51100000000E-03 0. -1.
    9900012    2    1    2    0    0  0.22746003652E+02 -0.15539993551E+02 -0.16057616515E+02  0.59301966540E+02  0.50000041056E+02 0.  0.
         12    1    1    2    0    0 -0.22746003652E+02  0.15539993551E+02  0.16057616515E+02  0.31886033460E+02  0.00000000000E+00 0. -1.
         11    1    3    3    0    0  0.28646012533E+02  0.69381025278E+01 -0.13715392319E+01  0.29506142087E+02  0.51100000000E-03 0.  1.
        -11    1    3    3    0    0 -0.29961442740E+01 -0.59579115530E+01 -0.10613967502E+02  0.12535146468E+02  0.51100000000E-03 0. -1.
        -12    1    3    3    0    0 -0.29038646073E+01 -0.16520184526E+02 -0.40721097815E+01  0.17260677985E+02  0.00000000000E+00 0.  1.
</event>
<event>
 7    1  0.4237994E-013  0.5930193E+02  0.7816164E-02  0.1266605E+00
        -11   -1    0    0    0    0  0.00000000000E+00  0.00000000000E+00  0.45593999997E+02  0.45594000000E+02  0.51100000000E-03 0.  1.
         11   -1    0    0    0    0 -0.00000000000E+00 -0.00000000000E+00 -0.45593999997E+02  0.45594000000E+02  0.51100000000E-03 0. -1.
    9900012    2    1    2    0    0 -0.15735720833E+02 -0.92477035487E+01  0.26145522835E+02  0.59301932582E+02  0.49999979126E+02 0.  0.
         12    1    1    2    0    0  0.15735720833E+02  0.92477035487E+01 -0.26145522835E+02  0.31886067418E+02  0.00000000000E+00 0. -1.
         11    1    3    3    0    0  0.37411424437E+01  0.28832850397E+01  0.31782579571E+02  0.32131633071E+02  0.51100000000E-03 0. -1.
        -11    1    3    3    0    0 -0.11575161181E+02 -0.10263734021E+02  0.25050056612E+01  0.15671746745E+02  0.51100000000E-03 0.  1.
         12    1    3    3    0    0 -0.79017020958E+01 -0.18672545674E+01 -0.81420623969E+01  0.11498552766E+02  0.00000000000E+00 0. -1.
</event>
<event>
 7    1  0.4237994E-013  0.5930198E+02  0.7816164E-02  0.1266605E+00
        -11   -1    0    0    0    0  0.00000000000E+00  0.00000000000E+00  0.45593999997E+02  0.45594000000E+02  0.51100000000E-03 0.  1.
         11   -1    0    0    0    0 -0.00000000000E+00 -0.00000000000E+00 -0.45593999997E+02  0.45594000000E+02  0.51100000000E-03 0. -1.
    9900012    2    1    2    0    0  0.94383652012E+01 -0.30141898915E+02  0.43704875570E+01  0.59301984737E+02  0.50000074244E+02 0.  0.
         12    1    1    2    0    0 -0.94383652012E+01  0.30141898915E+02 -0.43704875570E+01  0.31886015263E+02  0.00000000000E+00 0. -1.
         11    1    3    3    0    0  0.16010620420E+02 -0.56796426344E+01  0.19425613944E+02  0.25806060994E+02  0.51100000000E-03 0.  1.
        -11    1    3    3    0    0 -0.10052590845E+02 -0.18032317645E+02 -0.53173469103E+01  0.21318847079E+02  0.51100000000E-03 0. -1.
        -12    1    3    3    0    0  0.34803356266E+01 -0.64299386356E+01 -0.97377794765E+01  0.12177076663E+02  0.00000000000E+00 0.  1.
</event>
<event>
 7    1  0.4237994E-013  0.5930194E+02  0.7816164E-02  0.1266605E+00
        -11   -1    0    0    0    0  0.00000000000E+00  0.00000000000E+00  0.45593999997E+02  0.45594000000E+02  0.51100000000E-03 0.  1.
         11   -1    0    0    0    0 -0.00000000000E+00 -0.00000000000E+00 -0.45593999997E+02  0.45594000000E+02  0.51100000000E-03 0. -1.
    9900012    2    1    2    0    0  0.75503863102E+01 -0.25415954496E+02  0.17712762357E+02  0.59301936795E+02  0.49999986809E+02 0.  0.
         12    1    1    2    0    0 -0.75503863102E+01  0.25415954496E+02 -0.17712762357E+02  0.31886063205E+02  0.00000000000E+00 0. -1.
         11    1    3    3    0    0  0.33558697051E+01  0.11560571774E+02  0.16295970416E+02  0.20259993417E+02  0.51100000000E-03 0. -1.
        -11    1    3    3    0    0  0.42209073006E+01 -0.95674530324E+01  0.46469446651E+01  0.11443177485E+02  0.51100000000E-03 0.  1.
         12    1    3    3    0    0 -0.26390695517E-01 -0.27409073237E+02 -0.32301527235E+01  0.27598765893E+02  0.00000000000E+00 0. -1.
</event>
<event>
 7    1  0.4237994E-013  0.5930197E+02  0.7816164E-02  0.1266605E+00
        -11   -1    0    0    0    0  0.00000000000E+00  0.00000000000E+00  0.45593999997E+02  0.45594000000E+02  0.51100000000E-03 0. -1.
         11   -1    0    0    0    0 -0.00000000000E+00 -0.00000000000E+00 -0.45593999997E+02  0.45594000000E+02  0.51100000000E-03 0.  1.
    9900012    2    1    2    0    0  0.65623209842E+01 -0.31014379069E+02  0.34297827649E+01  0.59301965822E+02  0.50000039748E+02 0.  0.
         12    1    1    2    0    0 -0.65623209842E+01  0.31014379069E+02 -0.34297827649E+01  0.31886034178E+02  0.00000000000E+00 0. -1.
         11    1    3    3    0    0 -0.31052922889E+01  0.88753738284E+01 -0.53004842418E+01  0.10793990655E+02  0.51100000000E-03 0. -1.
        -11    1    3    3    0    0  0.16770982739E+02 -0.23947648502E+02  0.10269030553E+02  0.30987234784E+02  0.51100000000E-03 0.  1.
         12    1    3    3    0    0 -0.71033694661E+01 -0.15942104396E+02 -0.15387635460E+01  0.17520740384E+02  0.00000000000E+00 0. -1.
</event>
<event>
 7    1  0.4237994E-013  0.5930190E+02  0.7816164E-02  0.1266605E+00
        -11   -1    0    0    0    0  0.00000000000E+00  0.00000000000E+00  0.45593999997E+02  0.45594000000E+02  0.51100000000E-03 0.  1.
         11   -1    0    0    0    0 -0.00000000000E+00 -0.00000000000E+00 -0.45593999997E+02  0.45594000000E+02  0.51100000000E-03 0. -1.
    9900012    2    1    2    0    0  0.15818914716E+02  0.18318439668E+01  0.27624800937E+02  0.59301900491E+02  0.49999920599E+02 0.  0.
         12    1    1    2    0    0 -0.15818914716E+02 -0.18318439668E+01 -0.27624800937E+02  0.31886099509E+02  0.00000000000E+00 0. -1.
         11    1    3    3    0    0  0.42778920850E+01  0.61608583440E+01 -0.81229542117E+01  0.11056171200E+02  0.51100000000E-03 0. -1.
        -11    1    3    3    0    0 -0.43491767415E+01 -0.13273096437E+02  0.12895379319E+02  0.19010029863E+02  0.51100000000E-03 0.  1.
        -12    1    3    3    0    0  0.15890199372E+02  0.89440820595E+01  0.22852375829E+02  0.29235699427E+02  0.00000000000E+00 0.  1.
</event>
<event>
 7    1  0.4237994E-013  0.5930194E+02  0.7816164E-02  0.1266605E+00
        -11   -1    0    0    0    0  0.00000000000E+00  0.00000000000E+00  0.45593999997E+02  0.45594000000E+02  0.51100000000E-03 0.  1.
         11   -1    0    0    0    0 -0.00000000000E+00 -0.00000000000E+00 -0.45593999997E+02  0.45594000000E+02  0.51100000000E-03 0. -1.
    9900012    2    1    2    0    0  0.13627015403E+01  0.84041074498E+01  0.30728399873E+02  0.59301944486E+02  0.50000000835E+02 0.  0.
         12    1    1    2    0    0 -0.13627015403E+01 -0.84041074498E+01 -0.30728399873E+02  0.31886055514E+02  0.00000000000E+00 0. -1.
         11    1    3    3    0    0  0.79372906509E+00  0.13096672758E+02 -0.46024852668E+01  0.13904521352E+02  0.51100000000E-03 0. -1.
        -11    1    3    3    0    0  0.48726551784E+01 -0.46555616304E+01  0.39099964854E+02  0.39676495239E+02  0.51100000000E-03 0.  1.
        -12    1    3    3    0    0 -0.43036827032E+01 -0.37003677426E-01 -0.37690797142E+01  0.57209278945E+01  0.00000000000E+00 0.  1.
</event>
<event>
 7    1  0.4237994E-013  0.5930192E+02  0.7816164E-02  0.1266605E+00
        -11   -1    0    0    0    0  0.00000000000E+00  0.00000000000E+00  0.45593999997E+02  0.45594000000E+02  0.51100000000E-03 0.  1.
         11   -1    0    0    0    0 -0.00000000000E+00 -0.00000000000E+00 -0.45593999997E+02  0.45594000000E+02  0.51100000000E-03 0. -1.
    9900012    2    1    2    0    0 -0.10480381248E+01  0.23178450947E+02  0.21871978405E+02  0.59301915079E+02  0.49999947205E+02 0.  0.
         12    1    1    2    0    0  0.10480381248E+01 -0.23178450947E+02 -0.21871978405E+02  0.31886084921E+02  0.00000000000E+00 0. -1.
         11    1    3    3    0    0 -0.89294122973E+00  0.22298306568E+02 -0.66748793149E+01  0.23293042609E+02  0.51100000000E-03 0. -1.
        -11    1    3    3    0    0  0.10338772561E+02 -0.20870199333E+01  0.10242582113E+02  0.14702256932E+02  0.51100000000E-03 0.  1.
         12    1    3    3    0    0 -0.10493869456E+02  0.29671643117E+01  0.18304275607E+02  0.21306615539E+02  0.00000000000E+00 0. -1.
</event>
<event>
 7    1  0.4237994E-013  0.5930192E+02  0.7816164E-02  0.1266605E+00
        -11   -1    0    0    0    0  0.00000000000E+00  0.00000000000E+00  0.45593999997E+02  0.45594000000E+02  0.51100000000E-03 0. -1.
         11   -1    0    0    0    0 -0.00000000000E+00 -0.00000000000E+00 -0.45593999997E+02  0.45594000000E+02  0.51100000000E-03 0.  1.
    9900012    2    1    2    0    0 -0.25539678363E+02  0.10101439305E+02 -0.16199008228E+02  0.59301919738E+02  0.49999955701E+02 0.  0.
         12    1    1    2    0    0  0.25539678363E+02 -0.10101439305E+02  0.16199008228E+02  0.31886080262E+02  0.00000000000E+00 0. -1.
         11    1    3    3    0    0 -0.18678151595E+02  0.70017774760E+01  0.12097795859E+02  0.23329271308E+02  0.51100000000E-03 0. -1.
        -11    1    3    3    0    0  0.45810593514E+01 -0.58662097426E+01 -0.72247843173E+01  0.10372850631E+02  0.51100000000E-03 0.  1.
        -12    1    3    3    0    0 -0.11442586120E+02  0.89658715717E+01 -0.21072019770E+02  0.25599797799E+02  0.00000000000E+00 0.  1.
</event>
<event>
 7    1  0.4237994E-013  0.5930194E+02  0.7816164E-02  0.1266605E+00
        -11   -1    0    0    0    0  0.00000000000E+00  0.00000000000E+00  0.45593999997E+02  0.45594000000E+02  0.51100000000E-03 0.  1.
         11   -1    0    0    0    0 -0.00000000000E+00 -0.00000000000E+00 -0.45593999997E+02  0.45594000000E+02  0.51100000000E-03 0. -1.
    9900012    2    1    2    0    0 -0.27615467463E+02  0.15797046240E+02 -0.21354272306E+01  0.59301940937E+02  0.49999994363E+02 0.  0.
         12    1    1    2    0    0  0.27615467463E+02 -0.15797046240E+02  0.21354272306E+01  0.31886059063E+02  0.00000000000E+00 0. -1.
         11    1    3    3    0    0 -0.18468316511E+02 -0.79746670919E+01 -0.14644254487E+02  0.24882287268E+02  0.51100000000E-03 0. -1.
        -11    1    3    3    0    0 -0.12926773580E+02  0.72644897678E+01  0.82051632164E+01  0.16946946346E+02  0.51100000000E-03 0.  1.
         12    1    3    3    0    0  0.37796226276E+01  0.16507223565E+02  0.43036640399E+01  0.17472707323E+02  0.00000000000E+00 0. -1.
</event>
<event>
 7    1  0.4237994E-013  0.5930199E+02  0.7816164E-02  0.1266605E+00
        -11   -1    0    0    0    0  0.00000000000E+00  0.00000000000E+00  0.45593999997E+02  0.45594000000E+02  0.51100000000E-03 0. -1.
         11   -1    0    0    0    0 -0.00000000000E+00 -0.00000000000E+00 -0.45593999997E+02  0.45594000000E+02  0.51100000000E-03 0.  1.
    9900012    2    1    2    0    0 -0.27147758856E+02  0.13279887398E+02 -0.10166694512E+02  0.59301985863E+02  0.50000076298E+02 0.  0.
         12    1    1    2    0    0  0.27147758856E+02 -0.13279887398E+02  0.10166694512E+02  0.31886014137E+02  0.00000000000E+00 0. -1.
         11    1    3    3    0    0 -0.24975501523E+02  0.13904069468E+02 -0.24018075056E+01  0.28685667217E+02  0.51100000000E-03 0. -1.
        -11    1    3    3    0    0  0.93790477730E+01  0.88812386253E+01 -0.87865812430E+01  0.15622002012E+02  0.51100000000E-03 0.  1.
         12    1    3    3    0    0 -0.11551305106E+02 -0.95054206953E+01  0.10216942360E+01  0.14994316635E+02  0.00000000000E+00 0. -1.
</event>
<event>
 7    1  0.4237994E-013  0.5930194E+02  0.7816164E-02  0.1266605E+00
        -11   -1    0    0    0    0  0.00000000000E+00  0.00000000000E+00  0.45593999997E+02  0.45594000000E+02  0.51100000000E-03 0.  1.
         11   -1    0    0    0    0 -0.00000000000E+00 -0.00000000000E+00 -0.45593999997E+02  0.45594000000E+02  0.51100000000E-03 0. -1.
    9900012    2    1    2    0    0 -0.28937797146E+02  0.43039821466E+01  0.12680716356E+02  0.59301938260E+02  0.49999989482E+02 0.  0.
         12    1    1    2    0    0  0.28937797146E+02 -0.43039821466E+01 -0.12680716356E+02  0.31886061740E+02  0.00000000000E+00 0. -1.
         11    1    3    3    0    0 -0.32722896240E+02  0.32322694013E+01  0.18483126836E+02  0.37720836175E+02  0.51100000000E-03 0. -1.
        -11    1    3    3    0    0  0.69571668462E+01  0.18930807712E+01  0.59701671105E+01  0.93610267023E+01  0.51100000000E-03 0.  1.
         12    1    3    3    0    0 -0.31720677515E+01 -0.82136802588E+00 -0.11772577590E+02  0.12220075383E+02  0.00000000000E+00 0. -1.
</event>
<event>
 7    1  0.4237994E-013  0.5930189E+02  0.7816164E-02  0.1266605E+00
        -11   -1    0    0    0    0  0.00000000000E+00  0.00000000000E+00  0.45593999997E+02  0.45594000000E+02  0.51100000000E-03 0.  1.
         11   -1    0    0    0    0 -0.00000000000E+00 -0.00000000000E+00 -0.45593999997E+02  0.45594000000E+02  0.51100000000E-03 0. -1.
    9900012    2    1    2    0    0 -0.25817889518E+02  0.13440732280E+02  0.13019491425E+02  0.59301892361E+02  0.49999905772E+02 0.  0.
         12    1    1    2    0    0  0.25817889518E+02 -0.13440732280E+02 -0.13019491425E+02  0.31886107639E+02  0.00000000000E+00 0. -1.
         11    1    3    3    0    0 -0.49949119684E+01 -0.12718109249E+02  0.48837439002E+01  0.14510355033E+02  0.51100000000E-03 0. -1.
        -11    1    3    3    0    0 -0.24996522431E+02  0.29215816788E+02  0.50822769801E+01  0.38784270314E+02  0.51100000000E-03 0.  1.
         12    1    3    3    0    0  0.41735448811E+01 -0.30569752591E+01  0.30534705446E+01  0.60072670139E+01  0.00000000000E+00 0. -1.
</event>
<event>
 7    1  0.4237994E-013  0.5930195E+02  0.7816164E-02  0.1266605E+00
        -11   -1    0    0    0    0  0.00000000000E+00  0.00000000000E+00  0.45593999997E+02  0.45594000000E+02  0.51100000000E-03 0. -1.
         11   -1    0    0    0    0 -0.00000000000E+00 -0.00000000000E+00 -0.45593999997E+02  0.45594000000E+02  0.51100000000E-03 0.  1.
    9900012    2    1    2    0    0  0.11039741437E+02  0.28370202845E+02  0.94855499511E+01  0.59301953548E+02  0.50000017364E+02 0.  0.
         12    1    1    2    0    0 -0.11039741437E+02 -0.28370202845E+02 -0.94855499511E+01  0.31886046452E+02  0.00000000000E+00 0. -1.
         11    1    3    3    0    0  0.19754109599E+02 -0.28224452879E+01 -0.47316039755E+01  0.20508025744E+02  0.51100000000E-03 0.  1.
        -11    1    3    3    0    0 -0.54424012873E+01  0.22793869944E+02  0.17450264546E+02  0.29218007663E+02  0.51100000000E-03 0. -1.
        -12    1    3    3    0    0 -0.32719668754E+01  0.83987781884E+01 -0.32331106190E+01  0.95759201420E+01  0.00000000000E+00 0.  1.
</event>
<event>
 7    1  0.4237994E-013  0.5930196E+02  0.7816164E-02  0.1266605E+00
        -11   -1    0    0    0    0  0.00000000000E+00  0.00000000000E+00  0.45593999997E+02  0.45594000000E+02  0.51100000000E-03 0. -1.
         11   -1    0    0    0    0 -0.00000000000E+00 -0.00000000000E+00 -0.45593999997E+02  0.45594000000E+02  0.51100000000E-03 0.  1.
    9900012    2    1    2    0    0 -0.13382091544E+02 -0.13450489519E+02 -0.25626622911E+02  0.59301955337E+02  0.50000020626E+02 0.  0.
         12    1    1    2    0    0  0.13382091544E+02  0.13450489519E+02  0.25626622911E+02  0.31886044663E+02  0.00000000000E+00 0. -1.
         11    1    3    3    0    0  0.63151531077E+01  0.14613965688E+02 -0.32668316392E+01  0.16251810396E+02  0.51100000000E-03 0.  1.
        -11    1    3    3    0    0 -0.20874280180E+02 -0.23235125124E+02 -0.21706851740E+02  0.38036745724E+02  0.51100000000E-03 0. -1.
         12    1    3    3    0    0  0.11770355275E+01 -0.48293300833E+01 -0.65293953200E+00  0.50133992180E+01  0.00000000000E+00 0. -1.
</event>
<event>
 7    1  0.4237994E-013  0.5930199E+02  0.7816164E-02  0.1266605E+00
        -11   -1    0    0    0    0  0.00000000000E+00  0.00000000000E+00  0.45593999997E+02  0.45594000000E+02  0.51100000000E-03 0.  1.
         11   -1    0    0    0    0 -0.00000000000E+00 -0.00000000000E+00 -0.45593999997E+02  0.45594000000E+02  0.51100000000E-03 0. -1.
    9900012    2    1    2    0    0 -0.10105584251E+02  0.58672384875E+01  0.29667663495E+02  0.59301990877E+02  0.50000085442E+02 0.  0.
         12    1    1    2    0    0  0.10105584251E+02 -0.58672384875E+01 -0.29667663495E+02  0.31886009123E+02  0.00000000000E+00 0. -1.
         11    1    3    3    0    0 -0.22966014260E+02  0.10373553408E+02  0.38048827895E+01  0.25485791230E+02  0.51100000000E-03 0. -1.
        -11    1    3    3    0    0 -0.26575168704E+00  0.90260425439E+00  0.17114415104E+02  0.17140260296E+02  0.51100000000E-03 0.  1.
         12    1    3    3    0    0  0.13126181696E+02 -0.54089191751E+01  0.87483656018E+01  0.16675939352E+02  0.00000000000E+00 0. -1.
</event>
<event>
 7    1  0.4237994E-013  0.5930195E+02  0.7816164E-02  0.1266605E+00
        -11   -1    0    0    0    0  0.00000000000E+00  0.00000000000E+00  0.45593999997E+02  0.45594000000E+02  0.51100000000E-03 0.  1.
         11   -1    0    0    0    0 -0.00000000000E+00 -0.00000000000E+00 -0.45593999997E+02  0.45594000000E+02  0.51100000000E-03 0. -1.
    9900012    2    1    2    0    0  0.33060837957E+01  0.28014457338E+02  0.14865406406E+02  0.59301947914E+02  0.50000007088E+02 0.  0.
         12    1    1    2    0    0 -0.33060837957E+01 -0.28014457338E+02 -0.14865406406E+02  0.31886052086E+02  0.00000000000E+00 0. -1.
         11    1    3    3    0    0 -0.18519835065E+01 -0.10945970534E+02  0.53030224345E+01  0.12303095588E+02  0.51100000000E-03 0. -1.
        -11    1    3    3    0    0 -0.96252054668E+01  0.17135837046E+02  0.42775155380E+01  0.20114140076E+02  0.51100000000E-03 0.  1.
         12    1    3    3    0    0  0.14783272769E+02  0.21824590826E+02  0.52848684335E+01  0.26884712251E+02  0.00000000000E+00 0. -1.
</event>
<event>
 7    1  0.4237994E-013  0.5930202E+02  0.7816164E-02  0.1266605E+00
        -11   -1    0    0    0    0  0.00000000000E+00  0.00000000000E+00  0.45593999997E+02  0.45594000000E+02  0.51100000000E-03 0. -1.
         11   -1    0    0    0    0 -0.00000000000E+00 -0.00000000000E+00 -0.45593999997E+02  0.45594000000E+02  0.51100000000E-03 0.  1.
    9900012    2    1    2    0    0 -0.20071074586E+02 -0.63761270775E+01 -0.23941862473E+02  0.59302018594E+02  0.50000135990E+02 0.  0.
         12    1    1    2    0    0  0.20071074586E+02  0.63761270775E+01  0.23941862473E+02  0.31885981406E+02  0.00000000000E+00 0. -1.
         11    1    3    3    0    0 -0.22439601886E+01  0.14778925465E+02 -0.32575078835E-01  0.14948346284E+02  0.51100000000E-03 0. -1.
        -11    1    3    3    0    0 -0.16750539261E+02 -0.18782203608E+02 -0.29144090078E+02  0.38506229686E+02  0.51100000000E-03 0.  1.
         12    1    3    3    0    0 -0.10765751366E+01 -0.23728489347E+01  0.52348026840E+01  0.58474426232E+01  0.00000000000E+00 0. -1.
</event>
<event>
 7    1  0.4237994E-013  0.5930194E+02  0.7816164E-02  0.1266605E+00
        -11   -1    0    0    0    0  0.00000000000E+00  0.00000000000E+00  0.45593999997E+02  0.45594000000E+02  0.51100000000E-03 0. -1.
         11   -1    0    0    0    0 -0.00000000000E+00 -0.00000000000E+00 -0.45593999997E+02  0.45594000000E+02  0.51100000000E-03 0.  1.
    9900012    2    1    2    0    0  0.51572684788E+01  0.25908008170E+02 -0.17857723440E+02  0.59301943612E+02  0.49999999243E+02 0.  0.
         12    1    1    2    0    0 -0.51572684788E+01 -0.25908008170E+02  0.17857723440E+02  0.31886056388E+02  0.00000000000E+00 0. -1.
         11    1    3    3    0    0  0.22676936156E+02  0.14966978086E+02  0.57964588427E+00  0.27177009697E+02  0.51100000000E-03 0. -1.
        -11    1    3    3    0    0 -0.33163702784E+01  0.32997425045E+01 -0.14894665239E+02  0.15612099963E+02  0.51100000000E-03 0.  1.
         12    1    3    3    0    0 -0.14203297399E+02  0.76412875794E+01 -0.35427040852E+01  0.16512833952E+02  0.00000000000E+00 0. -1.
</event>
<event>
 7    1  0.4237994E-013  0.5930194E+02  0.7816164E-02  0.1266605E+00
        -11   -1    0    0    0    0  0.00000000000E+00  0.00000000000E+00  0.45593999997E+02  0.45594000000E+02  0.51100000000E-03 0. -1.
         11   -1    0    0    0    0 -0.00000000000E+00 -0.00000000000E+00 -0.45593999997E+02  0.45594000000E+02  0.51100000000E-03 0.  1.
    9900012    2    1    2    0    0  0.14903262870E+02  0.17899650678E+02  0.21776508569E+02  0.59301936210E+02  0.49999985742E+02 0.  0.
         12    1    1    2    0    0 -0.14903262870E+02 -0.17899650678E+02 -0.21776508569E+02  0.31886063790E+02  0.00000000000E+00 0. -1.
         11    1    3    3    0    0  0.14278267040E+02  0.24703058926E+02  0.80859018787E+01  0.29656227667E+02  0.51100000000E-03 0. -1.
        -11    1    3    3    0    0 -0.38267885219E+01 -0.14221099892E+02  0.14853625852E+02  0.20916839956E+02  0.51100000000E-03 0.  1.
        -12    1    3    3    0    0  0.44517843517E+01  0.74176916444E+01 -0.11630191618E+01  0.87288685874E+01  0.00000000000E+00 0.  1.
</event>
<event>
 7    1  0.4237994E-013  0.5930196E+02  0.7816164E-02  0.1266605E+00
        -11   -1    0    0    0    0  0.00000000000E+00  0.00000000000E+00  0.45593999997E+02  0.45594000000E+02  0.51100000000E-03 0.  1.
         11   -1    0    0    0    0 -0.00000000000E+00 -0.00000000000E+00 -0.45593999997E+02  0.45594000000E+02  0.51100000000E-03 0. -1.
    9900012    2    1    2    0    0  0.77635149130E+01 -0.30217635599E+02  0.65834344126E+01  0.59301964284E+02  0.50000036942E+02 0.  0.
         12    1    1    2    0    0 -0.77635149130E+01  0.30217635599E+02 -0.65834344126E+01  0.31886035716E+02  0.00000000000E+00 0. -1.
         11    1    3    3    0    0 -0.91872472434E+01 -0.24394357873E+02  0.12044037638E+02  0.28714962142E+02  0.51100000000E-03 0. -1.
        -11    1    3    3    0    0  0.26405163402E+01  0.38595609045E+01  0.76029866557E+01  0.89260261745E+01  0.51100000000E-03 0.  1.
         12    1    3    3    0    0  0.14310245816E+02 -0.96828386313E+01 -0.13063589881E+02  0.21660975967E+02  0.00000000000E+00 0. -1.
</event>
<event>
 7    1  0.4237994E-013  0.5930199E+02  0.7816164E-02  0.1266605E+00
        -11   -1    0    0    0    0  0.00000000000E+00  0.00000000000E+00  0.45593999997E+02  0.45594000000E+02  0.51100000000E-03 0. -1.
         11   -1    0    0    0    0 -0.00000000000E+00 -0.00000000000E+00 -0.45593999997E+02  0.45594000000E+02  0.51100000000E-03 0.  1.
    9900012    2    1    2    0    0 -0.85414433839E+01  0.25664565392E+02 -0.16884658320E+02  0.59301986476E+02  0.50000077416E+02 0.  0.
         12    1    1    2    0    0  0.85414433839E+01 -0.25664565392E+02  0.16884658320E+02  0.31886013524E+02  0.00000000000E+00 0. -1.
         11    1    3    3    0    0 -0.39026269932E+01 -0.30341578418E+01  0.63882022523E+01  0.80774834902E+01  0.51100000000E-03 0. -1.
        -11    1    3    3    0    0  0.13573952171E+02  0.18844688603E+02 -0.19170303381E+02  0.30114365310E+02  0.51100000000E-03 0.  1.
        -12    1    3    3    0    0 -0.18212768562E+02  0.98540346310E+01 -0.41025571918E+01  0.21110137676E+02  0.00000000000E+00 0.  1.
</event>
<event>
 7    1  0.4237994E-013  0.5930163E+02  0.7816164E-02  0.1266606E+00
        -11   -1    0    0    0    0  0.00000000000E+00  0.00000000000E+00  0.45593999997E+02  0.45594000000E+02  0.51100000000E-03 0.  1.
         11   -1    0    0    0    0 -0.00000000000E+00 -0.00000000000E+00 -0.45593999997E+02  0.45594000000E+02  0.51100000000E-03 0. -1.
    9900012    2    1    2    0    0 -0.31183060359E+02 -0.58985131985E+01 -0.30927529411E+01  0.59301626233E+02  0.49999420415E+02 0.  0.
         12    1    1    2    0    0  0.31183060359E+02  0.58985131985E+01  0.30927529411E+01  0.31886373767E+02  0.00000000000E+00 0. -1.
         11    1    3    3    0    0 -0.24207389348E+02  0.48245318536E-02  0.14094296202E+02  0.28011549547E+02  0.51100000000E-03 0. -1.
        -11    1    3    3    0    0  0.30271040638E+01  0.15261593181E+01  0.48837223139E+01  0.59450202000E+01  0.51100000000E-03 0.  1.
         12    1    3    3    0    0 -0.10002775074E+02 -0.74294970484E+01 -0.22070771457E+02  0.25345056486E+02  0.00000000000E+00 0. -1.
</event>
<event>
 7    1  0.4237994E-013  0.5930194E+02  0.7816164E-02  0.1266605E+00
        -11   -1    0    0    0    0  0.00000000000E+00  0.00000000000E+00  0.45593999997E+02  0.45594000000E+02  0.51100000000E-03 0. -1.
         11   -1    0    0    0    0 -0.00000000000E+00 -0.00000000000E+00 -0.45593999997E+02  0.45594000000E+02  0.51100000000E-03 0.  1.
    9900012    2    1    2    0    0 -0.28056712149E+02  0.12307251626E+02 -0.88359119465E+01  0.59301939109E+02  0.49999991030E+02 0.  0.
         12    1    1    2    0    0  0.28056712149E+02 -0.12307251626E+02  0.88359119465E+01  0.31886060891E+02  0.00000000000E+00 0. -1.
         11    1    3    3    0    0 -0.10822946239E+02 -0.10290800426E+02  0.96500477466E+01  0.17780893129E+02  0.51100000000E-03 0. -1.
        -11    1    3    3    0    0  0.28867085074E+01  0.13910082553E+02 -0.25740212545E+01  0.14437765351E+02  0.51100000000E-03 0.  1.
        -12    1    3    3    0    0 -0.20120474417E+02  0.86879694990E+01 -0.15911938439E+02  0.27083280630E+02  0.00000000000E+00 0.  1.
</event>
<event>
 7    1  0.4237994E-013  0.5930194E+02  0.7816164E-02  0.1266605E+00
        -11   -1    0    0    0    0  0.00000000000E+00  0.00000000000E+00  0.45593999997E+02  0.45594000000E+02  0.51100000000E-03 0.  1.
         11   -1    0    0    0    0 -0.00000000000E+00 -0.00000000000E+00 -0.45593999997E+02  0.45594000000E+02  0.51100000000E-03 0. -1.
    9900012    2    1    2    0    0 -0.60892434660E+01  0.30687034163E+02  0.61601719525E+01  0.59301942385E+02  0.49999997005E+02 0.  0.
         12    1    1    2    0    0  0.60892434660E+01 -0.30687034163E+02 -0.61601719525E+01  0.31886057615E+02  0.00000000000E+00 0. -1.
         11    1    3    3    0    0 -0.10039326492E+01  0.21019938118E+02  0.75312317729E+01  0.22350953705E+02  0.51100000000E-03 0. -1.
        -11    1    3    3    0    0  0.95331851460E+01 -0.71079912836E+01  0.62465634867E+01  0.13432226724E+02  0.51100000000E-03 0.  1.
        -12    1    3    3    0    0 -0.14618495963E+02  0.16775087329E+02 -0.76176233071E+01  0.23518761956E+02  0.00000000000E+00 0.  1.
</event>
<event>
 7    1  0.4237994E-013  0.5930194E+02  0.7816164E-02  0.1266605E+00
        -11   -1    0    0    0    0  0.00000000000E+00  0.00000000000E+00  0.45593999997E+02  0.45594000000E+02  0.51100000000E-03 0.  1.
         11   -1    0    0    0    0 -0.00000000000E+00 -0.00000000000E+00 -0.45593999997E+02  0.45594000000E+02  0.51100000000E-03 0. -1.
    9900012    2    1    2    0    0 -0.20672847197E+02  0.40539782926E+01  0.23935733818E+02  0.59301941846E+02  0.49999996020E+02 0.  0.
         12    1    1    2    0    0  0.20672847197E+02 -0.40539782926E+01 -0.23935733818E+02  0.31886058154E+02  0.00000000000E+00 0. -1.
         11    1    3    3    0    0 -0.23569079140E+01 -0.90473558004E+01 -0.75496675993E+01  0.12016952318E+02  0.51100000000E-03 0. -1.
        -11    1    3    3    0    0 -0.24511949695E+02  0.51761863544E+01  0.24473990571E+02  0.35022918179E+02  0.51100000000E-03 0.  1.
        -12    1    3    3    0    0  0.61960104121E+01  0.79251477386E+01  0.70114108462E+01  0.12262071349E+02  0.00000000000E+00 0.  1.
</event>
<event>
 7    1  0.4237994E-013  0.5930195E+02  0.7816164E-02  0.1266605E+00
        -11   -1    0    0    0    0  0.00000000000E+00  0.00000000000E+00  0.45593999997E+02  0.45594000000E+02  0.51100000000E-03 0.  1.
         11   -1    0    0    0    0 -0.00000000000E+00 -0.00000000000E+00 -0.45593999997E+02  0.45594000000E+02  0.51100000000E-03 0. -1.
    9900012    2    1    2    0    0  0.25632249712E+02  0.25300085288E+01  0.18796467978E+02  0.59301946984E+02  0.50000005392E+02 0.  0.
         12    1    1    2    0    0 -0.25632249712E+02 -0.25300085288E+01 -0.18796467978E+02  0.31886053016E+02  0.00000000000E+00 0. -1.
         11    1    3    3    0    0  0.41856948560E+01 -0.41971779633E+01 -0.99074138105E+01  0.11545267124E+02  0.51100000000E-03 0. -1.
        -11    1    3    3    0    0  0.27398229571E+02  0.38630778947E+01  0.30226609462E+02  0.40978461102E+02  0.51100000000E-03 0.  1.
        -12    1    3    3    0    0 -0.59516747148E+01  0.28641085974E+01 -0.15227276733E+01  0.67782187583E+01  0.00000000000E+00 0.  1.
</event>
<event>
 7    1  0.4237994E-013  0.5930192E+02  0.7816164E-02  0.1266605E+00
        -11   -1    0    0    0    0  0.00000000000E+00  0.00000000000E+00  0.45593999997E+02  0.45594000000E+02  0.51100000000E-03 0.  1.
         11   -1    0    0    0    0 -0.00000000000E+00 -0.00000000000E+00 -0.45593999997E+02  0.45594000000E+02  0.51100000000E-03 0. -1.
    9900012    2    1    2    0    0  0.24796986424E+02  0.17097136211E+02 -0.10465156345E+02  0.59301919971E+02  0.49999956125E+02 0.  0.
         12    1    1    2    0    0 -0.24796986424E+02 -0.17097136211E+02  0.10465156345E+02  0.31886080029E+02  0.00000000000E+00 0. -1.
         11    1    3    3    0    0  0.21244953644E+01 -0.10073364711E+02 -0.16355721560E+02  0.19326039045E+02  0.51100000000E-03 0. -1.
        -11    1    3    3    0    0  0.12714512278E+02  0.51257766767E+01  0.76920328113E+01  0.15719407687E+02  0.51100000000E-03 0.  1.
         12    1    3    3    0    0  0.99579787813E+01  0.22044724245E+02 -0.18014675967E+01  0.24256473238E+02  0.00000000000E+00 0. -1.
</event>
<event>
 7    1  0.4237994E-013  0.5930190E+02  0.7816164E-02  0.1266605E+00
        -11   -1    0    0    0    0  0.00000000000E+00  0.00000000000E+00  0.45593999997E+02  0.45594000000E+02  0.51100000000E-03 0. -1.
         11   -1    0    0    0    0 -0.00000000000E+00 -0.00000000000E+00 -0.45593999997E+02  0.45594000000E+02  0.51100000000E-03 0.  1.
    9900012    2    1    2    0    0 -0.91584409395E+01 -0.30513562772E+02  0.13299346090E+01  0.59301901469E+02  0.49999922382E+02 0.  0.
         12    1    1    2    0    0  0.91584409395E+01  0.30513562772E+02 -0.13299346090E+01  0.31886098531E+02  0.00000000000E+00 0. -1.
         11    1    3    3    0    0 -0.25352797464E+01 -0.36995347206E+02  0.10281390230E+02  0.38481038754E+02  0.51100000000E-03 0. -1.
        -11    1    3    3    0    0 -0.68879006134E+01 -0.34221822637E+01 -0.34778350619E+00  0.76990557820E+01  0.51100000000E-03 0.  1.
         12    1    3    3    0    0  0.26473942022E+00  0.99039666977E+01 -0.86036721147E+01  0.13121806932E+02  0.00000000000E+00 0. -1.
</event>
<event>
 7    1  0.4237994E-013  0.5930193E+02  0.7816164E-02  0.1266605E+00
        -11   -1    0    0    0    0  0.00000000000E+00  0.00000000000E+00  0.45593999997E+02  0.45594000000E+02  0.51100000000E-03 0.  1.
         11   -1    0    0    0    0 -0.00000000000E+00 -0.00000000000E+00 -0.45593999997E+02  0.45594000000E+02  0.51100000000E-03 0. -1.
    9900012    2    1    2    0    0 -0.18847679431E+02  0.19880189027E+02  0.16317622617E+02  0.59301925555E+02  0.49999966309E+02 0.  0.
         12    1    1    2    0    0  0.18847679431E+02 -0.19880189027E+02 -0.16317622617E+02  0.31886074445E+02  0.00000000000E+00 0. -1.
         11    1    3    3    0    0  0.15320023747E+01  0.64402872912E+01 -0.34847493717E+01  0.74811636871E+01  0.51100000000E-03 0. -1.
        -11    1    3    3    0    0 -0.28846900378E+02  0.21655910329E+02  0.14293083208E+02  0.38799669347E+02  0.51100000000E-03 0.  1.
        -12    1    3    3    0    0  0.84672185719E+01 -0.82160085939E+01  0.55092887803E+01  0.13021092520E+02  0.00000000000E+00 0.  1.
</event>
<event>
 7    1  0.4237994E-013  0.5930195E+02  0.7816164E-02  0.1266605E+00
        -11   -1    0    0    0    0  0.00000000000E+00  0.00000000000E+00  0.45593999997E+02  0.45594000000E+02  0.51100000000E-03 0.  1.
         11   -1    0    0    0    0 -0.00000000000E+00 -0.00000000000E+00 -0.45593999997E+02  0.45594000000E+02  0.51100000000E-03 0. -1.
    9900012    2    1    2    0    0 -0.57096776453E+01 -0.92507637175E+01  0.29975712297E+02  0.59301947001E+02  0.50000005422E+02 0.  0.
         12    1    1    2    0    0  0.57096776453E+01  0.92507637175E+01 -0.29975712297E+02  0.31886052999E+02  0.00000000000E+00 0. -1.
         11    1    3    3    0    0 -0.21090558796E+02 -0.14636558112E+02  0.44050595513E+01  0.26046977821E+02  0.51100000000E-03 0. -1.
        -11    1    3    3    0    0  0.19967481474E+01  0.73595279455E+01  0.76553726757E+01  0.10805294342E+02  0.51100000000E-03 0.  1.
         12    1    3    3    0    0  0.13384133003E+02 -0.19737335505E+01  0.17915280070E+02  0.22449674838E+02  0.00000000000E+00 0. -1.
</event>
<event>
 7    1  0.4237994E-013  0.5930193E+02  0.7816164E-02  0.1266605E+00
        -11   -1    0    0    0    0  0.00000000000E+00  0.00000000000E+00  0.45593999997E+02  0.45594000000E+02  0.51100000000E-03 0. -1.
         11   -1    0    0    0    0 -0.00000000000E+00 -0.00000000000E+00 -0.45593999997E+02  0.45594000000E+02  0.51100000000E-03 0.  1.
    9900012    2    1    2    0    0 -0.44940074355E+01 -0.23121073559E+02 -0.21492813632E+02  0.59301934342E+02  0.49999982335E+02 0.  0.
         12    1    1    2    0    0  0.44940074355E+01  0.23121073559E+02  0.21492813632E+02  0.31886065658E+02  0.00000000000E+00 0. -1.
         11    1    3    3    0    0 -0.56332178730E+00 -0.47665755442E+01  0.17028278937E+01  0.50928574447E+01  0.51100000000E-03 0. -1.
        -11    1    3    3    0    0  0.31541224499E+01  0.10506503622E+02  0.60388216194E+01  0.12522079444E+02  0.51100000000E-03 0.  1.
        -12    1    3    3    0    0 -0.70848080981E+01 -0.28861001637E+02 -0.29234463145E+02  0.41686997453E+02  0.00000000000E+00 0.  1.
</event>
<event>
 7    1  0.4237994E-013  0.5930195E+02  0.7816164E-02  0.1266605E+00
        -11   -1    0    0    0    0  0.00000000000E+00  0.00000000000E+00  0.45593999997E+02  0.45594000000E+02  0.51100000000E-03 0. -1.
         11   -1    0    0    0    0 -0.00000000000E+00 -0.00000000000E+00 -0.45593999997E+02  0.45594000000E+02  0.51100000000E-03 0.  1.
    9900012    2    1    2    0    0 -0.19435900672E+02  0.19158409190E+02 -0.16490039850E+02  0.59301948318E+02  0.50000007824E+02 0.  0.
         12    1    1    2    0    0  0.19435900672E+02 -0.19158409190E+02  0.16490039850E+02  0.31886051682E+02  0.00000000000E+00 0. -1.
         11    1    3    3    0    0  0.57228997617E+01  0.71388457582E+01  0.94144968836E+01  0.13128116859E+02  0.51100000000E-03 0. -1.
        -11    1    3    3    0    0 -0.30394256635E+02  0.10566546080E+02 -0.24807213596E+02  0.40630783639E+02  0.51100000000E-03 0.  1.
        -12    1    3    3    0    0  0.52354562011E+01  0.14530173516E+01 -0.10973231375E+01  0.55430478192E+01  0.00000000000E+00 0.  1.
</event>
<event>
 7    1  0.4237994E-013  0.5930193E+02  0.7816164E-02  0.1266605E+00
        -11   -1    0    0    0    0  0.00000000000E+00  0.00000000000E+00  0.45593999997E+02  0.45594000000E+02  0.51100000000E-03 0. -1.
         11   -1    0    0    0    0 -0.00000000000E+00 -0.00000000000E+00 -0.45593999997E+02  0.45594000000E+02  0.51100000000E-03 0.  1.
    9900012    2    1    2    0    0 -0.86548359251E+00 -0.31580380922E+02 -0.43188128488E+01  0.59301926779E+02  0.49999968542E+02 0.  0.
         12    1    1    2    0    0  0.86548359251E+00  0.31580380922E+02  0.43188128488E+01  0.31886073221E+02  0.00000000000E+00 0. -1.
         11    1    3    3    0    0  0.14821854841E+02  0.59740025409E+00 -0.61340888295E+01  0.16052143596E+02  0.51100000000E-03 0. -1.
        -11    1    3    3    0    0 -0.13573371099E+02 -0.23335324473E+02  0.12047410328E+02  0.29562034218E+02  0.51100000000E-03 0.  1.
         12    1    3    3    0    0 -0.21139673343E+01 -0.88424567030E+01 -0.10232134347E+02  0.13687748965E+02  0.00000000000E+00 0. -1.
</event>
<event>
 7    1  0.4237994E-013  0.5930194E+02  0.7816164E-02  0.1266605E+00
        -11   -1    0    0    0    0  0.00000000000E+00  0.00000000000E+00  0.45593999997E+02  0.45594000000E+02  0.51100000000E-03 0.  1.
         11   -1    0    0    0    0 -0.00000000000E+00 -0.00000000000E+00 -0.45593999997E+02  0.45594000000E+02  0.51100000000E-03 0. -1.
    9900012    2    1    2    0    0 -0.20983026936E+02 -0.14373765898E+02  0.19230920140E+02  0.59301939489E+02  0.49999991723E+02 0.  0.
         12    1    1    2    0    0  0.20983026936E+02  0.14373765898E+02 -0.19230920140E+02  0.31886060511E+02  0.00000000000E+00 0. -1.
         11    1    3    3    0    0  0.26466465473E+01  0.13816397367E+02  0.10117878386E+02  0.17328272777E+02  0.51100000000E-03 0. -1.
        -11    1    3    3    0    0 -0.15328197960E+01 -0.14782720596E+02  0.56351308001E+01  0.15894435005E+02  0.51100000000E-03 0.  1.
         12    1    3    3    0    0 -0.22096853687E+02 -0.13407442669E+02  0.34779109531E+01  0.26079231706E+02  0.00000000000E+00 0. -1.
</event>
<event>
 7    1  0.4237994E-013  0.5930197E+02  0.7816164E-02  0.1266605E+00
        -11   -1    0    0    0    0  0.00000000000E+00  0.00000000000E+00  0.45593999997E+02  0.45594000000E+02  0.51100000000E-03 0.  1.
         11   -1    0    0    0    0 -0.00000000000E+00 -0.00000000000E+00 -0.45593999997E+02  0.45594000000E+02  0.51100000000E-03 0. -1.
    9900012    2    1    2    0    0  0.43275126328E+01 -0.29610532066E+01  0.31451931085E+02  0.59301965900E+02  0.50000039889E+02 0.  0.
         12    1    1    2    0    0 -0.43275126328E+01  0.29610532066E+01 -0.31451931085E+02  0.31886034100E+02  0.00000000000E+00 0. -1.
         11    1    3    3    0    0  0.41248289542E+01  0.48152333132E+01  0.55391036509E+01  0.84191659491E+01  0.51100000000E-03 0. -1.
        -11    1    3    3    0    0  0.17574827860E+02 -0.12817905086E+02  0.34217021742E+01  0.22020020689E+02  0.51100000000E-03 0.  1.
        -12    1    3    3    0    0 -0.17372144182E+02  0.50416185667E+01  0.22491125260E+02  0.28862779261E+02  0.00000000000E+00 0.  1.
</event>
<event>
 7    1  0.4237994E-013  0.5930194E+02  0.7816164E-02  0.1266605E+00
        -11   -1    0    0    0    0  0.00000000000E+00  0.00000000000E+00  0.45593999997E+02  0.45594000000E+02  0.51100000000E-03 0.  1.
         11   -1    0    0    0    0 -0.00000000000E+00 -0.00000000000E+00 -0.45593999997E+02  0.45594000000E+02  0.51100000000E-03 0. -1.
    9900012    2    1    2    0    0 -0.20796369216E+02 -0.12613225879E+02  0.20618884367E+02  0.59301939846E+02  0.49999992373E+02 0.  0.
         12    1    1    2    0    0  0.20796369216E+02  0.12613225879E+02 -0.20618884367E+02  0.31886060154E+02  0.00000000000E+00 0. -1.
         11    1    3    3    0    0 -0.20087929100E+02  0.41039172599E+01 -0.37912079991E+01  0.20850426632E+02  0.51100000000E-03 0. -1.
        -11    1    3    3    0    0 -0.10818825894E+02 -0.16079004503E+02  0.13866767668E+02  0.23829994238E+02  0.51100000000E-03 0.  1.
        -12    1    3    3    0    0  0.10110385777E+02 -0.63813863534E+00  0.10543324697E+02  0.14621518976E+02  0.00000000000E+00 0.  1.
</event>
<event>
 7    1  0.4237994E-013  0.5930178E+02  0.7816164E-02  0.1266605E+00
        -11   -1    0    0    0    0  0.00000000000E+00  0.00000000000E+00  0.45593999997E+02  0.45594000000E+02  0.51100000000E-03 0.  1.
         11   -1    0    0    0    0 -0.00000000000E+00 -0.00000000000E+00 -0.45593999997E+02  0.45594000000E+02  0.51100000000E-03 0. -1.
    9900012    2    1    2    0    0 -0.23551446031E+02  0.13857338173E+02  0.16432734822E+02  0.59301777189E+02  0.49999695726E+02 0.  0.
         12    1    1    2    0    0  0.23551446031E+02 -0.13857338173E+02 -0.16432734822E+02  0.31886222811E+02  0.00000000000E+00 0. -1.
         11    1    3    3    0    0  0.27861246251E+01  0.26431390555E+02  0.69870520581E+01  0.27480898709E+02  0.51100000000E-03 0. -1.
        -11    1    3    3    0    0 -0.53896064270E+01 -0.49490416735E+01  0.55653070880E+01  0.91931231999E+01  0.51100000000E-03 0.  1.
         12    1    3    3    0    0 -0.20947964229E+02 -0.76250107086E+01  0.38803756759E+01  0.22627755281E+02  0.00000000000E+00 0. -1.
</event>
<event>
 7    1  0.4237994E-013  0.5930193E+02  0.7816164E-02  0.1266605E+00
        -11   -1    0    0    0    0  0.00000000000E+00  0.00000000000E+00  0.45593999997E+02  0.45594000000E+02  0.51100000000E-03 0.  1.
         11   -1    0    0    0    0 -0.00000000000E+00 -0.00000000000E+00 -0.45593999997E+02  0.45594000000E+02  0.51100000000E-03 0. -1.
    9900012    2    1    2    0    0 -0.33870746447E+01  0.30849186049E+02  0.73196147904E+01  0.59301932271E+02  0.49999978559E+02 0.  0.
         12    1    1    2    0    0  0.33870746447E+01 -0.30849186049E+02 -0.73196147904E+01  0.31886067729E+02  0.00000000000E+00 0. -1.
         11    1    3    3    0    0 -0.83278667724E+00 -0.27989372569E+01 -0.15047527925E+02  0.15328264100E+02  0.51100000000E-03 0. -1.
        -11    1    3    3    0    0 -0.12059192659E+01  0.23474345304E+02  0.23987023720E+02  0.33583871664E+02  0.51100000000E-03 0.  1.
        -12    1    3    3    0    0 -0.13483687016E+01  0.10173778002E+02 -0.16198810049E+01  0.10389796507E+02  0.00000000000E+00 0.  1.
</event>
<event>
 7    1  0.4237994E-013  0.5930193E+02  0.7816164E-02  0.1266605E+00
        -11   -1    0    0    0    0  0.00000000000E+00  0.00000000000E+00  0.45593999997E+02  0.45594000000E+02  0.51100000000E-03 0. -1.
         11   -1    0    0    0    0 -0.00000000000E+00 -0.00000000000E+00 -0.45593999997E+02  0.45594000000E+02  0.51100000000E-03 0.  1.
    9900012    2    1    2    0    0  0.25937802291E+02  0.16699234778E+02 -0.80676794935E+01  0.59301929652E+02  0.49999973782E+02 0.  0.
         12    1    1    2    0    0 -0.25937802291E+02 -0.16699234778E+02  0.80676794935E+01  0.31886070348E+02  0.00000000000E+00 0. -1.
         11    1    3    3    0    0  0.23686458433E+01  0.34690713510E+01  0.28285307772E+01  0.50641411698E+01  0.51100000000E-03 0. -1.
        -11    1    3    3    0    0  0.26337145173E+02  0.22355245761E+02 -0.20933369633E+02  0.40393170132E+02  0.51100000000E-03 0.  1.
        -12    1    3    3    0    0 -0.27679887256E+01 -0.91250823337E+01  0.10037159363E+02  0.13844618350E+02  0.00000000000E+00 0.  1.
</event>
<event>
 7    1  0.4237994E-013  0.5930190E+02  0.7816164E-02  0.1266605E+00
        -11   -1    0    0    0    0  0.00000000000E+00  0.00000000000E+00  0.45593999997E+02  0.45594000000E+02  0.51100000000E-03 0.  1.
         11   -1    0    0    0    0 -0.00000000000E+00 -0.00000000000E+00 -0.45593999997E+02  0.45594000000E+02  0.51100000000E-03 0. -1.
    9900012    2    1    2    0    0  0.23092078343E+01  0.24005217642E+02  0.20860024942E+02  0.59301897143E+02  0.49999914493E+02 0.  0.
         12    1    1    2    0    0 -0.23092078343E+01 -0.24005217642E+02 -0.20860024942E+02  0.31886102857E+02  0.00000000000E+00 0. -1.
         11    1    3    3    0    0 -0.54988242927E+01  0.13151980530E+02 -0.12424293049E+02  0.18909646176E+02  0.51100000000E-03 0. -1.
        -11    1    3    3    0    0  0.12113899658E+02  0.18489071775E+01  0.13495877707E+02  0.18229200148E+02  0.51100000000E-03 0.  1.
         12    1    3    3    0    0 -0.43058675308E+01  0.90043299343E+01  0.19788440284E+02  0.22163050819E+02  0.00000000000E+00 0. -1.
</event>
<event>
 7    1  0.4237994E-013  0.5930189E+02  0.7816164E-02  0.1266605E+00
        -11   -1    0    0    0    0  0.00000000000E+00  0.00000000000E+00  0.45593999997E+02  0.45594000000E+02  0.51100000000E-03 0.  1.
         11   -1    0    0    0    0 -0.00000000000E+00 -0.00000000000E+00 -0.45593999997E+02  0.45594000000E+02  0.51100000000E-03 0. -1.
    9900012    2    1    2    0    0 -0.50587737247E+01  0.21518497920E+01  0.31408630295E+02  0.59301894779E+02  0.49999910182E+02 0.  0.
         12    1    1    2    0    0  0.50587737247E+01 -0.21518497920E+01 -0.31408630295E+02  0.31886105221E+02  0.00000000000E+00 0. -1.
         11    1    3    3    0    0  0.16839874550E+02  0.10042109553E+02  0.15191536814E+01  0.19665532469E+02  0.51100000000E-03 0. -1.
        -11    1    3    3    0    0 -0.46905595087E+01 -0.63526462309E+01  0.14446148934E+02  0.16463556174E+02  0.51100000000E-03 0.  1.
         12    1    3    3    0    0 -0.17208088766E+02 -0.15376135297E+01  0.15443327680E+02  0.23172806135E+02  0.00000000000E+00 0. -1.
</event>
<event>
 7    1  0.4237994E-013  0.5930194E+02  0.7816164E-02  0.1266605E+00
        -11   -1    0    0    0    0  0.00000000000E+00  0.00000000000E+00  0.45593999997E+02  0.45594000000E+02  0.51100000000E-03 0.  1.
         11   -1    0    0    0    0 -0.00000000000E+00 -0.00000000000E+00 -0.45593999997E+02  0.45594000000E+02  0.51100000000E-03 0. -1.
    9900012    2    1    2    0    0 -0.59789282222E+01 -0.15844872661E+02  0.27016903282E+02  0.59301942933E+02  0.49999998003E+02 0.  0.
         12    1    1    2    0    0  0.59789282222E+01  0.15844872661E+02 -0.27016903282E+02  0.31886057067E+02  0.00000000000E+00 0. -1.
         11    1    3    3    0    0 -0.18852031545E+02 -0.42695407863E+01  0.28197259077E+01  0.19534045315E+02  0.51100000000E-03 0. -1.
        -11    1    3    3    0    0  0.99615731224E+01 -0.11296536585E+02  0.29832420457E+02  0.33418826857E+02  0.51100000000E-03 0.  1.
         12    1    3    3    0    0  0.29115302007E+01 -0.27879529051E+00 -0.56352430828E+01  0.63490707608E+01  0.00000000000E+00 0. -1.
</event>
<event>
 7    1  0.4237994E-013  0.5930197E+02  0.7816164E-02  0.1266605E+00
        -11   -1    0    0    0    0  0.00000000000E+00  0.00000000000E+00  0.45593999997E+02  0.45594000000E+02  0.51100000000E-03 0.  1.
         11   -1    0    0    0    0 -0.00000000000E+00 -0.00000000000E+00 -0.45593999997E+02  0.45594000000E+02  0.51100000000E-03 0. -1.
    9900012    2    1    2    0    0  0.21442978018E+02 -0.20848389881E+02  0.11057227369E+02  0.59301969454E+02  0.50000046371E+02 0.  0.
         12    1    1    2    0    0 -0.21442978018E+02  0.20848389881E+02 -0.11057227369E+02  0.31886030546E+02  0.00000000000E+00 0. -1.
         11    1    3    3    0    0 -0.71353304389E+01 -0.16311907528E+02 -0.51343044249E+01  0.18529769288E+02  0.51100000000E-03 0. -1.
        -11    1    3    3    0    0  0.23363880923E+02 -0.13534012692E+02  0.11099444878E+02  0.29193117479E+02  0.51100000000E-03 0.  1.
         12    1    3    3    0    0  0.52144275343E+01  0.89975303388E+01  0.50920869161E+01  0.11579082687E+02  0.00000000000E+00 0. -1.
</event>
<event>
 7    1  0.4237994E-013  0.5930206E+02  0.7816164E-02  0.1266604E+00
        -11   -1    0    0    0    0  0.00000000000E+00  0.00000000000E+00  0.45593999997E+02  0.45594000000E+02  0.51100000000E-03 0.  1.
         11   -1    0    0    0    0 -0.00000000000E+00 -0.00000000000E+00 -0.45593999997E+02  0.45594000000E+02  0.51100000000E-03 0. -1.
    9900012    2    1    2    0    0  0.11776857134E+02  0.17697828639E+02  0.23765635360E+02  0.59302063812E+02  0.50000218458E+02 0.  0.
         12    1    1    2    0    0 -0.11776857134E+02 -0.17697828639E+02 -0.23765635360E+02  0.31885936188E+02  0.00000000000E+00 0. -1.
         11    1    3    3    0    0 -0.58564214302E+01  0.24140402806E+02  0.18532517638E+02  0.30992110768E+02  0.51100000000E-03 0. -1.
        -11    1    3    3    0    0  0.55658106606E+01 -0.12908564460E+02  0.36833322863E+01  0.14531903582E+02  0.51100000000E-03 0.  1.
        -12    1    3    3    0    0  0.12067467903E+02  0.64659902935E+01  0.15497854361E+01  0.13778049462E+02  0.00000000000E+00 0.  1.
</event>
<event>
 7    1  0.4237994E-013  0.5930185E+02  0.7816164E-02  0.1266605E+00
        -11   -1    0    0    0    0  0.00000000000E+00  0.00000000000E+00  0.45593999997E+02  0.45594000000E+02  0.51100000000E-03 0.  1.
         11   -1    0    0    0    0 -0.00000000000E+00 -0.00000000000E+00 -0.45593999997E+02  0.45594000000E+02  0.51100000000E-03 0. -1.
    9900012    2    1    2    0    0 -0.91694522224E+01 -0.20747234991E+02  0.22409811255E+02  0.59301854822E+02  0.49999837310E+02 0.  0.
         12    1    1    2    0    0  0.91694522224E+01  0.20747234991E+02 -0.22409811255E+02  0.31886145178E+02  0.00000000000E+00 0. -1.
         11    1    3    3    0    0  0.84352892642E+01 -0.85297404728E+01 -0.10678258124E+02  0.16060379022E+02  0.51100000000E-03 0. -1.
        -11    1    3    3    0    0 -0.12566595657E+02 -0.16818479142E+02  0.24232925060E+02  0.32062676499E+02  0.51100000000E-03 0.  1.
         12    1    3    3    0    0 -0.50381458298E+01  0.46009846239E+01  0.88551443192E+01  0.11178799302E+02  0.00000000000E+00 0. -1.
</event>
<event>
 7    1  0.4237994E-013  0.5930193E+02  0.7816164E-02  0.1266605E+00
        -11   -1    0    0    0    0  0.00000000000E+00  0.00000000000E+00  0.45593999997E+02  0.45594000000E+02  0.51100000000E-03 0. -1.
         11   -1    0    0    0    0 -0.00000000000E+00 -0.00000000000E+00 -0.45593999997E+02  0.45594000000E+02  0.51100000000E-03 0.  1.
    9900012    2    1    2    0    0 -0.21453900522E+02 -0.21457737726E+02 -0.97988185323E+01  0.59301934069E+02  0.49999981838E+02 0.  0.
         12    1    1    2    0    0  0.21453900522E+02  0.21457737726E+02  0.97988185323E+01  0.31886065931E+02  0.00000000000E+00 0. -1.
         11    1    3    3    0    0 -0.81844422761E+01  0.13719162837E+02 -0.78721508826E+01  0.17809303302E+02  0.51100000000E-03 0.  1.
        -11    1    3    3    0    0 -0.29338723267E+01 -0.13606389882E+02  0.74667846814E+01  0.15795389396E+02  0.51100000000E-03 0. -1.
         12    1    3    3    0    0 -0.10335585919E+02 -0.21570510682E+02 -0.93934523311E+01  0.25697241371E+02  0.00000000000E+00 0. -1.
</event>
<event>
 7    1  0.4237994E-013  0.5930197E+02  0.7816164E-02  0.1266605E+00
        -11   -1    0    0    0    0  0.00000000000E+00  0.00000000000E+00  0.45593999997E+02  0.45594000000E+02  0.51100000000E-03 0.  1.
         11   -1    0    0    0    0 -0.00000000000E+00 -0.00000000000E+00 -0.45593999997E+02  0.45594000000E+02  0.51100000000E-03 0. -1.
    9900012    2    1    2    0    0  0.31352341242E+02  0.35174990745E+01 -0.46235346555E+01  0.59301965851E+02  0.50000039800E+02 0.  0.
         12    1    1    2    0    0 -0.31352341242E+02 -0.35174990745E+01  0.46235346555E+01  0.31886034149E+02  0.00000000000E+00 0. -1.
         11    1    3    3    0    0  0.23925230697E+02 -0.18695311629E+02 -0.13611813694E+02  0.33274807484E+02  0.51100000000E-03 0. -1.
        -11    1    3    3    0    0  0.33469009966E+01  0.18626673797E+02  0.77829516716E+01  0.20462870278E+02  0.51100000000E-03 0.  1.
         12    1    3    3    0    0  0.40802095483E+01  0.35861369065E+01  0.12053273664E+01  0.55642880884E+01  0.00000000000E+00 0. -1.
</event>
<event>
 7    1  0.4237994E-013  0.5930195E+02  0.7816164E-02  0.1266605E+00
        -11   -1    0    0    0    0  0.00000000000E+00  0.00000000000E+00  0.45593999997E+02  0.45594000000E+02  0.51100000000E-03 0. -1.
         11   -1    0    0    0    0 -0.00000000000E+00 -0.00000000000E+00 -0.45593999997E+02  0.45594000000E+02  0.51100000000E-03 0.  1.
    9900012    2    1    2    0    0  0.13016426659E+02 -0.27806983392E+02 -0.86060883809E+01  0.59301945909E+02  0.50000003430E+02 0.  0.
         12    1    1    2    0    0 -0.13016426659E+02  0.27806983392E+02  0.86060883809E+01  0.31886054091E+02  0.00000000000E+00 0. -1.
         11    1    3    3    0    0  0.80715129702E+01 -0.12911576774E+02 -0.28733019875E+02  0.32518372773E+02  0.51100000000E-03 0. -1.
        -11    1    3    3    0    0  0.24057073449E+00 -0.33166098008E+01  0.10481761448E+02  0.10996594844E+02  0.51100000000E-03 0.  1.
         12    1    3    3    0    0  0.47043429540E+01 -0.11578796817E+02  0.96451700462E+01  0.15786978291E+02  0.00000000000E+00 0. -1.
</event>
<event>
 7    1  0.4237994E-013  0.5930195E+02  0.7816164E-02  0.1266605E+00
        -11   -1    0    0    0    0  0.00000000000E+00  0.00000000000E+00  0.45593999997E+02  0.45594000000E+02  0.51100000000E-03 0. -1.
         11   -1    0    0    0    0 -0.00000000000E+00 -0.00000000000E+00 -0.45593999997E+02  0.45594000000E+02  0.51100000000E-03 0.  1.
    9900012    2    1    2    0    0 -0.35469842072E-01  0.24413609672E+02 -0.20510833674E+02  0.59301954567E+02  0.50000019222E+02 0.  0.
         12    1    1    2    0    0  0.35469842072E-01 -0.24413609672E+02  0.20510833674E+02  0.31886045433E+02  0.00000000000E+00 0. -1.
         11    1    3    3    0    0 -0.47526983191E+01  0.21154860964E+02 -0.95183925128E+00  0.21703047757E+02  0.51100000000E-03 0. -1.
        -11    1    3    3    0    0 -0.93342369163E+01  0.16554102308E+01 -0.21333908961E+02  0.23345321451E+02  0.51100000000E-03 0.  1.
         12    1    3    3    0    0  0.14051465393E+02  0.16033384772E+01  0.17749145383E+01  0.14253585359E+02  0.00000000000E+00 0. -1.
</event>
<event>
 7    1  0.4237994E-013  0.5930197E+02  0.7816164E-02  0.1266605E+00
        -11   -1    0    0    0    0  0.00000000000E+00  0.00000000000E+00  0.45593999997E+02  0.45594000000E+02  0.51100000000E-03 0.  1.
         11   -1    0    0    0    0 -0.00000000000E+00 -0.00000000000E+00 -0.45593999997E+02  0.45594000000E+02  0.51100000000E-03 0. -1.
    9900012    2    1    2    0    0 -0.30251054611E+02 -0.27462588863E+01  0.96979786405E+01  0.59301968064E+02  0.50000043836E+02 0.  0.
         12    1    1    2    0    0  0.30251054611E+02  0.27462588863E+01 -0.96979786405E+01  0.31886031936E+02  0.00000000000E+00 0. -1.
         11    1    3    3    0    0 -0.93052855785E+01 -0.65743540481E+01 -0.12594595748E+02  0.16983354002E+02  0.51100000000E-03 0. -1.
        -11    1    3    3    0    0 -0.10463625731E+02  0.55326774309E+01  0.27901716276E+02  0.30308476609E+02  0.51100000000E-03 0.  1.
        -12    1    3    3    0    0 -0.10482143301E+02 -0.17045822690E+01 -0.56091418871E+01  0.12010137452E+02  0.00000000000E+00 0.  1.
</event>
<event>
 7    1  0.4237994E-013  0.5930197E+02  0.7816164E-02  0.1266605E+00
        -11   -1    0    0    0    0  0.00000000000E+00  0.00000000000E+00  0.45593999997E+02  0.45594000000E+02  0.51100000000E-03 0.  1.
         11   -1    0    0    0    0 -0.00000000000E+00 -0.00000000000E+00 -0.45593999997E+02  0.45594000000E+02  0.51100000000E-03 0. -1.
    9900012    2    1    2    0    0  0.21432246977E+02 -0.12687319697E+02  0.19910037861E+02  0.59301970156E+02  0.50000047651E+02 0.  0.
         12    1    1    2    0    0 -0.21432246977E+02  0.12687319697E+02 -0.19910037861E+02  0.31886029844E+02  0.00000000000E+00 0. -1.
         11    1    3    3    0    0  0.17278790134E+01  0.48095214673E+01 -0.31843816360E+00  0.51203970309E+01  0.51100000000E-03 0. -1.
        -11    1    3    3    0    0  0.26704016735E+02 -0.19845164761E+02  0.27983378305E+02  0.43474182406E+02  0.51100000000E-03 0.  1.
        -12    1    3    3    0    0 -0.69996487713E+01  0.23483235969E+01 -0.77549022803E+01  0.10707390719E+02  0.00000000000E+00 0.  1.
</event>
<event>
 7    1  0.4237994E-013  0.5930182E+02  0.7816164E-02  0.1266605E+00
        -11   -1    0    0    0    0  0.00000000000E+00  0.00000000000E+00  0.45593999997E+02  0.45594000000E+02  0.51100000000E-03 0. -1.
         11   -1    0    0    0    0 -0.00000000000E+00 -0.00000000000E+00 -0.45593999997E+02  0.45594000000E+02  0.51100000000E-03 0.  1.
    9900012    2    1    2    0    0 -0.92825187390E+01 -0.17570969439E+02 -0.24936409775E+02  0.59301817198E+02  0.49999768693E+02 0.  0.
         12    1    1    2    0    0  0.92825187390E+01  0.17570969439E+02  0.24936409775E+02  0.31886182802E+02  0.00000000000E+00 0. -1.
         11    1    3    3    0    0  0.91143881408E+01 -0.52021710487E+01  0.13382313839E+01  0.10579485729E+02  0.51100000000E-03 0.  1.
        -11    1    3    3    0    0 -0.24584310820E+02 -0.38970515379E+01 -0.55629298097E+01  0.25505323709E+02  0.51100000000E-03 0. -1.
        -12    1    3    3    0    0  0.61874039404E+01 -0.84717468528E+01 -0.20711711350E+02  0.23217007759E+02  0.00000000000E+00 0.  1.
</event>
<event>
 7    1  0.4237994E-013  0.5930194E+02  0.7816164E-02  0.1266605E+00
        -11   -1    0    0    0    0  0.00000000000E+00  0.00000000000E+00  0.45593999997E+02  0.45594000000E+02  0.51100000000E-03 0. -1.
         11   -1    0    0    0    0 -0.00000000000E+00 -0.00000000000E+00 -0.45593999997E+02  0.45594000000E+02  0.51100000000E-03 0.  1.
    9900012    2    1    2    0    0  0.15676000008E+02  0.15379224996E+02 -0.23118460842E+02  0.59301940829E+02  0.49999994166E+02 0.  0.
         12    1    1    2    0    0 -0.15676000008E+02 -0.15379224996E+02  0.23118460842E+02  0.31886059171E+02  0.00000000000E+00 0. -1.
         11    1    3    3    0    0 -0.76364311677E+00  0.10435436427E+02 -0.31979063439E+02  0.33647317618E+02  0.51100000000E-03 0.  1.
        -11    1    3    3    0    0  0.11427392704E+02  0.10535757561E+02  0.23578365228E+01  0.15720905977E+02  0.51100000000E-03 0. -1.
         12    1    3    3    0    0  0.50122504206E+01 -0.55919689916E+01  0.65027660734E+01  0.99337172341E+01  0.00000000000E+00 0. -1.
</event>
<event>
 7    1  0.4237994E-013  0.5930195E+02  0.7816164E-02  0.1266605E+00
        -11   -1    0    0    0    0  0.00000000000E+00  0.00000000000E+00  0.45593999997E+02  0.45594000000E+02  0.51100000000E-03 0. -1.
         11   -1    0    0    0    0 -0.00000000000E+00 -0.00000000000E+00 -0.45593999997E+02  0.45594000000E+02  0.51100000000E-03 0.  1.
    9900012    2    1    2    0    0  0.34400364900E+01  0.17312327150E+02 -0.26555035938E+02  0.59301945743E+02  0.50000003128E+02 0.  0.
         12    1    1    2    0    0 -0.34400364900E+01 -0.17312327150E+02  0.26555035938E+02  0.31886054257E+02  0.00000000000E+00 0. -1.
         11    1    3    3    0    0 -0.12063333128E+01  0.32296555971E+02 -0.11255202306E+02  0.34222833706E+02  0.51100000000E-03 0. -1.
        -11    1    3    3    0    0 -0.35450113399E+01 -0.12278978156E+01 -0.19225153489E+01  0.42155550019E+01  0.51100000000E-03 0.  1.
         12    1    3    3    0    0  0.81913811427E+01 -0.13756331005E+02 -0.13377318283E+02  0.20863557035E+02  0.00000000000E+00 0. -1.
</event>
<event>
 7    1  0.4237994E-013  0.5930196E+02  0.7816164E-02  0.1266605E+00
        -11   -1    0    0    0    0  0.00000000000E+00  0.00000000000E+00  0.45593999997E+02  0.45594000000E+02  0.51100000000E-03 0.  1.
         11   -1    0    0    0    0 -0.00000000000E+00 -0.00000000000E+00 -0.45593999997E+02  0.45594000000E+02  0.51100000000E-03 0. -1.
    9900012    2    1    2    0    0 -0.25491013884E+02 -0.14602930905E+02  0.12396867413E+02  0.59301957575E+02  0.50000024707E+02 0.  0.
         12    1    1    2    0    0  0.25491013884E+02  0.14602930905E+02 -0.12396867413E+02  0.31886042425E+02  0.00000000000E+00 0. -1.
         11    1    3    3    0    0 -0.63114347961E+01 -0.18218219901E+02  0.21482903921E+02  0.28866120395E+02  0.51100000000E-03 0. -1.
        -11    1    3    3    0    0 -0.18642750779E+02 -0.58259168401E+01 -0.70297802308E+01  0.20758402492E+02  0.51100000000E-03 0.  1.
        -12    1    3    3    0    0 -0.53682830894E+00  0.94412058356E+01 -0.20562562775E+01  0.96774346880E+01  0.00000000000E+00 0.  1.
</event>
<event>
 7    1  0.4237994E-013  0.5930194E+02  0.7816164E-02  0.1266605E+00
        -11   -1    0    0    0    0  0.00000000000E+00  0.00000000000E+00  0.45593999997E+02  0.45594000000E+02  0.51100000000E-03 0.  1.
         11   -1    0    0    0    0 -0.00000000000E+00 -0.00000000000E+00 -0.45593999997E+02  0.45594000000E+02  0.51100000000E-03 0. -1.
    9900012    2    1    2    0    0 -0.10725338412E+02 -0.27495817740E+02  0.12069301047E+02  0.59301938704E+02  0.49999990291E+02 0.  0.
         12    1    1    2    0    0  0.10725338412E+02  0.27495817740E+02 -0.12069301047E+02  0.31886061296E+02  0.00000000000E+00 0. -1.
         11    1    3    3    0    0 -0.15784874815E+02  0.36735696348E+01  0.19687447691E+02  0.25500058503E+02  0.51100000000E-03 0. -1.
        -11    1    3    3    0    0  0.46782167257E+01 -0.80553942889E+01  0.42626303820E+00  0.93250624299E+01  0.51100000000E-03 0.  1.
         12    1    3    3    0    0  0.38131967798E+00 -0.23113993086E+02 -0.80444096825E+01  0.24476817771E+02  0.00000000000E+00 0. -1.
</event>
<event>
 7    1  0.4237994E-013  0.5930198E+02  0.7816164E-02  0.1266605E+00
        -11   -1    0    0    0    0  0.00000000000E+00  0.00000000000E+00  0.45593999997E+02  0.45594000000E+02  0.51100000000E-03 0.  1.
         11   -1    0    0    0    0 -0.00000000000E+00 -0.00000000000E+00 -0.45593999997E+02  0.45594000000E+02  0.51100000000E-03 0. -1.
    9900012    2    1    2    0    0 -0.31242907859E+02 -0.60253523247E+01 -0.20722827769E+01  0.59301976134E+02  0.50000058553E+02 0.  0.
         12    1    1    2    0    0  0.31242907859E+02  0.60253523247E+01  0.20722827769E+01  0.31886023866E+02  0.00000000000E+00 0. -1.
         11    1    3    3    0    0 -0.11730730441E+02 -0.10662531018E+02 -0.10894301070E+02  0.19235004561E+02  0.51100000000E-03 0. -1.
        -11    1    3    3    0    0  0.30979107223E+01  0.78355616273E+01  0.14287419225E+02  0.16586844945E+02  0.51100000000E-03 0.  1.
        -12    1    3    3    0    0 -0.22610088140E+02 -0.31983829340E+01 -0.54654009325E+01  0.23480126628E+02  0.00000000000E+00 0.  1.
</event>
<event>
 7    1  0.4237994E-013  0.5930195E+02  0.7816164E-02  0.1266605E+00
        -11   -1    0    0    0    0  0.00000000000E+00  0.00000000000E+00  0.45593999997E+02  0.45594000000E+02  0.51100000000E-03 0.  1.
         11   -1    0    0    0    0 -0.00000000000E+00 -0.00000000000E+00 -0.45593999997E+02  0.45594000000E+02  0.51100000000E-03 0. -1.
    9900012    2    1    2    0    0 -0.24111258315E+02  0.14689801458E+02  0.14818145364E+02  0.59301945424E+02  0.50000002547E+02 0.  0.
         12    1    1    2    0    0  0.24111258315E+02 -0.14689801458E+02 -0.14818145364E+02  0.31886054576E+02  0.00000000000E+00 0. -1.
         11    1    3    3    0    0 -0.12431684159E+01  0.16613127400E+02  0.16710851910E+02  0.23596483669E+02  0.51100000000E-03 0. -1.
        -11    1    3    3    0    0 -0.22493499315E+02 -0.48280892850E+01 -0.11458415384E+02  0.25701424882E+02  0.51100000000E-03 0.  1.
        -12    1    3    3    0    0 -0.37459058361E+00  0.29047633429E+01  0.95657088380E+01  0.10004036873E+02  0.00000000000E+00 0.  1.
</event>
<event>
 7    1  0.4237994E-013  0.5930194E+02  0.7816164E-02  0.1266605E+00
        -11   -1    0    0    0    0  0.00000000000E+00  0.00000000000E+00  0.45593999997E+02  0.45594000000E+02  0.51100000000E-03 0. -1.
         11   -1    0    0    0    0 -0.00000000000E+00 -0.00000000000E+00 -0.45593999997E+02  0.45594000000E+02  0.51100000000E-03 0.  1.
    9900012    2    1    2    0    0 -0.19950820809E+02 -0.42698877387E+01 -0.24504158356E+02  0.59301937700E+02  0.49999988460E+02 0.  0.
         12    1    1    2    0    0  0.19950820809E+02  0.42698877387E+01  0.24504158356E+02  0.31886062300E+02  0.00000000000E+00 0. -1.
         11    1    3    3    0    0 -0.16080688799E+02 -0.12844963374E+02  0.89415598496E+01  0.22439543871E+02  0.51100000000E-03 0. -1.
        -11    1    3    3    0    0 -0.47894464984E+01 -0.57624759945E+00 -0.19988971789E+02  0.20562826958E+02  0.51100000000E-03 0.  1.
         12    1    3    3    0    0  0.91931448825E+00  0.91513232351E+01 -0.13456746416E+02  0.16299566871E+02  0.00000000000E+00 0. -1.
</event>
<event>
 7    1  0.4237994E-013  0.5930195E+02  0.7816164E-02  0.1266605E+00
        -11   -1    0    0    0    0  0.00000000000E+00  0.00000000000E+00  0.45593999997E+02  0.45594000000E+02  0.51100000000E-03 0.  1.
         11   -1    0    0    0    0 -0.00000000000E+00 -0.00000000000E+00 -0.45593999997E+02  0.45594000000E+02  0.51100000000E-03 0. -1.
    9900012    2    1    2    0    0 -0.18533130581E+02  0.25902465108E+02  0.15184043460E+01  0.59301950079E+02  0.50000011036E+02 0.  0.
         12    1    1    2    0    0  0.18533130581E+02 -0.25902465108E+02 -0.15184043460E+01  0.31886049921E+02  0.00000000000E+00 0. -1.
         11    1    3    3    0    0  0.43087149882E+01 -0.16134776762E+01  0.98205736493E+01  0.10844906737E+02  0.51100000000E-03 0. -1.
        -11    1    3    3    0    0 -0.17101899205E+02  0.14017720627E+02 -0.19907169092E+02  0.29753433911E+02  0.51100000000E-03 0.  1.
        -12    1    3    3    0    0 -0.57399463639E+01  0.13498222157E+02  0.11604999789E+02  0.18703609431E+02  0.00000000000E+00 0.  1.
</event>
<event>
 7    1  0.4237994E-013  0.5930193E+02  0.7816164E-02  0.1266605E+00
        -11   -1    0    0    0    0  0.00000000000E+00  0.00000000000E+00  0.45593999997E+02  0.45594000000E+02  0.51100000000E-03 0.  1.
         11   -1    0    0    0    0 -0.00000000000E+00 -0.00000000000E+00 -0.45593999997E+02  0.45594000000E+02  0.51100000000E-03 0. -1.
    9900012    2    1    2    0    0  0.22694431838E+02  0.16399910854E+02  0.15255392080E+02  0.59301932510E+02  0.49999978994E+02 0.  0.
         12    1    1    2    0    0 -0.22694431838E+02 -0.16399910854E+02 -0.15255392080E+02  0.31886067490E+02  0.00000000000E+00 0. -1.
         11    1    3    3    0    0  0.29160147677E+02  0.71411559518E+01  0.22317442920E+02  0.37408268867E+02  0.51100000000E-03 0.  1.
        -11    1    3    3    0    0 -0.68881581454E+01  0.12791243654E+02 -0.96965950768E+01  0.17466728177E+02  0.51100000000E-03 0. -1.
         12    1    3    3    0    0  0.42244230674E+00 -0.35324887524E+01  0.26345442366E+01  0.44269354663E+01  0.00000000000E+00 0. -1.
</event>
<event>
 7    1  0.4237994E-013  0.5930191E+02  0.7816164E-02  0.1266605E+00
        -11   -1    0    0    0    0  0.00000000000E+00  0.00000000000E+00  0.45593999997E+02  0.45594000000E+02  0.51100000000E-03 0.  1.
         11   -1    0    0    0    0 -0.00000000000E+00 -0.00000000000E+00 -0.45593999997E+02  0.45594000000E+02  0.51100000000E-03 0. -1.
    9900012    2    1    2    0    0  0.30309767088E+02 -0.86606873159E+01 -0.47993153518E+01  0.59301907207E+02  0.49999932848E+02 0.  0.
         12    1    1    2    0    0 -0.30309767088E+02  0.86606873159E+01  0.47993153518E+01  0.31886092793E+02  0.00000000000E+00 0. -1.
         11    1    3    3    0    0  0.23396587660E+01  0.11387856384E+02 -0.38364043865E+01  0.12242355780E+02  0.51100000000E-03 0. -1.
        -11    1    3    3    0    0 -0.22149502788E+01 -0.15276785278E+02 -0.50183036365E+01  0.16231744971E+02  0.51100000000E-03 0.  1.
        -12    1    3    3    0    0  0.30185058601E+02 -0.47717584216E+01  0.40553926711E+01  0.30827806456E+02  0.00000000000E+00 0.  1.
</event>
<event>
 7    1  0.4237994E-013  0.5930182E+02  0.7816164E-02  0.1266605E+00
        -11   -1    0    0    0    0  0.00000000000E+00  0.00000000000E+00  0.45593999997E+02  0.45594000000E+02  0.51100000000E-03 0. -1.
         11   -1    0    0    0    0 -0.00000000000E+00 -0.00000000000E+00 -0.45593999997E+02  0.45594000000E+02  0.51100000000E-03 0.  1.
    9900012    2    1    2    0    0 -0.12311028134E+02 -0.28814956259E+02 -0.59046882355E+01  0.59301820218E+02  0.49999774200E+02 0.  0.
         12    1    1    2    0    0  0.12311028134E+02  0.28814956259E+02  0.59046882355E+01  0.31886179782E+02  0.00000000000E+00 0. -1.
         11    1    3    3    0    0  0.14127208687E+01  0.88522210258E+01  0.24630910517E+01  0.92964732631E+01  0.51100000000E-03 0. -1.
        -11    1    3    3    0    0 -0.40996749737E+00 -0.28858989714E+02  0.48663910234E+01  0.29269286334E+02  0.51100000000E-03 0.  1.
         12    1    3    3    0    0 -0.13313781506E+02 -0.88081875714E+01 -0.13234170311E+02  0.20736060621E+02  0.00000000000E+00 0. -1.
</event>
<event>
 7    1  0.4237994E-013  0.5930197E+02  0.7816164E-02  0.1266605E+00
        -11   -1    0    0    0    0  0.00000000000E+00  0.00000000000E+00  0.45593999997E+02  0.45594000000E+02  0.51100000000E-03 0. -1.
         11   -1    0    0    0    0 -0.00000000000E+00 -0.00000000000E+00 -0.45593999997E+02  0.45594000000E+02  0.51100000000E-03 0.  1.
    9900012    2    1    2    0    0 -0.11575109748E+02 -0.18866090475E+02 -0.22952269753E+02  0.59301965090E+02  0.50000038412E+02 0.  0.
         12    1    1    2    0    0  0.11575109748E+02  0.18866090475E+02  0.22952269753E+02  0.31886034910E+02  0.00000000000E+00 0. -1.
         11    1    3    3    0    0  0.48346883682E+01  0.10145038008E+02 -0.12466925341E+02  0.16784523691E+02  0.51100000000E-03 0. -1.
        -11    1    3    3    0    0 -0.18900859150E+02 -0.24265551309E+02 -0.18416793382E-01  0.30758085058E+02  0.51100000000E-03 0.  1.
        -12    1    3    3    0    0  0.24910610342E+01 -0.47455771737E+01 -0.10466927619E+02  0.11759356341E+02  0.00000000000E+00 0.  1.
</event>
<event>
 7    1  0.4237994E-013  0.5930193E+02  0.7816164E-02  0.1266605E+00
        -11   -1    0    0    0    0  0.00000000000E+00  0.00000000000E+00  0.45593999997E+02  0.45594000000E+02  0.51100000000E-03 0.  1.
         11   -1    0    0    0    0 -0.00000000000E+00 -0.00000000000E+00 -0.45593999997E+02  0.45594000000E+02  0.51100000000E-03 0. -1.
    9900012    2    1    2    0    0  0.29293745593E+02  0.12144715163E+02 -0.33322324359E+01  0.59301930781E+02  0.49999975840E+02 0.  0.
         12    1    1    2    0    0 -0.29293745593E+02 -0.12144715163E+02  0.33322324359E+01  0.31886069219E+02  0.00000000000E+00 0. -1.
         11    1    3    3    0    0 -0.66095881278E-02  0.14955063787E+02  0.16777237666E+02  0.22475090223E+02  0.51100000000E-03 0. -1.
        -11    1    3    3    0    0  0.20276009477E+02 -0.22882032223E+01 -0.84781688679E+01  0.22095967548E+02  0.51100000000E-03 0.  1.
         12    1    3    3    0    0  0.90243457046E+01 -0.52214540194E+00 -0.11631301234E+02  0.14730873009E+02  0.00000000000E+00 0. -1.
</event>
<event>
 7    1  0.4237994E-013  0.5930198E+02  0.7816164E-02  0.1266605E+00
        -11   -1    0    0    0    0  0.00000000000E+00  0.00000000000E+00  0.45593999997E+02  0.45594000000E+02  0.51100000000E-03 0. -1.
         11   -1    0    0    0    0 -0.00000000000E+00 -0.00000000000E+00 -0.45593999997E+02  0.45594000000E+02  0.51100000000E-03 0.  1.
    9900012    2    1    2    0    0 -0.31024794322E+02 -0.66471775312E+01 -0.31615683483E+01  0.59301978827E+02  0.50000063465E+02 0.  0.
         12    1    1    2    0    0  0.31024794322E+02  0.66471775312E+01  0.31615683483E+01  0.31886021173E+02  0.00000000000E+00 0. -1.
         11    1    3    3    0    0 -0.10417724141E+02 -0.20884574731E+02  0.77262536293E+01  0.24584333088E+02  0.51100000000E-03 0. -1.
        -11    1    3    3    0    0 -0.90897229853E+00  0.12337417680E+02 -0.79655384317E+01  0.14713528075E+02  0.51100000000E-03 0.  1.
         12    1    3    3    0    0 -0.19698097883E+02  0.18999795195E+01 -0.29222835459E+01  0.20004117664E+02  0.00000000000E+00 0. -1.
</event>
<event>
 7    1  0.4237994E-013  0.5930195E+02  0.7816164E-02  0.1266605E+00
        -11   -1    0    0    0    0  0.00000000000E+00  0.00000000000E+00  0.45593999997E+02  0.45594000000E+02  0.51100000000E-03 0. -1.
         11   -1    0    0    0    0 -0.00000000000E+00 -0.00000000000E+00 -0.45593999997E+02  0.45594000000E+02  0.51100000000E-03 0.  1.
    9900012    2    1    2    0    0  0.20557547463E+01 -0.12259766950E+02 -0.29363113551E+02  0.59301945828E+02  0.50000003284E+02 0.  0.
         12    1    1    2    0    0 -0.20557547463E+01  0.12259766950E+02  0.29363113551E+02  0.31886054172E+02  0.00000000000E+00 0. -1.
         11    1    3    3    0    0 -0.20984075234E+02  0.36665479781E+01 -0.15749365419E+02  0.26491838344E+02  0.51100000000E-03 0. -1.
        -11    1    3    3    0    0  0.27849108797E+01 -0.58464760812E+01 -0.62951953336E+01  0.90314171493E+01  0.51100000000E-03 0.  1.
         12    1    3    3    0    0  0.20254919101E+02 -0.10079838847E+02 -0.73185527990E+01  0.23778690335E+02  0.00000000000E+00 0. -1.
</event>
<event>
 7    1  0.4237994E-013  0.5930194E+02  0.7816164E-02  0.1266605E+00
        -11   -1    0    0    0    0  0.00000000000E+00  0.00000000000E+00  0.45593999997E+02  0.45594000000E+02  0.51100000000E-03 0.  1.
         11   -1    0    0    0    0 -0.00000000000E+00 -0.00000000000E+00 -0.45593999997E+02  0.45594000000E+02  0.51100000000E-03 0. -1.
    9900012    2    1    2    0    0  0.28857466690E+02 -0.74400817046E+01  0.11340737828E+02  0.59301944521E+02  0.50000000899E+02 0.  0.
         12    1    1    2    0    0 -0.28857466690E+02  0.74400817046E+01 -0.11340737828E+02  0.31886055479E+02  0.00000000000E+00 0. -1.
         11    1    3    3    0    0  0.17783929012E+02 -0.23848134640E+01  0.26626087988E+02  0.32107694221E+02  0.51100000000E-03 0. -1.
        -11    1    3    3    0    0  0.12574159049E+02 -0.65939460250E+01 -0.27325539115E+01  0.14458784565E+02  0.51100000000E-03 0.  1.
         12    1    3    3    0    0 -0.15006213706E+01  0.15386777845E+01 -0.12552796249E+02  0.12735465735E+02  0.00000000000E+00 0. -1.
</event>
<event>
 7    1  0.4237994E-013  0.5930195E+02  0.7816164E-02  0.1266605E+00
        -11   -1    0    0    0    0  0.00000000000E+00  0.00000000000E+00  0.45593999997E+02  0.45594000000E+02  0.51100000000E-03 0. -1.
         11   -1    0    0    0    0 -0.00000000000E+00 -0.00000000000E+00 -0.45593999997E+02  0.45594000000E+02  0.51100000000E-03 0.  1.
    9900012    2    1    2    0    0  0.47590837777E+01  0.13835827231E+02 -0.28330917325E+02  0.59301954933E+02  0.50000019888E+02 0.  0.
         12    1    1    2    0    0 -0.47590837777E+01 -0.13835827231E+02  0.28330917325E+02  0.31886045067E+02  0.00000000000E+00 0. -1.
         11    1    3    3    0    0  0.30098698086E+01 -0.11720941011E+02  0.68747894383E+01  0.13917704715E+02  0.51100000000E-03 0. -1.
        -11    1    3    3    0    0 -0.22190584640E+01  0.18225743248E+02 -0.31043917119E+02  0.36066975584E+02  0.51100000000E-03 0.  1.
         12    1    3    3    0    0  0.39682724331E+01  0.73310249935E+01 -0.41617896445E+01  0.93172746339E+01  0.00000000000E+00 0. -1.
</event>
<event>
 7    1  0.4237994E-013  0.5930193E+02  0.7816164E-02  0.1266605E+00
        -11   -1    0    0    0    0  0.00000000000E+00  0.00000000000E+00  0.45593999997E+02  0.45594000000E+02  0.51100000000E-03 0.  1.
         11   -1    0    0    0    0 -0.00000000000E+00 -0.00000000000E+00 -0.45593999997E+02  0.45594000000E+02  0.51100000000E-03 0. -1.
    9900012    2    1    2    0    0 -0.15613658768E+02 -0.19457450239E+02  0.19858059404E+02  0.59301933557E+02  0.49999980904E+02 0.  0.
         12    1    1    2    0    0  0.15613658768E+02  0.19457450239E+02 -0.19858059404E+02  0.31886066443E+02  0.00000000000E+00 0. -1.
         11    1    3    3    0    0 -0.14878182731E+02  0.30702819045E+01  0.90685248414E+01  0.17692515237E+02  0.51100000000E-03 0.  1.
        -11    1    3    3    0    0 -0.32790997498E+01 -0.16290040438E+02 -0.10245891059E+02  0.19521685288E+02  0.51100000000E-03 0. -1.
         12    1    3    3    0    0  0.25436237127E+01 -0.62376917050E+01  0.21035425622E+02  0.22087733032E+02  0.00000000000E+00 0. -1.
</event>
<event>
 7    1  0.4237994E-013  0.5930200E+02  0.7816164E-02  0.1266605E+00
        -11   -1    0    0    0    0  0.00000000000E+00  0.00000000000E+00  0.45593999997E+02  0.45594000000E+02  0.51100000000E-03 0.  1.
         11   -1    0    0    0    0 -0.00000000000E+00 -0.00000000000E+00 -0.45593999997E+02  0.45594000000E+02  0.51100000000E-03 0. -1.
    9900012    2    1    2    0    0  0.23261353992E+02  0.11556826880E+02  0.18495038691E+02  0.59301995338E+02  0.50000093578E+02 0.  0.
         12    1    1    2    0    0 -0.23261353992E+02 -0.11556826880E+02 -0.18495038691E+02  0.31886004662E+02  0.00000000000E+00 0. -1.
         11    1    3    3    0    0  0.64405382434E+01 -0.14695456873E+02  0.40918308237E+01  0.16558383536E+02  0.51100000000E-03 0. -1.
        -11    1    3    3    0    0  0.22764513014E+02  0.14333969596E+02  0.10328777834E+02  0.28816130707E+02  0.51100000000E-03 0.  1.
        -12    1    3    3    0    0 -0.59436972656E+01  0.11918314158E+02  0.40744300339E+01  0.13927481095E+02  0.00000000000E+00 0.  1.
</event>
<event>
 7    1  0.5946270E-013  0.5930195E+02  0.7816164E-02  0.1266605E+00
        -11   -1    0    0    0    0  0.00000000000E+00  0.00000000000E+00  0.45593999997E+02  0.45594000000E+02  0.51100000000E-03 0. -1.
         11   -1    0    0    0    0 -0.00000000000E+00 -0.00000000000E+00 -0.45593999997E+02  0.45594000000E+02  0.51100000000E-03 0.  1.
    9900012    2    1    2    0    0 -0.12976650945E+02 -0.15653083093E+02 -0.24562328664E+02  0.59301945533E+02  0.50000002746E+02 0.  0.
         12    1    1    2    0    0  0.12976650945E+02  0.15653083093E+02  0.24562328664E+02  0.31886054467E+02  0.00000000000E+00 0. -1.
         11    1    3    3    0    0  0.20578021944E+01 -0.22394853578E+01  0.10337158196E+02  0.10775281174E+02  0.51100000000E-03 0. -1.
        -11    1    3    3    0    0 -0.20667135595E+02 -0.13901095776E+02 -0.18066617870E+02  0.30769687014E+02  0.51100000000E-03 0.  1.
        -12    1    3    3    0    0  0.56326824555E+01  0.48749804026E+00 -0.16832868990E+02  0.17756977345E+02  0.00000000000E+00 0.  1.
</event>
<event>
 7    1  0.4237994E-013  0.5930196E+02  0.7816164E-02  0.1266605E+00
        -11   -1    0    0    0    0  0.00000000000E+00  0.00000000000E+00  0.45593999997E+02  0.45594000000E+02  0.51100000000E-03 0.  1.
         11   -1    0    0    0    0 -0.00000000000E+00 -0.00000000000E+00 -0.45593999997E+02  0.45594000000E+02  0.51100000000E-03 0. -1.
    9900012    2    1    2    0    0 -0.15297998982E+02 -0.24403128068E+02  0.13681310097E+02  0.59301957938E+02  0.50000025370E+02 0.  0.
         12    1    1    2    0    0  0.15297998982E+02  0.24403128068E+02 -0.13681310097E+02  0.31886042062E+02  0.00000000000E+00 0. -1.
         11    1    3    3    0    0  0.18168707051E+02 -0.86783795327E+01  0.66443080646E+01  0.21202901149E+02  0.51100000000E-03 0. -1.
        -11    1    3    3    0    0 -0.15088266981E+02 -0.57945005398E+01  0.58035514089E+01  0.17173038351E+02  0.51100000000E-03 0.  1.
         12    1    3    3    0    0 -0.18378439052E+02 -0.99302479959E+01  0.12334506236E+01  0.20926018439E+02  0.00000000000E+00 0. -1.
</event>
<event>
 7    1  0.4237994E-013  0.5930191E+02  0.7816164E-02  0.1266605E+00
        -11   -1    0    0    0    0  0.00000000000E+00  0.00000000000E+00  0.45593999997E+02  0.45594000000E+02  0.51100000000E-03 0.  1.
         11   -1    0    0    0    0 -0.00000000000E+00 -0.00000000000E+00 -0.45593999997E+02  0.45594000000E+02  0.51100000000E-03 0. -1.
    9900012    2    1    2    0    0  0.54548363628E+01  0.77385876809E+01  0.30448016864E+02  0.59301910399E+02  0.49999938670E+02 0.  0.
         12    1    1    2    0    0 -0.54548363628E+01 -0.77385876809E+01 -0.30448016864E+02  0.31886089601E+02  0.00000000000E+00 0. -1.
         11    1    3    3    0    0 -0.31106185948E+01 -0.98076321402E+01  0.70771288058E+01  0.12488048232E+02  0.51100000000E-03 0. -1.
        -11    1    3    3    0    0 -0.61908825504E+01  0.23221665845E+02  0.97130032801E+01  0.25921327596E+02  0.51100000000E-03 0.  1.
        -12    1    3    3    0    0  0.14756337508E+02 -0.56754460234E+01  0.13657884779E+02  0.20892534572E+02  0.00000000000E+00 0.  1.
</event>
<event>
 7    1  0.4237994E-013  0.5930194E+02  0.7816164E-02  0.1266605E+00
        -11   -1    0    0    0    0  0.00000000000E+00  0.00000000000E+00  0.45593999997E+02  0.45594000000E+02  0.51100000000E-03 0.  1.
         11   -1    0    0    0    0 -0.00000000000E+00 -0.00000000000E+00 -0.45593999997E+02  0.45594000000E+02  0.51100000000E-03 0. -1.
    9900012    2    1    2    0    0 -0.25433528347E+02 -0.34172138569E+01  0.18925613540E+02  0.59301944073E+02  0.50000000083E+02 0.  0.
         12    1    1    2    0    0  0.25433528347E+02  0.34172138569E+01 -0.18925613540E+02  0.31886055927E+02  0.00000000000E+00 0. -1.
         11    1    3    3    0    0 -0.15340733687E+02  0.19635882193E+02  0.44019490376E+01  0.25303816612E+02  0.51100000000E-03 0.  1.
        -11    1    3    3    0    0  0.11295386106E+00 -0.15179231308E+02  0.84538899693E+00  0.15203174159E+02  0.51100000000E-03 0. -1.
        -12    1    3    3    0    0 -0.10205748521E+02 -0.78738647419E+01  0.13678275505E+02  0.18794953302E+02  0.00000000000E+00 0.  1.
</event>
<event>
 7    1  0.4237994E-013  0.5930193E+02  0.7816164E-02  0.1266605E+00
        -11   -1    0    0    0    0  0.00000000000E+00  0.00000000000E+00  0.45593999997E+02  0.45594000000E+02  0.51100000000E-03 0. -1.
         11   -1    0    0    0    0 -0.00000000000E+00 -0.00000000000E+00 -0.45593999997E+02  0.45594000000E+02  0.51100000000E-03 0.  1.
    9900012    2    1    2    0    0 -0.25778708976E+02  0.11676206442E+02 -0.14691694478E+02  0.59301929060E+02  0.49999972703E+02 0.  0.
         12    1    1    2    0    0  0.25778708976E+02 -0.11676206442E+02  0.14691694478E+02  0.31886070940E+02  0.00000000000E+00 0. -1.
         11    1    3    3    0    0  0.92716038963E+01  0.16674043664E+02  0.65877464224E+00  0.19089797149E+02  0.51100000000E-03 0. -1.
        -11    1    3    3    0    0 -0.34026686551E+01 -0.40350173302E+01 -0.69923873972E+00  0.53243266154E+01  0.51100000000E-03 0.  1.
         12    1    3    3    0    0 -0.31647644217E+02 -0.96281989175E+00 -0.14651230381E+02  0.34887805295E+02  0.00000000000E+00 0. -1.
</event>
<event>
 7    1  0.4237994E-013  0.5930196E+02  0.7816164E-02  0.1266605E+00
        -11   -1    0    0    0    0  0.00000000000E+00  0.00000000000E+00  0.45593999997E+02  0.45594000000E+02  0.51100000000E-03 0.  1.
         11   -1    0    0    0    0 -0.00000000000E+00 -0.00000000000E+00 -0.45593999997E+02  0.45594000000E+02  0.51100000000E-03 0. -1.
    9900012    2    1    2    0    0  0.58007216970E+00 -0.65158762764E+01  0.31207794705E+02  0.59301959516E+02  0.50000028247E+02 0.  0.
         12    1    1    2    0    0 -0.58007216970E+00  0.65158762764E+01 -0.31207794705E+02  0.31886040484E+02  0.00000000000E+00 0. -1.
         11    1    3    3    0    0 -0.13026566167E+01 -0.25306262172E+01 -0.53814474483E+01  0.60877713666E+01  0.51100000000E-03 0. -1.
        -11    1    3    3    0    0  0.17861081424E+02  0.69215262590E+01  0.20449865040E+02  0.28020041681E+02  0.51100000000E-03 0.  1.
        -12    1    3    3    0    0 -0.15978352637E+02 -0.10906776318E+02  0.16139377114E+02  0.25194146469E+02  0.00000000000E+00 0.  1.
</event>
<event>
 7    1  0.4237994E-013  0.5930187E+02  0.7816164E-02  0.1266605E+00
        -11   -1    0    0    0    0  0.00000000000E+00  0.00000000000E+00  0.45593999997E+02  0.45594000000E+02  0.51100000000E-03 0.  1.
         11   -1    0    0    0    0 -0.00000000000E+00 -0.00000000000E+00 -0.45593999997E+02  0.45594000000E+02  0.51100000000E-03 0. -1.
    9900012    2    1    2    0    0 -0.12106660068E+02  0.50341014454E+01  0.29065644618E+02  0.59301873041E+02  0.49999870537E+02 0.  0.
         12    1    1    2    0    0  0.12106660068E+02 -0.50341014454E+01 -0.29065644618E+02  0.31886126959E+02  0.00000000000E+00 0. -1.
         11    1    3    3    0    0  0.19179880423E+01 -0.21718559965E+01  0.73216879629E+01  0.78741825916E+01  0.51100000000E-03 0. -1.
        -11    1    3    3    0    0  0.29094112246E+01 -0.54526292597E+01 -0.10902894746E+02  0.12532715333E+02  0.51100000000E-03 0.  1.
        -12    1    3    3    0    0 -0.16934059335E+02  0.12658586702E+02  0.32646851401E+02  0.38894975116E+02  0.00000000000E+00 0.  1.
</event>
<event>
 7    1  0.4237994E-013  0.5930195E+02  0.7816164E-02  0.1266605E+00
        -11   -1    0    0    0    0  0.00000000000E+00  0.00000000000E+00  0.45593999997E+02  0.45594000000E+02  0.51100000000E-03 0. -1.
         11   -1    0    0    0    0 -0.00000000000E+00 -0.00000000000E+00 -0.45593999997E+02  0.45594000000E+02  0.51100000000E-03 0.  1.
    9900012    2    1    2    0    0 -0.28315038983E+02 -0.12204682363E+02 -0.81255638266E+01  0.59301945185E+02  0.50000002111E+02 0.  0.
         12    1    1    2    0    0  0.28315038983E+02  0.12204682363E+02  0.81255638266E+01  0.31886054815E+02  0.00000000000E+00 0. -1.
         11    1    3    3    0    0 -0.14540183404E+02 -0.13377733676E+02  0.18928980538E+02  0.27362145314E+02  0.51100000000E-03 0. -1.
        -11    1    3    3    0    0 -0.60782044333E+01  0.13878646499E+01 -0.34808267773E+01  0.71405106774E+01  0.51100000000E-03 0.  1.
         12    1    3    3    0    0 -0.76966511450E+01 -0.21481333641E+00 -0.23573717587E+02  0.24799289193E+02  0.00000000000E+00 0. -1.
</event>
<event>
 7    1  0.4237994E-013  0.5930192E+02  0.7816164E-02  0.1266605E+00
        -11   -1    0    0    0    0  0.00000000000E+00  0.00000000000E+00  0.45593999997E+02  0.45594000000E+02  0.51100000000E-03 0.  1.
         11   -1    0    0    0    0 -0.00000000000E+00 -0.00000000000E+00 -0.45593999997E+02  0.45594000000E+02  0.51100000000E-03 0. -1.
    9900012    2    1    2    0    0 -0.16145762525E+02 -0.17834066756E+02  0.20928035316E+02  0.59301917664E+02  0.49999951918E+02 0.  0.
         12    1    1    2    0    0  0.16145762525E+02  0.17834066756E+02 -0.20928035316E+02  0.31886082336E+02  0.00000000000E+00 0. -1.
         11    1    3    3    0    0  0.91276412556E+01 -0.12955279595E+01 -0.37141474434E+01  0.99391709452E+01  0.51100000000E-03 0. -1.
        -11    1    3    3    0    0 -0.11449079002E+02 -0.14803109137E+02  0.29218371049E+02  0.34697646277E+02  0.51100000000E-03 0.  1.
         12    1    3    3    0    0 -0.13824324779E+02 -0.17354296593E+01 -0.45761882902E+01  0.14665100442E+02  0.00000000000E+00 0. -1.
</event>
<event>
 7    1  0.4237994E-013  0.5930201E+02  0.7816164E-02  0.1266605E+00
        -11   -1    0    0    0    0  0.00000000000E+00  0.00000000000E+00  0.45593999997E+02  0.45594000000E+02  0.51100000000E-03 0.  1.
         11   -1    0    0    0    0 -0.00000000000E+00 -0.00000000000E+00 -0.45593999997E+02  0.45594000000E+02  0.51100000000E-03 0. -1.
    9900012    2    1    2    0    0 -0.87731569700E+01  0.26780679305E+02 -0.14917877084E+02  0.59302013674E+02  0.50000127018E+02 0.  0.
         12    1    1    2    0    0  0.87731569700E+01 -0.26780679305E+02  0.14917877084E+02  0.31885986326E+02  0.00000000000E+00 0. -1.
         11    1    3    3    0    0 -0.16858516863E+02 -0.57186727174E+01  0.22460147562E+01  0.17943171152E+02  0.51100000000E-03 0. -1.
        -11    1    3    3    0    0 -0.41262980489E+01  0.17557538073E+02 -0.10884078189E+02  0.21065531967E+02  0.51100000000E-03 0.  1.
         12    1    3    3    0    0  0.12211657941E+02  0.14941813949E+02 -0.62798136516E+01  0.20293310555E+02  0.00000000000E+00 0. -1.
</event>
<event>
 7    1  0.4237994E-013  0.5930196E+02  0.7816164E-02  0.1266605E+00
        -11   -1    0    0    0    0  0.00000000000E+00  0.00000000000E+00  0.45593999997E+02  0.45594000000E+02  0.51100000000E-03 0.  1.
         11   -1    0    0    0    0 -0.00000000000E+00 -0.00000000000E+00 -0.45593999997E+02  0.45594000000E+02  0.51100000000E-03 0. -1.
    9900012    2    1    2    0    0 -0.27761569154E+02  0.12436484108E+02  0.95576506849E+01  0.59301960022E+02  0.50000029170E+02 0.  0.
         12    1    1    2    0    0  0.27761569154E+02 -0.12436484108E+02 -0.95576506849E+01  0.31886039978E+02  0.00000000000E+00 0. -1.
         11    1    3    3    0    0 -0.58328938785E+01 -0.32736065292E+01 -0.27842782500E+01  0.72450918793E+01  0.51100000000E-03 0. -1.
        -11    1    3    3    0    0 -0.30745942843E+02  0.22602691519E+02  0.45732201112E+01  0.38433175873E+02  0.51100000000E-03 0.  1.
        -12    1    3    3    0    0  0.88172675676E+01 -0.68926008827E+01  0.77687088237E+01  0.13623692270E+02  0.00000000000E+00 0.  1.
</event>
<event>
 7    1  0.4237994E-013  0.5930193E+02  0.7816164E-02  0.1266605E+00
        -11   -1    0    0    0    0  0.00000000000E+00  0.00000000000E+00  0.45593999997E+02  0.45594000000E+02  0.51100000000E-03 0.  1.
         11   -1    0    0    0    0 -0.00000000000E+00 -0.00000000000E+00 -0.45593999997E+02  0.45594000000E+02  0.51100000000E-03 0. -1.
    9900012    2    1    2    0    0 -0.30839854467E+02  0.75162387554E+01  0.30217814228E+01  0.59301927311E+02  0.49999969513E+02 0.  0.
         12    1    1    2    0    0  0.30839854467E+02 -0.75162387554E+01 -0.30217814228E+01  0.31886072689E+02  0.00000000000E+00 0. -1.
         11    1    3    3    0    0 -0.20746270164E+02  0.18518702731E+02  0.10076915257E+02  0.29578612170E+02  0.51100000000E-03 0. -1.
        -11    1    3    3    0    0  0.25204199610E+01 -0.74315701589E+01 -0.13112919162E+02  0.15281668791E+02  0.51100000000E-03 0.  1.
        -12    1    3    3    0    0 -0.12614004264E+02 -0.35708938167E+01  0.60577853283E+01  0.14441646350E+02  0.00000000000E+00 0.  1.
</event>
<event>
 7    1  0.4237994E-013  0.5930195E+02  0.7816164E-02  0.1266605E+00
        -11   -1    0    0    0    0  0.00000000000E+00  0.00000000000E+00  0.45593999997E+02  0.45594000000E+02  0.51100000000E-03 0. -1.
         11   -1    0    0    0    0 -0.00000000000E+00 -0.00000000000E+00 -0.45593999997E+02  0.45594000000E+02  0.51100000000E-03 0.  1.
    9900012    2    1    2    0    0 -0.27468337472E+02  0.13909054578E+02 -0.82915000401E+01  0.59301947631E+02  0.50000006572E+02 0.  0.
         12    1    1    2    0    0  0.27468337472E+02 -0.13909054578E+02  0.82915000401E+01  0.31886052369E+02  0.00000000000E+00 0. -1.
         11    1    3    3    0    0 -0.85615879823E+01 -0.14177375603E+02  0.91289004906E+01  0.18911255701E+02  0.51100000000E-03 0. -1.
        -11    1    3    3    0    0 -0.24895543831E+01  0.72740587213E+01 -0.10464401263E+02  0.12985126313E+02  0.51100000000E-03 0.  1.
         12    1    3    3    0    0 -0.16417195107E+02  0.20812371460E+02 -0.69559992672E+01  0.27405565617E+02  0.00000000000E+00 0. -1.
</event>
<event>
 7    1  0.4237994E-013  0.5930219E+02  0.7816164E-02  0.1266604E+00
        -11   -1    0    0    0    0  0.00000000000E+00  0.00000000000E+00  0.45593999997E+02  0.45594000000E+02  0.51100000000E-03 0.  1.
         11   -1    0    0    0    0 -0.00000000000E+00 -0.00000000000E+00 -0.45593999997E+02  0.45594000000E+02  0.51100000000E-03 0. -1.
    9900012    2    1    2    0    0 -0.29015630289E+02 -0.13206383130E+02 -0.62422327854E+00  0.59302187934E+02  0.50000444824E+02 0.  0.
         12    1    1    2    0    0  0.29015630289E+02  0.13206383130E+02  0.62422327854E+00  0.31885812066E+02  0.00000000000E+00 0. -1.
         11    1    3    3    0    0 -0.58383771568E+01 -0.15841029478E+02 -0.56102237468E+01  0.17790432077E+02  0.51100000000E-03 0. -1.
        -11    1    3    3    0    0 -0.19347333394E+02  0.13155083430E+02 -0.76635242602E+01  0.24619202543E+02  0.51100000000E-03 0.  1.
        -12    1    3    3    0    0 -0.38299197381E+01 -0.10520437082E+02  0.12649524728E+02  0.16892553314E+02  0.00000000000E+00 0.  1.
</event>
<event>
 7    1  0.4237994E-013  0.5930195E+02  0.7816164E-02  0.1266605E+00
        -11   -1    0    0    0    0  0.00000000000E+00  0.00000000000E+00  0.45593999997E+02  0.45594000000E+02  0.51100000000E-03 0.  1.
         11   -1    0    0    0    0 -0.00000000000E+00 -0.00000000000E+00 -0.45593999997E+02  0.45594000000E+02  0.51100000000E-03 0. -1.
    9900012    2    1    2    0    0  0.51058974896E+01  0.19750524412E+02  0.24506461259E+02  0.59301952155E+02  0.50000014822E+02 0.  0.
         12    1    1    2    0    0 -0.51058974896E+01 -0.19750524412E+02 -0.24506461259E+02  0.31886047845E+02  0.00000000000E+00 0. -1.
         11    1    3    3    0    0  0.20148686884E+02 -0.14927215193E+01  0.12329666374E+02  0.23668934785E+02  0.51100000000E-03 0. -1.
        -11    1    3    3    0    0 -0.11001169153E+02  0.13381308347E+02  0.18051650914E+02  0.25018937563E+02  0.51100000000E-03 0.  1.
         12    1    3    3    0    0 -0.40416202420E+01  0.78619375846E+01 -0.58748560294E+01  0.10614079806E+02  0.00000000000E+00 0. -1.
</event>
<event>
 7    1  0.4237994E-013  0.5930195E+02  0.7816164E-02  0.1266605E+00
        -11   -1    0    0    0    0  0.00000000000E+00  0.00000000000E+00  0.45593999997E+02  0.45594000000E+02  0.51100000000E-03 0. -1.
         11   -1    0    0    0    0 -0.00000000000E+00 -0.00000000000E+00 -0.45593999997E+02  0.45594000000E+02  0.51100000000E-03 0.  1.
    9900012    2    1    2    0    0 -0.30709420711E+02 -0.73034945733E+01 -0.45067137445E+01  0.59301952547E+02  0.50000015537E+02 0.  0.
         12    1    1    2    0    0  0.30709420711E+02  0.73034945733E+01  0.45067137445E+01  0.31886047453E+02  0.00000000000E+00 0. -1.
         11    1    3    3    0    0  0.60032742058E+00  0.42301120246E+00  0.12261121334E+02  0.12283095217E+02  0.51100000000E-03 0. -1.
        -11    1    3    3    0    0 -0.17734398517E+02 -0.19118973669E+02 -0.82171512592E+01  0.27341646256E+02  0.51100000000E-03 0.  1.
         12    1    3    3    0    0 -0.13575349615E+02  0.11392467893E+02 -0.85506838191E+01  0.19677211074E+02  0.00000000000E+00 0. -1.
</event>
<event>
 7    1  0.4237994E-013  0.5930196E+02  0.7816164E-02  0.1266605E+00
        -11   -1    0    0    0    0  0.00000000000E+00  0.00000000000E+00  0.45593999997E+02  0.45594000000E+02  0.51100000000E-03 0.  1.
         11   -1    0    0    0    0 -0.00000000000E+00 -0.00000000000E+00 -0.45593999997E+02  0.45594000000E+02  0.51100000000E-03 0. -1.
    9900012    2    1    2    0    0 -0.21864236123E+02 -0.96079061935E+01  0.21127303954E+02  0.59301958304E+02  0.50000026037E+02 0.  0.
         12    1    1    2    0    0  0.21864236123E+02  0.96079061935E+01 -0.21127303954E+02  0.31886041696E+02  0.00000000000E+00 0. -1.
         11    1    3    3    0    0 -0.93605372131E+01 -0.11440502774E+02 -0.62391627158E+01  0.16044684861E+02  0.51100000000E-03 0. -1.
        -11    1    3    3    0    0 -0.89622690824E+01  0.22550808142E+01  0.34266034719E+02  0.35490404227E+02  0.51100000000E-03 0.  1.
        -12    1    3    3    0    0 -0.35414298274E+01 -0.42248423397E+00 -0.68995680493E+01  0.77668692160E+01  0.00000000000E+00 0.  1.
</event>
<event>
 7    1  0.4237994E-013  0.5930196E+02  0.7816164E-02  0.1266605E+00
        -11   -1    0    0    0    0  0.00000000000E+00  0.00000000000E+00  0.45593999997E+02  0.45594000000E+02  0.51100000000E-03 0.  1.
         11   -1    0    0    0    0 -0.00000000000E+00 -0.00000000000E+00 -0.45593999997E+02  0.45594000000E+02  0.51100000000E-03 0. -1.
    9900012    2    1    2    0    0  0.86388095624E+01  0.16641005850E+02  0.25790835086E+02  0.59301964172E+02  0.50000036739E+02 0.  0.
         12    1    1    2    0    0 -0.86388095624E+01 -0.16641005850E+02 -0.25790835086E+02  0.31886035828E+02  0.00000000000E+00 0. -1.
         11    1    3    3    0    0 -0.62394421848E+01 -0.59318229418E+01  0.42839021846E+01  0.96160792623E+01  0.51100000000E-03 0. -1.
        -11    1    3    3    0    0  0.21092121376E+02  0.28272474664E+02  0.12691528341E+02  0.37487135122E+02  0.51100000000E-03 0.  1.
        -12    1    3    3    0    0 -0.62138696289E+01 -0.56996458716E+01  0.88154045601E+01  0.12198749788E+02  0.00000000000E+00 0.  1.
</event>
<event>
 7    1  0.4237994E-013  0.5930192E+02  0.7816164E-02  0.1266605E+00
        -11   -1    0    0    0    0  0.00000000000E+00  0.00000000000E+00  0.45593999997E+02  0.45594000000E+02  0.51100000000E-03 0.  1.
         11   -1    0    0    0    0 -0.00000000000E+00 -0.00000000000E+00 -0.45593999997E+02  0.45594000000E+02  0.51100000000E-03 0. -1.
    9900012    2    1    2    0    0 -0.11010927721E+02 -0.22722242213E+02  0.19472570847E+02  0.59301924107E+02  0.49999963670E+02 0.  0.
         12    1    1    2    0    0  0.11010927721E+02  0.22722242213E+02 -0.19472570847E+02  0.31886075893E+02  0.00000000000E+00 0. -1.
         11    1    3    3    0    0  0.47581945496E+01 -0.14511919726E+02  0.26073404446E+02  0.30216860346E+02  0.51100000000E-03 0. -1.
        -11    1    3    3    0    0 -0.17785492238E+02 -0.83061193778E+01  0.24773421536E+01  0.19785160542E+02  0.51100000000E-03 0.  1.
         12    1    3    3    0    0  0.20163699676E+01  0.95796891354E-01 -0.90781757524E+01  0.92999032190E+01  0.00000000000E+00 0. -1.
</event>
<event>
 7    1  0.4237994E-013  0.5930198E+02  0.7816164E-02  0.1266605E+00
        -11   -1    0    0    0    0  0.00000000000E+00  0.00000000000E+00  0.45593999997E+02  0.45594000000E+02  0.51100000000E-03 0.  1.
         11   -1    0    0    0    0 -0.00000000000E+00 -0.00000000000E+00 -0.45593999997E+02  0.45594000000E+02  0.51100000000E-03 0. -1.
    9900012    2    1    2    0    0 -0.24081830673E+02  0.17304128843E+02  0.11719686758E+02  0.59301976396E+02  0.50000059033E+02 0.  0.
         12    1    1    2    0    0  0.24081830673E+02 -0.17304128843E+02 -0.11719686758E+02  0.31886023604E+02  0.00000000000E+00 0. -1.
         11    1    3    3    0    0 -0.63328285904E+01 -0.12732508730E+02  0.33150282295E+00  0.14224323917E+02  0.51100000000E-03 0. -1.
        -11    1    3    3    0    0 -0.53290384831E+00  0.76645909109E+01  0.14767551765E+02  0.16646637070E+02  0.51100000000E-03 0.  1.
         12    1    3    3    0    0 -0.17216098234E+02  0.22372046662E+02 -0.33793678303E+01  0.28431015409E+02  0.00000000000E+00 0. -1.
</event>
<event>
 7    1  0.4237994E-013  0.5930203E+02  0.7816164E-02  0.1266604E+00
        -11   -1    0    0    0    0  0.00000000000E+00  0.00000000000E+00  0.45593999997E+02  0.45594000000E+02  0.51100000000E-03 0.  1.
         11   -1    0    0    0    0 -0.00000000000E+00 -0.00000000000E+00 -0.45593999997E+02  0.45594000000E+02  0.51100000000E-03 0. -1.
    9900012    2    1    2    0    0  0.20967494889E+02 -0.23891790174E+02  0.25022984386E+01  0.59302031658E+02  0.50000159816E+02 0.  0.
         12    1    1    2    0    0 -0.20967494889E+02  0.23891790174E+02 -0.25022984386E+01  0.31885968342E+02  0.00000000000E+00 0. -1.
         11    1    3    3    0    0  0.33617635737E+02 -0.67681506079E+01 -0.31253472462E+01  0.34434301080E+02  0.51100000000E-03 0. -1.
        -11    1    3    3    0    0 -0.49998444606E+01 -0.39899763548E+00  0.39795884268E+01  0.64027156778E+01  0.51100000000E-03 0.  1.
         12    1    3    3    0    0 -0.76502963878E+01 -0.16724641931E+02  0.16480572580E+01  0.18465014900E+02  0.00000000000E+00 0. -1.
</event>
<event>
 7    1  0.4237994E-013  0.5930194E+02  0.7816164E-02  0.1266605E+00
        -11   -1    0    0    0    0  0.00000000000E+00  0.00000000000E+00  0.45593999997E+02  0.45594000000E+02  0.51100000000E-03 0.  1.
         11   -1    0    0    0    0 -0.00000000000E+00 -0.00000000000E+00 -0.45593999997E+02  0.45594000000E+02  0.51100000000E-03 0. -1.
    9900012    2    1    2    0    0  0.24405935282E+02 -0.19324604673E+01  0.20428813937E+02  0.59301944751E+02  0.50000001319E+02 0.  0.
         12    1    1    2    0    0 -0.24405935282E+02  0.19324604673E+01 -0.20428813937E+02  0.31886055249E+02  0.00000000000E+00 0. -1.
         11    1    3    3    0    0  0.21157720442E+01  0.19555687396E+02  0.36076223578E+01  0.19997908396E+02  0.51100000000E-03 0. -1.
        -11    1    3    3    0    0  0.14340729522E+02 -0.23059200181E+02  0.10867078289E+02  0.29248532048E+02  0.51100000000E-03 0.  1.
         12    1    3    3    0    0  0.79494337165E+01  0.15710523174E+01  0.59541132901E+01  0.10055504307E+02  0.00000000000E+00 0. -1.
</event>
<event>
 7    1  0.4237994E-013  0.5930193E+02  0.7816164E-02  0.1266605E+00
        -11   -1    0    0    0    0  0.00000000000E+00  0.00000000000E+00  0.45593999997E+02  0.45594000000E+02  0.51100000000E-03 0.  1.
         11   -1    0    0    0    0 -0.00000000000E+00 -0.00000000000E+00 -0.45593999997E+02  0.45594000000E+02  0.51100000000E-03 0. -1.
    9900012    2    1    2    0    0  0.77367624691E+01  0.31288887437E+01  0.30774563611E+02  0.59301934020E+02  0.49999981748E+02 0.  0.
         12    1    1    2    0    0 -0.77367624691E+01 -0.31288887437E+01 -0.30774563611E+02  0.31886065980E+02  0.00000000000E+00 0. -1.
         11    1    3    3    0    0  0.21010538916E+02  0.45784630686E+01  0.89903637342E+00  0.21522391509E+02  0.51100000000E-03 0. -1.
        -11    1    3    3    0    0 -0.82980696887E+01  0.30939437254E+01  0.29750157738E+02  0.31040333987E+02  0.51100000000E-03 0.  1.
         12    1    3    3    0    0 -0.49757067579E+01 -0.45435180504E+01  0.12536949951E+00  0.67392085237E+01  0.00000000000E+00 0. -1.
</event>
<event>
 7    1  0.4237994E-013  0.5930197E+02  0.7816164E-02  0.1266605E+00
        -11   -1    0    0    0    0  0.00000000000E+00  0.00000000000E+00  0.45593999997E+02  0.45594000000E+02  0.51100000000E-03 0. -1.
         11   -1    0    0    0    0 -0.00000000000E+00 -0.00000000000E+00 -0.45593999997E+02  0.45594000000E+02  0.51100000000E-03 0.  1.
    9900012    2    1    2    0    0 -0.76469461006E+01 -0.72778288014E+01 -0.30087812641E+02  0.59301967851E+02  0.50000043447E+02 0.  0.
         12    1    1    2    0    0  0.76469461006E+01  0.72778288014E+01  0.30087812641E+02  0.31886032149E+02  0.00000000000E+00 0. -1.
         11    1    3    3    0    0 -0.37698839536E+01 -0.17309986431E+02 -0.45111063530E+01  0.18281075900E+02  0.51100000000E-03 0. -1.
        -11    1    3    3    0    0  0.10061268993E+02  0.85284290532E+01 -0.23361630286E+02  0.26827765575E+02  0.51100000000E-03 0.  1.
         12    1    3    3    0    0 -0.13938331141E+02  0.15037285763E+01 -0.22150760015E+01  0.14193126375E+02  0.00000000000E+00 0. -1.
</event>
<event>
 7    1  0.4237994E-013  0.5930193E+02  0.7816164E-02  0.1266605E+00
        -11   -1    0    0    0    0  0.00000000000E+00  0.00000000000E+00  0.45593999997E+02  0.45594000000E+02  0.51100000000E-03 0. -1.
         11   -1    0    0    0    0 -0.00000000000E+00 -0.00000000000E+00 -0.45593999997E+02  0.45594000000E+02  0.51100000000E-03 0.  1.
    9900012    2    1    2    0    0 -0.23874604447E+02 -0.19750537787E+02 -0.75260213380E+01  0.59301929726E+02  0.49999973916E+02 0.  0.
         12    1    1    2    0    0  0.23874604447E+02  0.19750537787E+02  0.75260213380E+01  0.31886070274E+02  0.00000000000E+00 0. -1.
         11    1    3    3    0    0 -0.16624995990E+02 -0.10779385262E+02 -0.13686495031E+02  0.24081233041E+02  0.51100000000E-03 0.  1.
        -11    1    3    3    0    0  0.11428151876E+02 -0.98970583761E+01  0.66444811067E+01  0.16513738197E+02  0.51100000000E-03 0. -1.
         12    1    3    3    0    0 -0.18677760332E+02  0.92590585122E+00 -0.48400741405E+00  0.18706958488E+02  0.00000000000E+00 0. -1.
</event>
<event>
 7    1  0.4237994E-013  0.5930191E+02  0.7816164E-02  0.1266605E+00
        -11   -1    0    0    0    0  0.00000000000E+00  0.00000000000E+00  0.45593999997E+02  0.45594000000E+02  0.51100000000E-03 0.  1.
         11   -1    0    0    0    0 -0.00000000000E+00 -0.00000000000E+00 -0.45593999997E+02  0.45594000000E+02  0.51100000000E-03 0. -1.
    9900012    2    1    2    0    0  0.25942653277E+02 -0.10699229814E+02  0.15140274088E+02  0.59301910915E+02  0.49999939610E+02 0.  0.
         12    1    1    2    0    0 -0.25942653277E+02  0.10699229814E+02 -0.15140274088E+02  0.31886089085E+02  0.00000000000E+00 0. -1.
         11    1    3    3    0    0  0.12113373874E+02 -0.14024290730E+02  0.31208577459E+02  0.36295865666E+02  0.51100000000E-03 0. -1.
        -11    1    3    3    0    0  0.75596310531E+01  0.13969092626E+01 -0.27582510915E+01  0.81674553253E+01  0.51100000000E-03 0.  1.
         12    1    3    3    0    0  0.62696483499E+01  0.19281516537E+01 -0.13310052280E+02  0.14838589924E+02  0.00000000000E+00 0. -1.
</event>
<event>
 7    1  0.4237994E-013  0.5930200E+02  0.7816164E-02  0.1266605E+00
        -11   -1    0    0    0    0  0.00000000000E+00  0.00000000000E+00  0.45593999997E+02  0.45594000000E+02  0.51100000000E-03 0.  1.
         11   -1    0    0    0    0 -0.00000000000E+00 -0.00000000000E+00 -0.45593999997E+02  0.45594000000E+02  0.51100000000E-03 0. -1.
    9900012    2    1    2    0    0 -0.12255961557E+02  0.29172212733E+02 -0.39357950619E+01  0.59301998805E+02  0.50000099900E+02 0.  0.
         12    1    1    2    0    0  0.12255961557E+02 -0.29172212733E+02  0.39357950619E+01  0.31886001195E+02  0.00000000000E+00 0. -1.
         11    1    3    3    0    0  0.21679215086E+01  0.28685358470E+02 -0.68031556555E+01  0.29560659691E+02  0.51100000000E-03 0. -1.
        -11    1    3    3    0    0 -0.15967670276E+02  0.71386067561E+01 -0.60519869839E+01  0.18508180548E+02  0.51100000000E-03 0.  1.
        -12    1    3    3    0    0  0.15437872107E+01 -0.66517524925E+01  0.89193475776E+01  0.11233158567E+02  0.00000000000E+00 0.  1.
</event>
<event>
 7    1  0.4237994E-013  0.5930193E+02  0.7816164E-02  0.1266605E+00
        -11   -1    0    0    0    0  0.00000000000E+00  0.00000000000E+00  0.45593999997E+02  0.45594000000E+02  0.51100000000E-03 0. -1.
         11   -1    0    0    0    0 -0.00000000000E+00 -0.00000000000E+00 -0.45593999997E+02  0.45594000000E+02  0.51100000000E-03 0.  1.
    9900012    2    1    2    0    0  0.29720325935E+02 -0.51641823544E+01 -0.10332214983E+02  0.59301933772E+02  0.49999981295E+02 0.  0.
         12    1    1    2    0    0 -0.29720325935E+02  0.51641823544E+01  0.10332214983E+02  0.31886066228E+02  0.00000000000E+00 0. -1.
         11    1    3    3    0    0 -0.60652027974E+01  0.76711393973E+01  0.63796304003E+01  0.11676161567E+02  0.51100000000E-03 0. -1.
        -11    1    3    3    0    0  0.37300338588E+02 -0.15447176078E+02 -0.12160654059E+02  0.42164108137E+02  0.51100000000E-03 0.  1.
        -12    1    3    3    0    0 -0.15148098555E+01  0.26118543267E+01 -0.45511913243E+01  0.54616640681E+01  0.00000000000E+00 0.  1.
</event>
<event>
 7    1  0.4237994E-013  0.5930194E+02  0.7816164E-02  0.1266605E+00
        -11   -1    0    0    0    0  0.00000000000E+00  0.00000000000E+00  0.45593999997E+02  0.45594000000E+02  0.51100000000E-03 0.  1.
         11   -1    0    0    0    0 -0.00000000000E+00 -0.00000000000E+00 -0.45593999997E+02  0.45594000000E+02  0.51100000000E-03 0. -1.
    9900012    2    1    2    0    0  0.12014727508E+02  0.13144933550E+01  0.29506593477E+02  0.59301943040E+02  0.49999998198E+02 0.  0.
         12    1    1    2    0    0 -0.12014727508E+02 -0.13144933550E+01 -0.29506593477E+02  0.31886056960E+02  0.00000000000E+00 0. -1.
         11    1    3    3    0    0  0.14654709681E+02 -0.17665415186E+02  0.64880080766E+01  0.23852078706E+02  0.51100000000E-03 0. -1.
        -11    1    3    3    0    0  0.48121158379E+00  0.13977205481E+02  0.25475535458E+02  0.29061946679E+02  0.51100000000E-03 0.  1.
        -12    1    3    3    0    0 -0.31211937572E+01  0.50027030601E+01 -0.24569500577E+01  0.63879176547E+01  0.00000000000E+00 0.  1.
</event>
<event>
 7    1  0.4237994E-013  0.5930196E+02  0.7816164E-02  0.1266605E+00
        -11   -1    0    0    0    0  0.00000000000E+00  0.00000000000E+00  0.45593999997E+02  0.45594000000E+02  0.51100000000E-03 0.  1.
         11   -1    0    0    0    0 -0.00000000000E+00 -0.00000000000E+00 -0.45593999997E+02  0.45594000000E+02  0.51100000000E-03 0. -1.
    9900012    2    1    2    0    0 -0.24587848979E+02  0.90853884775E+01  0.18155246713E+02  0.59301959412E+02  0.50000028056E+02 0.  0.
         12    1    1    2    0    0  0.24587848979E+02 -0.90853884775E+01 -0.18155246713E+02  0.31886040588E+02  0.00000000000E+00 0. -1.
         11    1    3    3    0    0 -0.54993425743E+01  0.20501175246E+02  0.25551475983E+02  0.33217749478E+02  0.51100000000E-03 0. -1.
        -11    1    3    3    0    0 -0.14142538298E+02 -0.13199989139E+02 -0.38032112591E+01  0.19715869723E+02  0.51100000000E-03 0.  1.
         12    1    3    3    0    0 -0.49459681067E+01  0.17842023701E+01 -0.35930180110E+01  0.63683402106E+01  0.00000000000E+00 0. -1.
</event>
<event>
 7    1  0.4237994E-013  0.5930194E+02  0.7816164E-02  0.1266605E+00
        -11   -1    0    0    0    0  0.00000000000E+00  0.00000000000E+00  0.45593999997E+02  0.45594000000E+02  0.51100000000E-03 0.  1.
         11   -1    0    0    0    0 -0.00000000000E+00 -0.00000000000E+00 -0.45593999997E+02  0.45594000000E+02  0.51100000000E-03 0. -1.
    9900012    2    1    2    0    0  0.26953953094E+02 -0.12207251352E+02  0.11882266245E+02  0.59301939972E+02  0.49999992603E+02 0.  0.
         12    1    1    2    0    0 -0.26953953094E+02  0.12207251352E+02 -0.11882266245E+02  0.31886060028E+02  0.00000000000E+00 0. -1.
         11    1    3    3    0    0  0.21276043298E+02  0.16813014261E+02  0.88401242891E+01  0.28521838381E+02  0.51100000000E-03 0. -1.
        -11    1    3    3    0    0  0.54212854584E+01 -0.11747426987E+02  0.38129183472E+01  0.13488169758E+02  0.51100000000E-03 0.  1.
         12    1    3    3    0    0  0.25662433814E+00 -0.17272838626E+02 -0.77077639091E+00  0.17291931832E+02  0.00000000000E+00 0. -1.
</event>
<event>
 7    1  0.4237994E-013  0.5930191E+02  0.7816164E-02  0.1266605E+00
        -11   -1    0    0    0    0  0.00000000000E+00  0.00000000000E+00  0.45593999997E+02  0.45594000000E+02  0.51100000000E-03 0. -1.
         11   -1    0    0    0    0 -0.00000000000E+00 -0.00000000000E+00 -0.45593999997E+02  0.45594000000E+02  0.51100000000E-03 0.  1.
    9900012    2    1    2    0    0 -0.27351181691E+02 -0.30944479069E+01 -0.16095340270E+02  0.59301910146E+02  0.49999938208E+02 0.  0.
         12    1    1    2    0    0  0.27351181691E+02  0.30944479069E+01  0.16095340270E+02  0.31886089854E+02  0.00000000000E+00 0. -1.
         11    1    3    3    0    0 -0.67405969414E+01  0.10636589524E+02  0.72025616861E+01  0.14506880400E+02  0.51100000000E-03 0.  1.
        -11    1    3    3    0    0 -0.85136693672E+01 -0.12148410309E+02 -0.28026718964E+02  0.31710619913E+02  0.51100000000E-03 0. -1.
        -12    1    3    3    0    0 -0.12096915383E+02 -0.15826271222E+01  0.47288170084E+01  0.13084409833E+02  0.00000000000E+00 0.  1.
</event>
<event>
 7    1  0.4237994E-013  0.5930197E+02  0.7816164E-02  0.1266605E+00
        -11   -1    0    0    0    0  0.00000000000E+00  0.00000000000E+00  0.45593999997E+02  0.45594000000E+02  0.51100000000E-03 0.  1.
         11   -1    0    0    0    0 -0.00000000000E+00 -0.00000000000E+00 -0.45593999997E+02  0.45594000000E+02  0.51100000000E-03 0. -1.
    9900012    2    1    2    0    0  0.24766680901E+00 -0.31225513889E+02  0.64517446679E+01  0.59301967544E+02  0.50000042889E+02 0.  0.
         12    1    1    2    0    0 -0.24766680901E+00  0.31225513889E+02 -0.64517446679E+01  0.31886032456E+02  0.00000000000E+00 0. -1.
         11    1    3    3    0    0  0.10897777276E+02 -0.59518167278E+01 -0.17189526936E+02  0.21205317929E+02  0.51100000000E-03 0. -1.
        -11    1    3    3    0    0  0.16963830853E+00 -0.91398401772E+01  0.13160041588E+02  0.16023487463E+02  0.51100000000E-03 0.  1.
         12    1    3    3    0    0 -0.10819748776E+02 -0.16133856984E+02  0.10481230016E+02  0.22073162152E+02  0.00000000000E+00 0. -1.
</event>
<event>
 7    1  0.4237994E-013  0.5930201E+02  0.7816164E-02  0.1266605E+00
        -11   -1    0    0    0    0  0.00000000000E+00  0.00000000000E+00  0.45593999997E+02  0.45594000000E+02  0.51100000000E-03 0. -1.
         11   -1    0    0    0    0 -0.00000000000E+00 -0.00000000000E+00 -0.45593999997E+02  0.45594000000E+02  0.51100000000E-03 0.  1.
    9900012    2    1    2    0    0  0.47310119039E+01  0.25455053812E+02 -0.18611124891E+02  0.59302012358E+02  0.50000124617E+02 0.  0.
         12    1    1    2    0    0 -0.47310119039E+01 -0.25455053812E+02  0.18611124891E+02  0.31885987642E+02  0.00000000000E+00 0. -1.
         11    1    3    3    0    0  0.17064450553E+02  0.32502665158E+02 -0.22089800680E+02  0.42843646080E+02  0.51100000000E-03 0. -1.
        -11    1    3    3    0    0 -0.31161211798E+01 -0.53986558352E+01 -0.56480089346E+00  0.62589692717E+01  0.51100000000E-03 0.  1.
         12    1    3    3    0    0 -0.92173174697E+01 -0.16489555103E+01  0.40434766821E+01  0.10199397006E+02  0.00000000000E+00 0. -1.
</event>
<event>
 7    1  0.4237994E-013  0.5930194E+02  0.7816164E-02  0.1266605E+00
        -11   -1    0    0    0    0  0.00000000000E+00  0.00000000000E+00  0.45593999997E+02  0.45594000000E+02  0.51100000000E-03 0.  1.
         11   -1    0    0    0    0 -0.00000000000E+00 -0.00000000000E+00 -0.45593999997E+02  0.45594000000E+02  0.51100000000E-03 0. -1.
    9900012    2    1    2    0    0  0.16738980377E+02  0.16593800155E+02  0.21474936878E+02  0.59301943775E+02  0.49999999539E+02 0.  0.
         12    1    1    2    0    0 -0.16738980377E+02 -0.16593800155E+02 -0.21474936878E+02  0.31886056225E+02  0.00000000000E+00 0. -1.
         11    1    3    3    0    0 -0.11759382434E+02  0.98302257615E+01  0.25060076293E+00  0.15329031762E+02  0.51100000000E-03 0. -1.
        -11    1    3    3    0    0  0.18559654734E+02  0.14036091433E+02  0.21461253598E+02  0.31655300548E+02  0.51100000000E-03 0.  1.
         12    1    3    3    0    0  0.99387080766E+01 -0.72725170389E+01 -0.23691748257E+00  0.12317611465E+02  0.00000000000E+00 0. -1.
</event>
<event>
 7    1  0.4237994E-013  0.5930196E+02  0.7816164E-02  0.1266605E+00
        -11   -1    0    0    0    0  0.00000000000E+00  0.00000000000E+00  0.45593999997E+02  0.45594000000E+02  0.51100000000E-03 0.  1.
         11   -1    0    0    0    0 -0.00000000000E+00 -0.00000000000E+00 -0.45593999997E+02  0.45594000000E+02  0.51100000000E-03 0. -1.
    9900012    2    1    2    0    0 -0.15824434605E+02 -0.20543020407E+02 -0.18555091371E+02  0.59301955501E+02  0.50000020925E+02 0.  0.
         12    1    1    2    0    0  0.15824434605E+02  0.20543020407E+02  0.18555091371E+02  0.31886044499E+02  0.00000000000E+00 0. -1.
         11    1    3    3    0    0 -0.26956221445E+02 -0.20531572180E+02 -0.51712717100E+01  0.34277184571E+02  0.51100000000E-03 0. -1.
        -11    1    3    3    0    0  0.13774680386E+01  0.67420080343E+01  0.33255027393E+00  0.68893164014E+01  0.51100000000E-03 0.  1.
         12    1    3    3    0    0  0.97543188019E+01 -0.67534562614E+01 -0.13716369935E+02  0.18135454528E+02  0.00000000000E+00 0. -1.
</event>
<event>
 7    1  0.4237994E-013  0.5930193E+02  0.7816164E-02  0.1266605E+00
        -11   -1    0    0    0    0  0.00000000000E+00  0.00000000000E+00  0.45593999997E+02  0.45594000000E+02  0.51100000000E-03 0. -1.
         11   -1    0    0    0    0 -0.00000000000E+00 -0.00000000000E+00 -0.45593999997E+02  0.45594000000E+02  0.51100000000E-03 0.  1.
    9900012    2    1    2    0    0 -0.20694618547E+02 -0.24186900182E+02 -0.18569401823E+01  0.59301927742E+02  0.49999970299E+02 0.  0.
         12    1    1    2    0    0  0.20694618547E+02  0.24186900182E+02  0.18569401823E+01  0.31886072258E+02  0.00000000000E+00 0. -1.
         11    1    3    3    0    0  0.35770725610E+01  0.64124576086E+01 -0.79394160938E+01  0.10814314073E+02  0.51100000000E-03 0. -1.
        -11    1    3    3    0    0 -0.25335719170E+02 -0.17988571862E+02  0.13433673614E+02  0.33851897592E+02  0.51100000000E-03 0.  1.
        -12    1    3    3    0    0  0.10640280627E+01 -0.12610785928E+02 -0.73511977025E+01  0.14635716078E+02  0.00000000000E+00 0.  1.
</event>
<event>
 7    1  0.4237994E-013  0.5930195E+02  0.7816164E-02  0.1266605E+00
        -11   -1    0    0    0    0  0.00000000000E+00  0.00000000000E+00  0.45593999997E+02  0.45594000000E+02  0.51100000000E-03 0.  1.
         11   -1    0    0    0    0 -0.00000000000E+00 -0.00000000000E+00 -0.45593999997E+02  0.45594000000E+02  0.51100000000E-03 0. -1.
    9900012    2    1    2    0    0 -0.16332652806E+02  0.11623409786E+02  0.24796384526E+02  0.59301954646E+02  0.50000019366E+02 0.  0.
         12    1    1    2    0    0  0.16332652806E+02 -0.11623409786E+02 -0.24796384526E+02  0.31886045354E+02  0.00000000000E+00 0. -1.
         11    1    3    3    0    0  0.10318112955E+02  0.64070616740E+01  0.10383375316E+02  0.15978998012E+02  0.51100000000E-03 0. -1.
        -11    1    3    3    0    0 -0.21993594697E+02 -0.40507209324E+00  0.23152206816E+02  0.31935982400E+02  0.51100000000E-03 0.  1.
         12    1    3    3    0    0 -0.46571710638E+01  0.56214202051E+01 -0.87391976055E+01  0.11386974235E+02  0.00000000000E+00 0. -1.
</event>
<event>
 7    1  0.4237994E-013  0.5930194E+02  0.7816164E-02  0.1266605E+00
        -11   -1    0    0    0    0  0.00000000000E+00  0.00000000000E+00  0.45593999997E+02  0.45594000000E+02  0.51100000000E-03 0. -1.
         11   -1    0    0    0    0 -0.00000000000E+00 -0.00000000000E+00 -0.45593999997E+02  0.45594000000E+02  0.51100000000E-03 0.  1.
    9900012    2    1    2    0    0 -0.18192609077E+02 -0.19118539583E+02 -0.17895002105E+02  0.59301942214E+02  0.49999996692E+02 0.  0.
         12    1    1    2    0    0  0.18192609077E+02  0.19118539583E+02  0.17895002105E+02  0.31886057786E+02  0.00000000000E+00 0. -1.
         11    1    3    3    0    0 -0.15401470145E+02 -0.16585854271E+02  0.47998139733E+01  0.23137287199E+02  0.51100000000E-03 0. -1.
        -11    1    3    3    0    0 -0.59310604083E+01 -0.40913363656E+01 -0.28492577892E+02  0.29389513538E+02  0.51100000000E-03 0.  1.
         12    1    3    3    0    0  0.31399214766E+01  0.15586510535E+01  0.57977618131E+01  0.67751414766E+01  0.00000000000E+00 0. -1.
</event>
<event>
 7    1  0.4237994E-013  0.5930194E+02  0.7816164E-02  0.1266605E+00
        -11   -1    0    0    0    0  0.00000000000E+00  0.00000000000E+00  0.45593999997E+02  0.45594000000E+02  0.51100000000E-03 0. -1.
         11   -1    0    0    0    0 -0.00000000000E+00 -0.00000000000E+00 -0.45593999997E+02  0.45594000000E+02  0.51100000000E-03 0.  1.
    9900012    2    1    2    0    0 -0.12368161445E+02  0.26634713200E+02  0.12423427209E+02  0.59301938650E+02  0.49999990193E+02 0.  0.
         12    1    1    2    0    0  0.12368161445E+02 -0.26634713200E+02 -0.12423427209E+02  0.31886061350E+02  0.00000000000E+00 0. -1.
         11    1    3    3    0    0 -0.16571385468E+02  0.19941708338E+02  0.11946732270E+02  0.28548326746E+02  0.51100000000E-03 0. -1.
        -11    1    3    3    0    0  0.66710355929E+01 -0.95874132150E+01 -0.59124219166E+01  0.13091139798E+02  0.51100000000E-03 0.  1.
         12    1    3    3    0    0 -0.24678115693E+01  0.16280418077E+02  0.63891168555E+01  0.17662472106E+02  0.00000000000E+00 0. -1.
</event>
<event>
 7    1  0.4237994E-013  0.5930197E+02  0.7816164E-02  0.1266605E+00
        -11   -1    0    0    0    0  0.00000000000E+00  0.00000000000E+00  0.45593999997E+02  0.45594000000E+02  0.51100000000E-03 0.  1.
         11   -1    0    0    0    0 -0.00000000000E+00 -0.00000000000E+00 -0.45593999997E+02  0.45594000000E+02  0.51100000000E-03 0. -1.
    9900012    2    1    2    0    0  0.94384353536E+01  0.25767230142E+02 -0.16238361442E+02  0.59301974951E+02  0.50000056397E+02 0.  0.
         12    1    1    2    0    0 -0.94384353536E+01 -0.25767230142E+02  0.16238361442E+02  0.31886025049E+02  0.00000000000E+00 0. -1.
         11    1    3    3    0    0 -0.11488537533E+02 -0.25405513141E+00  0.27970175853E+01  0.11826848536E+02  0.51100000000E-03 0. -1.
        -11    1    3    3    0    0  0.42325295374E+01  0.20564325687E+02  0.76263234223E+00  0.21009221918E+02  0.51100000000E-03 0.  1.
         12    1    3    3    0    0  0.16694443349E+02  0.54569595857E+01 -0.19798011369E+02  0.26465904497E+02  0.00000000000E+00 0. -1.
</event>
<event>
 7    1  0.4237994E-013  0.5930193E+02  0.7816164E-02  0.1266605E+00
        -11   -1    0    0    0    0  0.00000000000E+00  0.00000000000E+00  0.45593999997E+02  0.45594000000E+02  0.51100000000E-03 0.  1.
         11   -1    0    0    0    0 -0.00000000000E+00 -0.00000000000E+00 -0.45593999997E+02  0.45594000000E+02  0.51100000000E-03 0. -1.
    9900012    2    1    2    0    0 -0.16476389558E+02 -0.26868145518E+02 -0.48324445472E+01  0.59301934442E+02  0.49999982518E+02 0.  0.
         12    1    1    2    0    0  0.16476389558E+02  0.26868145518E+02  0.48324445472E+01  0.31886065558E+02  0.00000000000E+00 0. -1.
         11    1    3    3    0    0 -0.10576262697E+02  0.82476267077E+01  0.41384082517E+01  0.14035921846E+02  0.51100000000E-03 0.  1.
        -11    1    3    3    0    0 -0.21592017714E+01 -0.34647882323E+02  0.87178721178E+00  0.34726040876E+02  0.51100000000E-03 0. -1.
        -12    1    3    3    0    0 -0.37409250899E+01 -0.46788990351E+00 -0.98426400107E+01  0.10539971721E+02  0.00000000000E+00 0.  1.
</event>
<event>
 7    1  0.4237994E-013  0.5930194E+02  0.7816164E-02  0.1266605E+00
        -11   -1    0    0    0    0  0.00000000000E+00  0.00000000000E+00  0.45593999997E+02  0.45594000000E+02  0.51100000000E-03 0.  1.
         11   -1    0    0    0    0 -0.00000000000E+00 -0.00000000000E+00 -0.45593999997E+02  0.45594000000E+02  0.51100000000E-03 0. -1.
    9900012    2    1    2    0    0 -0.21539804338E+02  0.30644712208E+01 -0.23310228493E+02  0.59301938670E+02  0.49999990229E+02 0.  0.
         12    1    1    2    0    0  0.21539804338E+02 -0.30644712208E+01  0.23310228493E+02  0.31886061330E+02  0.00000000000E+00 0. -1.
         11    1    3    3    0    0 -0.33046261697E+02  0.95264165171E+01 -0.17763509681E+02  0.38708530071E+02  0.51100000000E-03 0. -1.
        -11    1    3    3    0    0  0.45273116156E+01  0.29903909707E+01 -0.68869848505E+01  0.87675281132E+01  0.51100000000E-03 0.  1.
         12    1    3    3    0    0  0.69791457433E+01 -0.94523362671E+01  0.13402660393E+01  0.11825880486E+02  0.00000000000E+00 0. -1.
</event>
<event>
 7    1  0.4237994E-013  0.5930196E+02  0.7816164E-02  0.1266605E+00
        -11   -1    0    0    0    0  0.00000000000E+00  0.00000000000E+00  0.45593999997E+02  0.45594000000E+02  0.51100000000E-03 0.  1.
         11   -1    0    0    0    0 -0.00000000000E+00 -0.00000000000E+00 -0.45593999997E+02  0.45594000000E+02  0.51100000000E-03 0. -1.
    9900012    2    1    2    0    0  0.27681450075E+02 -0.95200989239E+00  0.15797172156E+02  0.59301958395E+02  0.50000026203E+02 0.  0.
         12    1    1    2    0    0 -0.27681450075E+02  0.95200989239E+00 -0.15797172156E+02  0.31886041605E+02  0.00000000000E+00 0. -1.
         11    1    3    3    0    0  0.44462671612E+00 -0.64277264552E+01  0.10632406163E+02  0.12432273379E+02  0.51100000000E-03 0. -1.
        -11    1    3    3    0    0  0.29060178856E+02  0.14457370094E+02  0.12850106524E+02  0.34908949900E+02  0.51100000000E-03 0.  1.
         12    1    3    3    0    0 -0.18233554970E+01 -0.89816535314E+01 -0.76853405314E+01  0.11960735116E+02  0.00000000000E+00 0. -1.
</event>
<event>
 7    1  0.4237994E-013  0.5930195E+02  0.7816164E-02  0.1266605E+00
        -11   -1    0    0    0    0  0.00000000000E+00  0.00000000000E+00  0.45593999997E+02  0.45594000000E+02  0.51100000000E-03 0.  1.
         11   -1    0    0    0    0 -0.00000000000E+00 -0.00000000000E+00 -0.45593999997E+02  0.45594000000E+02  0.51100000000E-03 0. -1.
    9900012    2    1    2    0    0  0.45379492999E+01  0.53226391442E+01  0.31109435006E+02  0.59301946345E+02  0.50000004226E+02 0.  0.
         12    1    1    2    0    0 -0.45379492999E+01 -0.53226391442E+01 -0.31109435006E+02  0.31886053655E+02  0.00000000000E+00 0. -1.
         11    1    3    3    0    0  0.10586636541E+02  0.25614766291E+02  0.14592485521E+02  0.31323054757E+02  0.51100000000E-03 0.  1.
        -11    1    3    3    0    0 -0.19342326026E+01 -0.17241784692E+02  0.11540319617E+02  0.20837451193E+02  0.51100000000E-03 0. -1.
        -12    1    3    3    0    0 -0.41144546380E+01 -0.30503424552E+01  0.49766298681E+01  0.71414403944E+01  0.00000000000E+00 0.  1.
</event>
<event>
 7    1  0.4237994E-013  0.5930195E+02  0.7816164E-02  0.1266605E+00
        -11   -1    0    0    0    0  0.00000000000E+00  0.00000000000E+00  0.45593999997E+02  0.45594000000E+02  0.51100000000E-03 0.  1.
         11   -1    0    0    0    0 -0.00000000000E+00 -0.00000000000E+00 -0.45593999997E+02  0.45594000000E+02  0.51100000000E-03 0. -1.
    9900012    2    1    2    0    0 -0.14395236757E+02 -0.27403876405E+02  0.76501498857E+01  0.59301951694E+02  0.50000013981E+02 0.  0.
         12    1    1    2    0    0  0.14395236757E+02  0.27403876405E+02 -0.76501498857E+01  0.31886048306E+02  0.00000000000E+00 0. -1.
         11    1    3    3    0    0 -0.23603794965E+02 -0.22608686348E+02 -0.45150597698E+01  0.32995114792E+02  0.51100000000E-03 0. -1.
        -11    1    3    3    0    0  0.99432470368E+01 -0.10300423654E+02  0.14413117304E+02  0.20315138192E+02  0.51100000000E-03 0.  1.
         12    1    3    3    0    0 -0.73468882954E+00  0.55052335977E+01 -0.22479076482E+01  0.59916987104E+01  0.00000000000E+00 0. -1.
</event>
<event>
 7    1  0.4237994E-013  0.5930195E+02  0.7816164E-02  0.1266605E+00
        -11   -1    0    0    0    0  0.00000000000E+00  0.00000000000E+00  0.45593999997E+02  0.45594000000E+02  0.51100000000E-03 0.  1.
         11   -1    0    0    0    0 -0.00000000000E+00 -0.00000000000E+00 -0.45593999997E+02  0.45594000000E+02  0.51100000000E-03 0. -1.
    9900012    2    1    2    0    0  0.23522615409E+01  0.28353590164E+02  0.14396562147E+02  0.59301949583E+02  0.50000010131E+02 0.  0.
         12    1    1    2    0    0 -0.23522615409E+01 -0.28353590164E+02 -0.14396562147E+02  0.31886050417E+02  0.00000000000E+00 0. -1.
         11    1    3    3    0    0 -0.53944937640E+01  0.34099061112E+02 -0.56391464521E+01  0.34980659008E+02  0.51100000000E-03 0. -1.
        -11    1    3    3    0    0  0.23437916585E+01 -0.74309392412E+01  0.14165272173E+02  0.16166853539E+02  0.51100000000E-03 0.  1.
        -12    1    3    3    0    0  0.54029636463E+01  0.16854682935E+01  0.58704364262E+01  0.81544370355E+01  0.00000000000E+00 0.  1.
</event>
<event>
 7    1  0.4237994E-013  0.5930191E+02  0.7816164E-02  0.1266605E+00
        -11   -1    0    0    0    0  0.00000000000E+00  0.00000000000E+00  0.45593999997E+02  0.45594000000E+02  0.51100000000E-03 0.  1.
         11   -1    0    0    0    0 -0.00000000000E+00 -0.00000000000E+00 -0.45593999997E+02  0.45594000000E+02  0.51100000000E-03 0. -1.
    9900012    2    1    2    0    0 -0.13678138413E+02 -0.19501576983E+02  0.21197158207E+02  0.59301913829E+02  0.49999944925E+02 0.  0.
         12    1    1    2    0    0  0.13678138413E+02  0.19501576983E+02 -0.21197158207E+02  0.31886086171E+02  0.00000000000E+00 0. -1.
         11    1    3    3    0    0  0.17135393321E+02  0.25233671137E+01  0.59997104074E+01  0.18329910285E+02  0.51100000000E-03 0. -1.
        -11    1    3    3    0    0 -0.22019552762E+01 -0.27061269226E+01  0.88170689055E+00  0.35984909701E+01  0.51100000000E-03 0.  1.
         12    1    3    3    0    0 -0.28611576457E+02 -0.19318817174E+02  0.14315740909E+02  0.37373512574E+02  0.00000000000E+00 0. -1.
</event>
<event>
 7    1  0.4237994E-013  0.5930197E+02  0.7816164E-02  0.1266605E+00
        -11   -1    0    0    0    0  0.00000000000E+00  0.00000000000E+00  0.45593999997E+02  0.45594000000E+02  0.51100000000E-03 0.  1.
         11   -1    0    0    0    0 -0.00000000000E+00 -0.00000000000E+00 -0.45593999997E+02  0.45594000000E+02  0.51100000000E-03 0. -1.
    9900012    2    1    2    0    0  0.77746877294E+01 -0.11268492530E+01  0.30903126109E+02  0.59301972310E+02  0.50000051580E+02 0.  0.
         12    1    1    2    0    0 -0.77746877294E+01  0.11268492530E+01 -0.30903126109E+02  0.31886027690E+02  0.00000000000E+00 0. -1.
         11    1    3    3    0    0 -0.12775750921E+02 -0.24739056506E+01  0.70396679603E+00  0.13032098460E+02  0.51100000000E-03 0. -1.
        -11    1    3    3    0    0  0.17135889039E+02  0.13180054753E+02  0.24575605293E+02  0.32730916764E+02  0.51100000000E-03 0.  1.
         12    1    3    3    0    0  0.34145496112E+01 -0.11832998355E+02  0.56235540207E+01  0.13538957085E+02  0.00000000000E+00 0. -1.
</event>
<event>
 7    1  0.4237994E-013  0.5930195E+02  0.7816164E-02  0.1266605E+00
        -11   -1    0    0    0    0  0.00000000000E+00  0.00000000000E+00  0.45593999997E+02  0.45594000000E+02  0.51100000000E-03 0.  1.
         11   -1    0    0    0    0 -0.00000000000E+00 -0.00000000000E+00 -0.45593999997E+02  0.45594000000E+02  0.51100000000E-03 0. -1.
    9900012    2    1    2    0    0  0.40746555244E+01  0.20828094963E+02  0.23797227289E+02  0.59301946872E+02  0.50000005188E+02 0.  0.
         12    1    1    2    0    0 -0.40746555244E+01 -0.20828094963E+02 -0.23797227289E+02  0.31886053128E+02  0.00000000000E+00 0. -1.
         11    1    3    3    0    0  0.18355258015E+01 -0.50604394099E+01  0.93882900556E+01  0.10822069692E+02  0.51100000000E-03 0. -1.
        -11    1    3    3    0    0 -0.16885210369E+02  0.20023672948E+02  0.96876119964E+01  0.27926826422E+02  0.51100000000E-03 0.  1.
        -12    1    3    3    0    0  0.19124340092E+02  0.58648614246E+01  0.47213252365E+01  0.20553050758E+02  0.00000000000E+00 0.  1.
</event>
<event>
 7    1  0.4237994E-013  0.5930194E+02  0.7816164E-02  0.1266605E+00
        -11   -1    0    0    0    0  0.00000000000E+00  0.00000000000E+00  0.45593999997E+02  0.45594000000E+02  0.51100000000E-03 0.  1.
         11   -1    0    0    0    0 -0.00000000000E+00 -0.00000000000E+00 -0.45593999997E+02  0.45594000000E+02  0.51100000000E-03 0. -1.
    9900012    2    1    2    0    0 -0.25701051747E+02 -0.18857484363E+02  0.75629212656E+00  0.59301941053E+02  0.49999994574E+02 0.  0.
         12    1    1    2    0    0  0.25701051747E+02  0.18857484363E+02 -0.75629212656E+00  0.31886058947E+02  0.00000000000E+00 0. -1.
         11    1    3    3    0    0  0.43611940337E+00 -0.19779060031E+02 -0.17910200884E+02  0.26686639201E+02  0.51100000000E-03 0. -1.
        -11    1    3    3    0    0 -0.10648046164E+02  0.22336942952E+00  0.43261178336E+01  0.11495480711E+02  0.51100000000E-03 0.  1.
         12    1    3    3    0    0 -0.15489124987E+02  0.69820623876E+00  0.14340375177E+02  0.21119821141E+02  0.00000000000E+00 0. -1.
</event>
<event>
 7    1  0.4237994E-013  0.5930194E+02  0.7816164E-02  0.1266605E+00
        -11   -1    0    0    0    0  0.00000000000E+00  0.00000000000E+00  0.45593999997E+02  0.45594000000E+02  0.51100000000E-03 0.  1.
         11   -1    0    0    0    0 -0.00000000000E+00 -0.00000000000E+00 -0.45593999997E+02  0.45594000000E+02  0.51100000000E-03 0. -1.
    9900012    2    1    2    0    0  0.19552830084E+02  0.21990628483E+02  0.12280874531E+02  0.59301940592E+02  0.49999993734E+02 0.  0.
         12    1    1    2    0    0 -0.19552830084E+02 -0.21990628483E+02 -0.12280874531E+02  0.31886059408E+02  0.00000000000E+00 0. -1.
         11    1    3    3    0    0 -0.51715260339E+01 -0.17071365699E+01  0.38095031411E+01  0.66461501060E+01  0.51100000000E-03 0. -1.
        -11    1    3    3    0    0  0.35388213496E+02  0.20171077737E+02  0.63474367545E+01  0.41224846696E+02  0.51100000000E-03 0.  1.
        -12    1    3    3    0    0 -0.10663857378E+02  0.35266873154E+01  0.21239346350E+01  0.11430943790E+02  0.00000000000E+00 0.  1.
</event>
<event>
 7    1  0.4237994E-013  0.5930193E+02  0.7816164E-02  0.1266605E+00
        -11   -1    0    0    0    0  0.00000000000E+00  0.00000000000E+00  0.45593999997E+02  0.45594000000E+02  0.51100000000E-03 0. -1.
         11   -1    0    0    0    0 -0.00000000000E+00 -0.00000000000E+00 -0.45593999997E+02  0.45594000000E+02  0.51100000000E-03 0.  1.
    9900012    2    1    2    0    0  0.15157456552E+02 -0.97248926336E+01 -0.26313478931E+02  0.59301934089E+02  0.49999981874E+02 0.  0.
         12    1    1    2    0    0 -0.15157456552E+02  0.97248926336E+01  0.26313478931E+02  0.31886065911E+02  0.00000000000E+00 0. -1.
         11    1    3    3    0    0  0.25158050263E+02  0.83680929700E+01 -0.17173496530E+02  0.31589261725E+02  0.51100000000E-03 0. -1.
        -11    1    3    3    0    0  0.39870632389E+01 -0.64945345161E+01 -0.62683512097E+00  0.76464746375E+01  0.51100000000E-03 0.  1.
         12    1    3    3    0    0 -0.13987656950E+02 -0.11598451087E+02 -0.85131472801E+01  0.20066197727E+02  0.00000000000E+00 0. -1.
</event>
<event>
 7    1  0.4237994E-013  0.5930197E+02  0.7816164E-02  0.1266605E+00
        -11   -1    0    0    0    0  0.00000000000E+00  0.00000000000E+00  0.45593999997E+02  0.45594000000E+02  0.51100000000E-03 0. -1.
         11   -1    0    0    0    0 -0.00000000000E+00 -0.00000000000E+00 -0.45593999997E+02  0.45594000000E+02  0.51100000000E-03 0.  1.
    9900012    2    1    2    0    0 -0.22456258794E+02  0.11172701332E+02 -0.19687708402E+02  0.59301973653E+02  0.50000054029E+02 0.  0.
         12    1    1    2    0    0  0.22456258794E+02 -0.11172701332E+02  0.19687708402E+02  0.31886026347E+02  0.00000000000E+00 0. -1.
         11    1    3    3    0    0 -0.48352440345E+01 -0.31529426749E+01  0.14172855481E+02  0.15303282822E+02  0.51100000000E-03 0. -1.
        -11    1    3    3    0    0 -0.33108863241E+01  0.11643547383E+02 -0.86220010541E+01  0.14861798894E+02  0.51100000000E-03 0.  1.
         12    1    3    3    0    0 -0.14310128436E+02  0.26820966238E+01 -0.25238562828E+02  0.29136891938E+02  0.00000000000E+00 0. -1.
</event>
<event>
 7    1  0.4237994E-013  0.5930230E+02  0.7816164E-02  0.1266604E+00
        -11   -1    0    0    0    0  0.00000000000E+00  0.00000000000E+00  0.45593999997E+02  0.45594000000E+02  0.51100000000E-03 0.  1.
         11   -1    0    0    0    0 -0.00000000000E+00 -0.00000000000E+00 -0.45593999997E+02  0.45594000000E+02  0.51100000000E-03 0. -1.
    9900012    2    1    2    0    0  0.61606347109E+01  0.27305600153E+02  0.15269214181E+02  0.59302295971E+02  0.50000641856E+02 0.  0.
         12    1    1    2    0    0 -0.61606347109E+01 -0.27305600153E+02 -0.15269214181E+02  0.31885704029E+02  0.00000000000E+00 0. -1.
         11    1    3    3    0    0 -0.16358108991E+02  0.27534069701E+02  0.10611703141E+02  0.33739012551E+02  0.51100000000E-03 0. -1.
        -11    1    3    3    0    0  0.14589371335E+02  0.41854744356E+01 -0.38222041421E+00  0.15182688988E+02  0.51100000000E-03 0.  1.
         12    1    3    3    0    0  0.79293723677E+01 -0.44139439841E+01  0.50397314535E+01  0.10380594432E+02  0.00000000000E+00 0. -1.
</event>
<event>
 7    1  0.4237994E-013  0.5930194E+02  0.7816164E-02  0.1266605E+00
        -11   -1    0    0    0    0  0.00000000000E+00  0.00000000000E+00  0.45593999997E+02  0.45594000000E+02  0.51100000000E-03 0.  1.
         11   -1    0    0    0    0 -0.00000000000E+00 -0.00000000000E+00 -0.45593999997E+02  0.45594000000E+02  0.51100000000E-03 0. -1.
    9900012    2    1    2    0    0 -0.32100544623E+01  0.21571643939E+02  0.23261144426E+02  0.59301935459E+02  0.49999984373E+02 0.  0.
         12    1    1    2    0    0  0.32100544623E+01 -0.21571643939E+02 -0.23261144426E+02  0.31886064541E+02  0.00000000000E+00 0. -1.
         11    1    3    3    0    0 -0.64667150039E+01 -0.44815253304E+01  0.26916741734E+01  0.83155025311E+01  0.51100000000E-03 0. -1.
        -11    1    3    3    0    0  0.81754096090E+01  0.19855848618E+02  0.31113482909E+02  0.37803979494E+02  0.51100000000E-03 0.  1.
        -12    1    3    3    0    0 -0.49187490675E+01  0.61973206514E+01 -0.10544012656E+02  0.13182453434E+02  0.00000000000E+00 0.  1.
</event>
<event>
 7    1  0.4237994E-013  0.5930192E+02  0.7816164E-02  0.1266605E+00
        -11   -1    0    0    0    0  0.00000000000E+00  0.00000000000E+00  0.45593999997E+02  0.45594000000E+02  0.51100000000E-03 0.  1.
         11   -1    0    0    0    0 -0.00000000000E+00 -0.00000000000E+00 -0.45593999997E+02  0.45594000000E+02  0.51100000000E-03 0. -1.
    9900012    2    1    2    0    0 -0.84327524866E+00  0.30539543177E+02  0.91294731673E+01  0.59301920107E+02  0.49999956375E+02 0.  0.
         12    1    1    2    0    0  0.84327524866E+00 -0.30539543177E+02 -0.91294731673E+01  0.31886079893E+02  0.00000000000E+00 0. -1.
         11    1    3    3    0    0  0.16316539987E+02  0.44243412910E+01 -0.30804149920E+01  0.17184098166E+02  0.51100000000E-03 0. -1.
        -11    1    3    3    0    0 -0.94898624991E+01  0.29415309913E+02  0.54727672803E+01  0.31388996950E+02  0.51100000000E-03 0.  1.
        -12    1    3    3    0    0 -0.76699527363E+01 -0.33001080269E+01  0.67371208790E+01  0.10728824992E+02  0.00000000000E+00 0.  1.
</event>
<event>
 7    1  0.4237994E-013  0.5930203E+02  0.7816164E-02  0.1266604E+00
        -11   -1    0    0    0    0  0.00000000000E+00  0.00000000000E+00  0.45593999997E+02  0.45594000000E+02  0.51100000000E-03 0. -1.
         11   -1    0    0    0    0 -0.00000000000E+00 -0.00000000000E+00 -0.45593999997E+02  0.45594000000E+02  0.51100000000E-03 0.  1.
    9900012    2    1    2    0    0 -0.26689089899E+02 -0.17290257027E+02 -0.23355158870E+01  0.59302029069E+02  0.50000155095E+02 0.  0.
         12    1    1    2    0    0  0.26689089899E+02  0.17290257027E+02  0.23355158870E+01  0.31885970931E+02  0.00000000000E+00 0. -1.
         11    1    3    3    0    0 -0.34479488548E+02 -0.75406350554E+00  0.63544386588E+01  0.35068256775E+02  0.51100000000E-03 0. -1.
        -11    1    3    3    0    0  0.19842572784E+01 -0.15653258932E+02 -0.30090593246E+01  0.16062883627E+02  0.51100000000E-03 0.  1.
         12    1    3    3    0    0  0.58061413700E+01 -0.88293458940E+00 -0.56808952213E+01  0.81708886673E+01  0.00000000000E+00 0. -1.
</event>
<event>
 7    1  0.4237994E-013  0.5930194E+02  0.7816164E-02  0.1266605E+00
        -11   -1    0    0    0    0  0.00000000000E+00  0.00000000000E+00  0.45593999997E+02  0.45594000000E+02  0.51100000000E-03 0. -1.
         11   -1    0    0    0    0 -0.00000000000E+00 -0.00000000000E+00 -0.45593999997E+02  0.45594000000E+02  0.51100000000E-03 0.  1.
    9900012    2    1    2    0    0  0.23514490463E+02 -0.21190850688E+02 -0.38389432467E+01  0.59301938784E+02  0.49999990437E+02 0.  0.
         12    1    1    2    0    0 -0.23514490463E+02  0.21190850688E+02  0.38389432467E+01  0.31886061216E+02  0.00000000000E+00 0. -1.
         11    1    3    3    0    0  0.25617874851E+02  0.23544443940E+01  0.48907202420E+01  0.26186600868E+02  0.51100000000E-03 0. -1.
        -11    1    3    3    0    0  0.52125060702E+01 -0.10095853421E+02  0.51272019950E+01  0.12465339000E+02  0.51100000000E-03 0.  1.
         12    1    3    3    0    0 -0.73158904584E+01 -0.13449441661E+02 -0.13856865484E+02  0.20649998916E+02  0.00000000000E+00 0. -1.
</event>
<event>
 7    1  0.4237994E-013  0.5930194E+02  0.7816164E-02  0.1266605E+00
        -11   -1    0    0    0    0  0.00000000000E+00  0.00000000000E+00  0.45593999997E+02  0.45594000000E+02  0.51100000000E-03 0. -1.
         11   -1    0    0    0    0 -0.00000000000E+00 -0.00000000000E+00 -0.45593999997E+02  0.45594000000E+02  0.51100000000E-03 0.  1.
    9900012    2    1    2    0    0  0.11026121170E+02 -0.12897316988E+02 -0.26996379169E+02  0.59301943144E+02  0.49999998389E+02 0.  0.
         12    1    1    2    0    0 -0.11026121170E+02  0.12897316988E+02  0.26996379169E+02  0.31886056856E+02  0.00000000000E+00 0. -1.
         11    1    3    3    0    0 -0.77073909012E+01 -0.11582861845E+02 -0.22848017479E+02  0.26750672253E+02  0.51100000000E-03 0.  1.
        -11    1    3    3    0    0  0.17809800860E+02  0.10325568302E+02 -0.20599524499E+01  0.20689363736E+02  0.51100000000E-03 0. -1.
         12    1    3    3    0    0  0.92371121102E+00 -0.11640023445E+02 -0.20884092404E+01  0.11861907155E+02  0.00000000000E+00 0. -1.
</event>
<event>
 7    1  0.4237994E-013  0.5930198E+02  0.7816164E-02  0.1266605E+00
        -11   -1    0    0    0    0  0.00000000000E+00  0.00000000000E+00  0.45593999997E+02  0.45594000000E+02  0.51100000000E-03 0.  1.
         11   -1    0    0    0    0 -0.00000000000E+00 -0.00000000000E+00 -0.45593999997E+02  0.45594000000E+02  0.51100000000E-03 0. -1.
    9900012    2    1    2    0    0 -0.15775157140E+02 -0.27705870750E+02  0.49714694479E+00  0.59301984070E+02  0.50000073028E+02 0.  0.
         12    1    1    2    0    0  0.15775157140E+02  0.27705870750E+02 -0.49714694479E+00  0.31886015930E+02  0.00000000000E+00 0. -1.
         11    1    3    3    0    0  0.73760613829E+00  0.61786166016E+01 -0.10579386717E+02  0.12273662432E+02  0.51100000000E-03 0. -1.
        -11    1    3    3    0    0 -0.10295344064E+02 -0.37240635222E+02  0.91915705371E+01  0.39715790189E+02  0.51100000000E-03 0.  1.
        -12    1    3    3    0    0 -0.62174192137E+01  0.33561478706E+01  0.18849631252E+01  0.73125314489E+01  0.00000000000E+00 0.  1.
</event>
<event>
 7    1  0.4237994E-013  0.5930196E+02  0.7816164E-02  0.1266605E+00
        -11   -1    0    0    0    0  0.00000000000E+00  0.00000000000E+00  0.45593999997E+02  0.45594000000E+02  0.51100000000E-03 0.  1.
         11   -1    0    0    0    0 -0.00000000000E+00 -0.00000000000E+00 -0.45593999997E+02  0.45594000000E+02  0.51100000000E-03 0. -1.
    9900012    2    1    2    0    0  0.30335789323E+02 -0.96906653805E+01  0.15969387811E+01  0.59301963514E+02  0.50000035538E+02 0.  0.
         12    1    1    2    0    0 -0.30335789323E+02  0.96906653805E+01 -0.15969387811E+01  0.31886036486E+02  0.00000000000E+00 0. -1.
         11    1    3    3    0    0  0.25601234244E+02 -0.12964284376E+02 -0.12357693642E+02  0.31244334792E+02  0.51100000000E-03 0. -1.
        -11    1    3    3    0    0  0.10501079097E+02 -0.31320957125E+01  0.15814713361E+02  0.19240266232E+02  0.51100000000E-03 0.  1.
        -12    1    3    3    0    0 -0.57665240180E+01  0.64057147082E+01 -0.18600809378E+01  0.88173624893E+01  0.00000000000E+00 0.  1.
</event>
<event>
 7    1  0.4237994E-013  0.5930192E+02  0.7816164E-02  0.1266605E+00
        -11   -1    0    0    0    0  0.00000000000E+00  0.00000000000E+00  0.45593999997E+02  0.45594000000E+02  0.51100000000E-03 0.  1.
         11   -1    0    0    0    0 -0.00000000000E+00 -0.00000000000E+00 -0.45593999997E+02  0.45594000000E+02  0.51100000000E-03 0. -1.
    9900012    2    1    2    0    0  0.16711216146E+02  0.23885677007E+02 -0.12920211808E+02  0.59301918642E+02  0.49999953703E+02 0.  0.
         12    1    1    2    0    0 -0.16711216146E+02 -0.23885677007E+02  0.12920211808E+02  0.31886081358E+02  0.00000000000E+00 0. -1.
         11    1    3    3    0    0  0.20646911849E+02  0.26814680413E+02 -0.86056051957E+01  0.34919600450E+02  0.51100000000E-03 0.  1.
        -11    1    3    3    0    0 -0.95639532991E+01 -0.10709662934E+02 -0.19286605570E+01  0.14487436442E+02  0.51100000000E-03 0. -1.
         12    1    3    3    0    0  0.56282575962E+01  0.77806595282E+01 -0.23859460554E+01  0.98948817498E+01  0.00000000000E+00 0. -1.
</event>
<event>
 7    1  0.4237994E-013  0.5930193E+02  0.7816164E-02  0.1266605E+00
        -11   -1    0    0    0    0  0.00000000000E+00  0.00000000000E+00  0.45593999997E+02  0.45594000000E+02  0.51100000000E-03 0.  1.
         11   -1    0    0    0    0 -0.00000000000E+00 -0.00000000000E+00 -0.45593999997E+02  0.45594000000E+02  0.51100000000E-03 0. -1.
    9900012    2    1    2    0    0 -0.26764083765E+02  0.15644974753E+02  0.74592116854E+01  0.59301933235E+02  0.49999980316E+02 0.  0.
         12    1    1    2    0    0  0.26764083765E+02 -0.15644974753E+02 -0.74592116854E+01  0.31886066765E+02  0.00000000000E+00 0. -1.
         11    1    3    3    0    0 -0.10550420346E+02  0.19551903304E+02 -0.13591188703E+02  0.26044360290E+02  0.51100000000E-03 0. -1.
        -11    1    3    3    0    0  0.64235390021E+00 -0.71512210023E+01  0.11655042787E+02  0.13689141791E+02  0.51100000000E-03 0.  1.
         12    1    3    3    0    0 -0.16856017319E+02  0.32442924516E+01  0.93953576010E+01  0.19568431154E+02  0.00000000000E+00 0. -1.
</event>
<event>
 7    1  0.4237994E-013  0.5930195E+02  0.7816164E-02  0.1266605E+00
        -11   -1    0    0    0    0  0.00000000000E+00  0.00000000000E+00  0.45593999997E+02  0.45594000000E+02  0.51100000000E-03 0. -1.
         11   -1    0    0    0    0 -0.00000000000E+00 -0.00000000000E+00 -0.45593999997E+02  0.45594000000E+02  0.51100000000E-03 0.  1.
    9900012    2    1    2    0    0 -0.25213388183E+02  0.19452102109E+02 -0.16190315630E+01  0.59301945316E+02  0.50000002349E+02 0.  0.
         12    1    1    2    0    0  0.25213388183E+02 -0.19452102109E+02  0.16190315630E+01  0.31886054684E+02  0.00000000000E+00 0. -1.
         11    1    3    3    0    0 -0.86594179727E+01  0.16575991543E+02 -0.12013198001E+02  0.22227594151E+02  0.51100000000E-03 0. -1.
        -11    1    3    3    0    0 -0.25531757180E+02  0.33917077168E+01  0.11116839871E+02  0.28052779451E+02  0.51100000000E-03 0.  1.
         12    1    3    3    0    0  0.89777869697E+01 -0.51559715112E+00 -0.72267343349E+00  0.90215717138E+01  0.00000000000E+00 0. -1.
</event>
<event>
 7    1  0.4237994E-013  0.5930194E+02  0.7816164E-02  0.1266605E+00
        -11   -1    0    0    0    0  0.00000000000E+00  0.00000000000E+00  0.45593999997E+02  0.45594000000E+02  0.51100000000E-03 0.  1.
         11   -1    0    0    0    0 -0.00000000000E+00 -0.00000000000E+00 -0.45593999997E+02  0.45594000000E+02  0.51100000000E-03 0. -1.
    9900012    2    1    2    0    0 -0.19103491744E+02 -0.67083629886E+01  0.24632807507E+02  0.59301941346E+02  0.49999995109E+02 0.  0.
         12    1    1    2    0    0  0.19103491744E+02  0.67083629886E+01 -0.24632807507E+02  0.31886058654E+02  0.00000000000E+00 0. -1.
         11    1    3    3    0    0 -0.15472466520E+02 -0.15231086691E+02 -0.45391566947E+01  0.22180783705E+02  0.51100000000E-03 0. -1.
        -11    1    3    3    0    0 -0.66135701135E+01 -0.65196029314E+00  0.26195202693E+02  0.27025044057E+02  0.51100000000E-03 0.  1.
         12    1    3    3    0    0  0.29825448888E+01  0.91746839956E+01  0.29767615086E+01  0.10096113585E+02  0.00000000000E+00 0. -1.
</event>
<event>
 7    1  0.4237994E-013  0.5930185E+02  0.7816164E-02  0.1266605E+00
        -11   -1    0    0    0    0  0.00000000000E+00  0.00000000000E+00  0.45593999997E+02  0.45594000000E+02  0.51100000000E-03 0.  1.
         11   -1    0    0    0    0 -0.00000000000E+00 -0.00000000000E+00 -0.45593999997E+02  0.45594000000E+02  0.51100000000E-03 0. -1.
    9900012    2    1    2    0    0 -0.21245630550E+02 -0.23642701685E+02 -0.25243747771E+01  0.59301848955E+02  0.49999826610E+02 0.  0.
         12    1    1    2    0    0  0.21245630550E+02  0.23642701685E+02  0.25243747771E+01  0.31886151045E+02  0.00000000000E+00 0. -1.
         11    1    3    3    0    0 -0.75681540661E+01  0.10051768278E+02  0.29081833988E+01  0.12914043999E+02  0.51100000000E-03 0. -1.
        -11    1    3    3    0    0 -0.20755256646E+02 -0.30837622755E+02 -0.85511904130E+01  0.38142660019E+02  0.51100000000E-03 0.  1.
         12    1    3    3    0    0  0.70777801620E+01 -0.28568472077E+01  0.31186322371E+01  0.82451449363E+01  0.00000000000E+00 0. -1.
</event>
<event>
 7    1  0.4237994E-013  0.5930223E+02  0.7816164E-02  0.1266604E+00
        -11   -1    0    0    0    0  0.00000000000E+00  0.00000000000E+00  0.45593999997E+02  0.45594000000E+02  0.51100000000E-03 0. -1.
         11   -1    0    0    0    0 -0.00000000000E+00 -0.00000000000E+00 -0.45593999997E+02  0.45594000000E+02  0.51100000000E-03 0.  1.
    9900012    2    1    2    0    0 -0.62079122943E+01  0.27420728574E+02 -0.15042202663E+02  0.59302229011E+02  0.50000519739E+02 0.  0.
         12    1    1    2    0    0  0.62079122943E+01 -0.27420728574E+02  0.15042202663E+02  0.31885770989E+02  0.00000000000E+00 0. -1.
         11    1    3    3    0    0  0.49572643564E+00 -0.10012452994E+02  0.56112246643E+01  0.11488289783E+02  0.51100000000E-03 0. -1.
        -11    1    3    3    0    0 -0.10076479221E+02  0.30463370834E+02 -0.81473079127E+01  0.33104848928E+02  0.51100000000E-03 0.  1.
        -12    1    3    3    0    0  0.33728404910E+01  0.69698107336E+01 -0.12506119415E+02  0.14709090300E+02  0.00000000000E+00 0.  1.
</event>
<event>
 7    1  0.4237994E-013  0.5930194E+02  0.7816164E-02  0.1266605E+00
        -11   -1    0    0    0    0  0.00000000000E+00  0.00000000000E+00  0.45593999997E+02  0.45594000000E+02  0.51100000000E-03 0.  1.
         11   -1    0    0    0    0 -0.00000000000E+00 -0.00000000000E+00 -0.45593999997E+02  0.45594000000E+02  0.51100000000E-03 0. -1.
    9900012    2    1    2    0    0 -0.11989018607E+02  0.21977571319E+02  0.19747676893E+02  0.59301937984E+02  0.49999988977E+02 0.  0.
         12    1    1    2    0    0  0.11989018607E+02 -0.21977571319E+02 -0.19747676893E+02  0.31886062016E+02  0.00000000000E+00 0. -1.
         11    1    3    3    0    0 -0.84206485395E+01  0.30989057333E+02 -0.86723323046E+00  0.32124462485E+02  0.51100000000E-03 0.  1.
        -11    1    3    3    0    0  0.35804410788E+01 -0.98620224681E+01  0.12837102681E+02  0.16579211410E+02  0.51100000000E-03 0. -1.
        -12    1    3    3    0    0 -0.71488111463E+01  0.85053645368E+00  0.77778074430E+01  0.10598264088E+02  0.00000000000E+00 0.  1.
</event>
<event>
 7    1  0.4237994E-013  0.5930194E+02  0.7816164E-02  0.1266605E+00
        -11   -1    0    0    0    0  0.00000000000E+00  0.00000000000E+00  0.45593999997E+02  0.45594000000E+02  0.51100000000E-03 0. -1.
         11   -1    0    0    0    0 -0.00000000000E+00 -0.00000000000E+00 -0.45593999997E+02  0.45594000000E+02  0.51100000000E-03 0.  1.
    9900012    2    1    2    0    0  0.13692767911E+02  0.27411748310E+02 -0.88218400845E+01  0.59301941903E+02  0.49999996126E+02 0.  0.
         12    1    1    2    0    0 -0.13692767911E+02 -0.27411748310E+02  0.88218400845E+01  0.31886058097E+02  0.00000000000E+00 0. -1.
         11    1    3    3    0    0  0.12513580999E+02 -0.16376461893E+01  0.13430405200E+02  0.18429524643E+02  0.51100000000E-03 0. -1.
        -11    1    3    3    0    0  0.62757800979E+01  0.19647696777E+02 -0.22026343971E+02  0.30175772292E+02  0.51100000000E-03 0.  1.
         12    1    3    3    0    0 -0.50965931862E+01  0.94016977226E+01 -0.22590131364E+00  0.10696644968E+02  0.00000000000E+00 0. -1.
</event>
<event>
 7    1  0.4237994E-013  0.5930193E+02  0.7816164E-02  0.1266605E+00
        -11   -1    0    0    0    0  0.00000000000E+00  0.00000000000E+00  0.45593999997E+02  0.45594000000E+02  0.51100000000E-03 0.  1.
         11   -1    0    0    0    0 -0.00000000000E+00 -0.00000000000E+00 -0.45593999997E+02  0.45594000000E+02  0.51100000000E-03 0. -1.
    9900012    2    1    2    0    0 -0.14220711559E+02 -0.60428249043E+01  0.27892246150E+02  0.59301925212E+02  0.49999965685E+02 0.  0.
         12    1    1    2    0    0  0.14220711559E+02  0.60428249043E+01 -0.27892246150E+02  0.31886074788E+02  0.00000000000E+00 0. -1.
         11    1    3    3    0    0  0.86967247681E+01  0.49007893004E+01  0.38298929923E+01  0.10691998787E+02  0.51100000000E-03 0. -1.
        -11    1    3    3    0    0 -0.14664674204E+02 -0.22291183686E+02  0.21675822161E+02  0.34377184385E+02  0.51100000000E-03 0.  1.
        -12    1    3    3    0    0 -0.82527621228E+01  0.11347569481E+02  0.23865309967E+01  0.14232742040E+02  0.00000000000E+00 0.  1.
</event>
<event>
 7    1  0.4237994E-013  0.5930194E+02  0.7816164E-02  0.1266605E+00
        -11   -1    0    0    0    0  0.00000000000E+00  0.00000000000E+00  0.45593999997E+02  0.45594000000E+02  0.51100000000E-03 0. -1.
         11   -1    0    0    0    0 -0.00000000000E+00 -0.00000000000E+00 -0.45593999997E+02  0.45594000000E+02  0.51100000000E-03 0.  1.
    9900012    2    1    2    0    0 -0.60854860358E+01  0.13731091044E+02 -0.28127296653E+02  0.59301940059E+02  0.49999992762E+02 0.  0.
         12    1    1    2    0    0  0.60854860358E+01 -0.13731091044E+02  0.28127296653E+02  0.31886059941E+02  0.00000000000E+00 0. -1.
         11    1    3    3    0    0  0.33487712949E+01  0.33738604324E+00  0.10624248760E+02  0.11144629222E+02  0.51100000000E-03 0. -1.
        -11    1    3    3    0    0 -0.14609092658E+02  0.11172643091E+02 -0.38325383689E+02  0.42509864469E+02  0.51100000000E-03 0.  1.
         12    1    3    3    0    0  0.51748353269E+01  0.22210619093E+01 -0.42616172362E+00  0.56474463681E+01  0.00000000000E+00 0. -1.
</event>
<event>
 7    1  0.4237994E-013  0.5930194E+02  0.7816164E-02  0.1266605E+00
        -11   -1    0    0    0    0  0.00000000000E+00  0.00000000000E+00  0.45593999997E+02  0.45594000000E+02  0.51100000000E-03 0. -1.
         11   -1    0    0    0    0 -0.00000000000E+00 -0.00000000000E+00 -0.45593999997E+02  0.45594000000E+02  0.51100000000E-03 0.  1.
    9900012    2    1    2    0    0 -0.14812830041E+02 -0.56878912840E+00 -0.28230792088E+02  0.59301936010E+02  0.49999985377E+02 0.  0.
         12    1    1    2    0    0  0.14812830041E+02  0.56878912840E+00  0.28230792088E+02  0.31886063990E+02  0.00000000000E+00 0. -1.
         11    1    3    3    0    0 -0.18705817412E+02  0.15886429301E+02 -0.19004452768E+02  0.31039579029E+02  0.51100000000E-03 0. -1.
        -11    1    3    3    0    0  0.18223873120E+01  0.21753181051E+00  0.55763861658E+01  0.58706471989E+01  0.51100000000E-03 0.  1.
         12    1    3    3    0    0  0.20706000588E+01 -0.16672750240E+02 -0.14802725485E+02  0.22391709782E+02  0.00000000000E+00 0. -1.
</event>
<event>
 7    1  0.4237994E-013  0.5930197E+02  0.7816164E-02  0.1266605E+00
        -11   -1    0    0    0    0  0.00000000000E+00  0.00000000000E+00  0.45593999997E+02  0.45594000000E+02  0.51100000000E-03 0.  1.
         11   -1    0    0    0    0 -0.00000000000E+00 -0.00000000000E+00 -0.45593999997E+02  0.45594000000E+02  0.51100000000E-03 0. -1.
    9900012    2    1    2    0    0  0.57658772233E+01  0.22389196964E+02  0.21959000720E+02  0.59301965542E+02  0.50000039236E+02 0.  0.
         12    1    1    2    0    0 -0.57658772233E+01 -0.22389196964E+02 -0.21959000720E+02  0.31886034458E+02  0.00000000000E+00 0. -1.
         11    1    3    3    0    0  0.57801848146E+01  0.17039031335E+02 -0.10333709406E+02  0.20749088551E+02  0.51100000000E-03 0. -1.
        -11    1    3    3    0    0  0.61753444848E+01 -0.53585142135E+01  0.17161056831E+02  0.19009219497E+02  0.51100000000E-03 0.  1.
         12    1    3    3    0    0 -0.61896520760E+01  0.10708679842E+02  0.15131653296E+02  0.19543657494E+02  0.00000000000E+00 0. -1.
</event>
<event>
 7    1  0.4237994E-013  0.5930192E+02  0.7816164E-02  0.1266605E+00
        -11   -1    0    0    0    0  0.00000000000E+00  0.00000000000E+00  0.45593999997E+02  0.45594000000E+02  0.51100000000E-03 0.  1.
         11   -1    0    0    0    0 -0.00000000000E+00 -0.00000000000E+00 -0.45593999997E+02  0.45594000000E+02  0.51100000000E-03 0. -1.
    9900012    2    1    2    0    0 -0.27410689720E+02  0.13387877308E+02 -0.92812118516E+01  0.59301920542E+02  0.49999957167E+02 0.  0.
         12    1    1    2    0    0  0.27410689720E+02 -0.13387877308E+02  0.92812118516E+01  0.31886079458E+02  0.00000000000E+00 0. -1.
         11    1    3    3    0    0  0.11169824165E+02  0.73659425889E+01  0.22485212028E+01  0.13567532198E+02  0.51100000000E-03 0. -1.
        -11    1    3    3    0    0 -0.24904262526E+02 -0.45092490191E+01 -0.62431330126E+00  0.25316899219E+02  0.51100000000E-03 0.  1.
        -12    1    3    3    0    0 -0.13676251359E+02  0.10531183739E+02 -0.10905419753E+02  0.20417489125E+02  0.00000000000E+00 0.  1.
</event>
<event>
 7    1  0.4237994E-013  0.5930196E+02  0.7816164E-02  0.1266605E+00
        -11   -1    0    0    0    0  0.00000000000E+00  0.00000000000E+00  0.45593999997E+02  0.45594000000E+02  0.51100000000E-03 0.  1.
         11   -1    0    0    0    0 -0.00000000000E+00 -0.00000000000E+00 -0.45593999997E+02  0.45594000000E+02  0.51100000000E-03 0. -1.
    9900012    2    1    2    0    0  0.52802316599E+01 -0.31197826799E+02 -0.39413410866E+01  0.59301962101E+02  0.50000032961E+02 0.  0.
         12    1    1    2    0    0 -0.52802316599E+01  0.31197826799E+02  0.39413410866E+01  0.31886037899E+02  0.00000000000E+00 0. -1.
         11    1    3    3    0    0  0.63770885290E+01  0.68441403863E+01 -0.91801439347E+01  0.13106660851E+02  0.51100000000E-03 0. -1.
        -11    1    3    3    0    0  0.36573528014E+01 -0.40275053777E+02  0.60152325692E+01  0.40885684651E+02  0.51100000000E-03 0.  1.
        -12    1    3    3    0    0 -0.47542096705E+01  0.22330865922E+01 -0.77642972109E+00  0.53096165992E+01  0.00000000000E+00 0.  1.
</event>
<event>
 7    1  0.4237994E-013  0.5930191E+02  0.7816164E-02  0.1266605E+00
        -11   -1    0    0    0    0  0.00000000000E+00  0.00000000000E+00  0.45593999997E+02  0.45594000000E+02  0.51100000000E-03 0. -1.
         11   -1    0    0    0    0 -0.00000000000E+00 -0.00000000000E+00 -0.45593999997E+02  0.45594000000E+02  0.51100000000E-03 0.  1.
    9900012    2    1    2    0    0 -0.31332514201E+02 -0.52594906028E+01 -0.27081060289E+01  0.59301913288E+02  0.49999943938E+02 0.  0.
         12    1    1    2    0    0  0.31332514201E+02  0.52594906028E+01  0.27081060289E+01  0.31886086712E+02  0.00000000000E+00 0. -1.
         11    1    3    3    0    0 -0.16206068890E+02  0.14480378606E+02  0.34649676014E-01  0.21732906716E+02  0.51100000000E-03 0. -1.
        -11    1    3    3    0    0  0.19781269459E+01 -0.11539103364E+02 -0.11735289626E+02  0.16576516990E+02  0.51100000000E-03 0.  1.
        -12    1    3    3    0    0 -0.17104572257E+02 -0.82007658450E+01  0.89925339209E+01  0.20992489582E+02  0.00000000000E+00 0.  1.
</event>
<event>
 7    1  0.4237994E-013  0.5930194E+02  0.7816164E-02  0.1266605E+00
        -11   -1    0    0    0    0  0.00000000000E+00  0.00000000000E+00  0.45593999997E+02  0.45594000000E+02  0.51100000000E-03 0.  1.
         11   -1    0    0    0    0 -0.00000000000E+00 -0.00000000000E+00 -0.45593999997E+02  0.45594000000E+02  0.51100000000E-03 0. -1.
    9900012    2    1    2    0    0  0.22795667198E+02  0.49008446849E+01  0.21749941602E+02  0.59301942211E+02  0.49999996687E+02 0.  0.
         12    1    1    2    0    0 -0.22795667198E+02 -0.49008446849E+01 -0.21749941602E+02  0.31886057789E+02  0.00000000000E+00 0. -1.
         11    1    3    3    0    0 -0.69538522353E+01 -0.69615516182E+01  0.23808858412E+01  0.10123629759E+02  0.51100000000E-03 0.  1.
        -11    1    3    3    0    0  0.21171636030E+02  0.84253186513E+01  0.28295697232E+02  0.36330024067E+02  0.51100000000E-03 0. -1.
         12    1    3    3    0    0  0.85778834031E+01  0.34370776518E+01 -0.89266414719E+01  0.12848288385E+02  0.00000000000E+00 0. -1.
</event>
<event>
 7    1  0.4237994E-013  0.5930193E+02  0.7816164E-02  0.1266605E+00
        -11   -1    0    0    0    0  0.00000000000E+00  0.00000000000E+00  0.45593999997E+02  0.45594000000E+02  0.51100000000E-03 0. -1.
         11   -1    0    0    0    0 -0.00000000000E+00 -0.00000000000E+00 -0.45593999997E+02  0.45594000000E+02  0.51100000000E-03 0.  1.
    9900012    2    1    2    0    0  0.30186820977E+01  0.96744104870E+01 -0.30232681949E+02  0.59301925959E+02  0.49999967048E+02 0.  0.
         12    1    1    2    0    0 -0.30186820977E+01 -0.96744104870E+01  0.30232681949E+02  0.31886074041E+02  0.00000000000E+00 0. -1.
         11    1    3    3    0    0 -0.35604888798E+01  0.13895256783E+02  0.54320314380E+01  0.15338259612E+02  0.51100000000E-03 0. -1.
        -11    1    3    3    0    0  0.21245622074E+01  0.17205901389E+01 -0.36399009562E+02  0.36501535480E+02  0.51100000000E-03 0.  1.
        -12    1    3    3    0    0  0.44546087702E+01 -0.59414364350E+01  0.73429617488E+00  0.74621308672E+01  0.00000000000E+00 0.  1.
</event>
<event>
 7    1  0.4237994E-013  0.5930195E+02  0.7816164E-02  0.1266605E+00
        -11   -1    0    0    0    0  0.00000000000E+00  0.00000000000E+00  0.45593999997E+02  0.45594000000E+02  0.51100000000E-03 0.  1.
         11   -1    0    0    0    0 -0.00000000000E+00 -0.00000000000E+00 -0.45593999997E+02  0.45594000000E+02  0.51100000000E-03 0. -1.
    9900012    2    1    2    0    0  0.23195397434E+02  0.21012771007E+02  0.60956580113E+01  0.59301952046E+02  0.50000014623E+02 0.  0.
         12    1    1    2    0    0 -0.23195397434E+02 -0.21012771007E+02 -0.60956580113E+01  0.31886047954E+02  0.00000000000E+00 0. -1.
         11    1    3    3    0    0 -0.66821154614E+01 -0.15662549452E+01 -0.67581473231E+01  0.96320494753E+01  0.51100000000E-03 0. -1.
        -11    1    3    3    0    0  0.36037960635E+02  0.19049854727E+02  0.97007216809E+01  0.41901498461E+02  0.51100000000E-03 0.  1.
        -12    1    3    3    0    0 -0.61604477393E+01  0.35291712257E+01  0.31530836536E+01  0.77684041100E+01  0.00000000000E+00 0.  1.
</event>
<event>
 7    1  0.4237994E-013  0.5930192E+02  0.7816164E-02  0.1266605E+00
        -11   -1    0    0    0    0  0.00000000000E+00  0.00000000000E+00  0.45593999997E+02  0.45594000000E+02  0.51100000000E-03 0.  1.
         11   -1    0    0    0    0 -0.00000000000E+00 -0.00000000000E+00 -0.45593999997E+02  0.45594000000E+02  0.51100000000E-03 0. -1.
    9900012    2    1    2    0    0 -0.22558046949E+02 -0.17538919911E+02 -0.14150719615E+02  0.59301920602E+02  0.49999957276E+02 0.  0.
         12    1    1    2    0    0  0.22558046949E+02  0.17538919911E+02  0.14150719615E+02  0.31886079398E+02  0.00000000000E+00 0. -1.
         11    1    3    3    0    0  0.78286512103E+00  0.30925802726E+01  0.21690507429E+00  0.31974956783E+01  0.51100000000E-03 0. -1.
        -11    1    3    3    0    0 -0.24504609431E+02 -0.30297452624E+02 -0.26505557469E+00  0.38967701672E+02  0.51100000000E-03 0.  1.
        -12    1    3    3    0    0  0.11636973613E+01  0.96659524412E+01 -0.14102569115E+02  0.17136723251E+02  0.00000000000E+00 0.  1.
</event>
<event>
 7    1  0.4237994E-013  0.5930194E+02  0.7816164E-02  0.1266605E+00
        -11   -1    0    0    0    0  0.00000000000E+00  0.00000000000E+00  0.45593999997E+02  0.45594000000E+02  0.51100000000E-03 0.  1.
         11   -1    0    0    0    0 -0.00000000000E+00 -0.00000000000E+00 -0.45593999997E+02  0.45594000000E+02  0.51100000000E-03 0. -1.
    9900012    2    1    2    0    0  0.17235888365E+02 -0.26228096360E+02 -0.56331337344E+01  0.59301935928E+02  0.49999985227E+02 0.  0.
         12    1    1    2    0    0 -0.17235888365E+02  0.26228096360E+02  0.56331337344E+01  0.31886064072E+02  0.00000000000E+00 0. -1.
         11    1    3    3    0    0  0.16820957512E+02  0.96768523180E+01  0.31248978727E+01  0.19655815154E+02  0.51100000000E-03 0. -1.
        -11    1    3    3    0    0 -0.50347132836E+01 -0.19824405202E+02 -0.97079931046E+01  0.22640682628E+02  0.51100000000E-03 0.  1.
         12    1    3    3    0    0  0.54496441360E+01 -0.16080543475E+02  0.94996149749E+00  0.17005438145E+02  0.00000000000E+00 0. -1.
</event>
<event>
 7    1  0.4237994E-013  0.5930196E+02  0.7816164E-02  0.1266605E+00
        -11   -1    0    0    0    0  0.00000000000E+00  0.00000000000E+00  0.45593999997E+02  0.45594000000E+02  0.51100000000E-03 0. -1.
         11   -1    0    0    0    0 -0.00000000000E+00 -0.00000000000E+00 -0.45593999997E+02  0.45594000000E+02  0.51100000000E-03 0.  1.
    9900012    2    1    2    0    0  0.26108942763E+02 -0.97568126591E+01 -0.15487009440E+02  0.59301956864E+02  0.50000023411E+02 0.  0.
         12    1    1    2    0    0 -0.26108942763E+02  0.97568126591E+01  0.15487009440E+02  0.31886043136E+02  0.00000000000E+00 0. -1.
         11    1    3    3    0    0  0.23925415018E+02  0.41263732702E+01 -0.50773346873E+01  0.24803865988E+02  0.51100000000E-03 0. -1.
        -11    1    3    3    0    0 -0.37429331129E+01 -0.17098223214E+02 -0.17474054561E+02  0.24732597284E+02  0.51100000000E-03 0.  1.
        -12    1    3    3    0    0  0.59264608574E+01  0.32150372843E+01  0.70643798080E+01  0.97654935925E+01  0.00000000000E+00 0.  1.
</event>
<event>
 7    1  0.4237994E-013  0.5930194E+02  0.7816164E-02  0.1266605E+00
        -11   -1    0    0    0    0  0.00000000000E+00  0.00000000000E+00  0.45593999997E+02  0.45594000000E+02  0.51100000000E-03 0.  1.
         11   -1    0    0    0    0 -0.00000000000E+00 -0.00000000000E+00 -0.45593999997E+02  0.45594000000E+02  0.51100000000E-03 0. -1.
    9900012    2    1    2    0    0 -0.76748189280E+01 -0.25698739668E+02  0.17245076097E+02  0.59301941672E+02  0.49999995704E+02 0.  0.
         12    1    1    2    0    0  0.76748189280E+01  0.25698739668E+02 -0.17245076097E+02  0.31886058328E+02  0.00000000000E+00 0. -1.
         11    1    3    3    0    0 -0.20486000497E+02 -0.97445562991E+01 -0.10118464772E+02  0.24839805221E+02  0.51100000000E-03 0. -1.
        -11    1    3    3    0    0  0.10399100770E+02 -0.12056157621E+02  0.23896395416E+02  0.28714629504E+02  0.51100000000E-03 0.  1.
         12    1    3    3    0    0  0.24120807993E+01 -0.38980257476E+01  0.34671454532E+01  0.57475069469E+01  0.00000000000E+00 0. -1.
</event>
<event>
 7    1  0.4237994E-013  0.5930199E+02  0.7816164E-02  0.1266605E+00
        -11   -1    0    0    0    0  0.00000000000E+00  0.00000000000E+00  0.45593999997E+02  0.45594000000E+02  0.51100000000E-03 0.  1.
         11   -1    0    0    0    0 -0.00000000000E+00 -0.00000000000E+00 -0.45593999997E+02  0.45594000000E+02  0.51100000000E-03 0. -1.
    9900012    2    1    2    0    0  0.93152192940E+01  0.47941132962E+01  0.30115792517E+02  0.59301987522E+02  0.50000079324E+02 0.  0.
         12    1    1    2    0    0 -0.93152192940E+01 -0.47941132962E+01 -0.30115792517E+02  0.31886012478E+02  0.00000000000E+00 0. -1.
         11    1    3    3    0    0  0.46169702819E+01  0.20477803155E+02  0.21714306527E+02  0.30202118218E+02  0.51100000000E-03 0. -1.
        -11    1    3    3    0    0 -0.29127353644E+00 -0.81188685100E+01 -0.73318411297E+01  0.10943343217E+02  0.51100000000E-03 0.  1.
        -12    1    3    3    0    0  0.49895225486E+01 -0.75648213490E+01  0.15733327119E+02  0.18156526087E+02  0.00000000000E+00 0.  1.
</event>
<event>
 7    1  0.4237994E-013  0.5930197E+02  0.7816164E-02  0.1266605E+00
        -11   -1    0    0    0    0  0.00000000000E+00  0.00000000000E+00  0.45593999997E+02  0.45594000000E+02  0.51100000000E-03 0.  1.
         11   -1    0    0    0    0 -0.00000000000E+00 -0.00000000000E+00 -0.45593999997E+02  0.45594000000E+02  0.51100000000E-03 0. -1.
    9900012    2    1    2    0    0 -0.26695726122E+02 -0.74891737043E+01  0.15747034596E+02  0.59301974620E+02  0.50000055794E+02 0.  0.
         12    1    1    2    0    0  0.26695726122E+02  0.74891737043E+01 -0.15747034596E+02  0.31886025380E+02  0.00000000000E+00 0. -1.
         11    1    3    3    0    0 -0.62349876501E+01 -0.21947416801E+01 -0.15929035648E+02  0.17246047054E+02  0.51100000000E-03 0. -1.
        -11    1    3    3    0    0 -0.88158596706E+01 -0.82763072463E+01  0.26181672466E+02  0.28839150763E+02  0.51100000000E-03 0.  1.
         12    1    3    3    0    0 -0.11644878801E+02  0.29818752221E+01  0.54943977783E+01  0.13216776804E+02  0.00000000000E+00 0. -1.
</event>
<event>
 7    1  0.4237994E-013  0.5930194E+02  0.7816164E-02  0.1266605E+00
        -11   -1    0    0    0    0  0.00000000000E+00  0.00000000000E+00  0.45593999997E+02  0.45594000000E+02  0.51100000000E-03 0.  1.
         11   -1    0    0    0    0 -0.00000000000E+00 -0.00000000000E+00 -0.45593999997E+02  0.45594000000E+02  0.51100000000E-03 0. -1.
    9900012    2    1    2    0    0  0.92074106013E+01 -0.62755131684E+01  0.29875785846E+02  0.59301936345E+02  0.49999985988E+02 0.  0.
         12    1    1    2    0    0 -0.92074106013E+01  0.62755131684E+01 -0.29875785846E+02  0.31886063655E+02  0.00000000000E+00 0. -1.
         11    1    3    3    0    0  0.24925576730E+01  0.20513026514E+02  0.14862773838E+02  0.25453863105E+02  0.51100000000E-03 0.  1.
        -11    1    3    3    0    0  0.54555325899E+01 -0.17978101279E+02  0.16278094675E+02  0.24858626832E+02  0.51100000000E-03 0. -1.
        -12    1    3    3    0    0  0.12593203384E+01 -0.88104384035E+01 -0.12650826670E+01  0.89894464085E+01  0.00000000000E+00 0.  1.
</event>
<event>
 7    1  0.4237994E-013  0.5930194E+02  0.7816164E-02  0.1266605E+00
        -11   -1    0    0    0    0  0.00000000000E+00  0.00000000000E+00  0.45593999997E+02  0.45594000000E+02  0.51100000000E-03 0.  1.
         11   -1    0    0    0    0 -0.00000000000E+00 -0.00000000000E+00 -0.45593999997E+02  0.45594000000E+02  0.51100000000E-03 0. -1.
    9900012    2    1    2    0    0  0.11114225014E+02  0.18628068033E+02  0.23370708740E+02  0.59301938103E+02  0.49999989194E+02 0.  0.
         12    1    1    2    0    0 -0.11114225014E+02 -0.18628068033E+02 -0.23370708740E+02  0.31886061897E+02  0.00000000000E+00 0. -1.
         11    1    3    3    0    0 -0.15463851317E+02  0.13216119711E+02 -0.40387795608E+01  0.20739051530E+02  0.51100000000E-03 0. -1.
        -11    1    3    3    0    0  0.97025867304E+01  0.21091523680E+01  0.98671374573E+01  0.13998182555E+02  0.51100000000E-03 0.  1.
         12    1    3    3    0    0  0.16875489601E+02  0.33027959538E+01  0.17542350844E+02  0.24564704018E+02  0.00000000000E+00 0. -1.
</event>
<event>
 7    1  0.4237994E-013  0.5930196E+02  0.7816164E-02  0.1266605E+00
        -11   -1    0    0    0    0  0.00000000000E+00  0.00000000000E+00  0.45593999997E+02  0.45594000000E+02  0.51100000000E-03 0.  1.
         11   -1    0    0    0    0 -0.00000000000E+00 -0.00000000000E+00 -0.45593999997E+02  0.45594000000E+02  0.51100000000E-03 0. -1.
    9900012    2    1    2    0    0  0.28446177469E+02 -0.66692353607E+01  0.12769333074E+02  0.59301959479E+02  0.50000028180E+02 0.  0.
         12    1    1    2    0    0 -0.28446177469E+02  0.66692353607E+01 -0.12769333074E+02  0.31886040521E+02  0.00000000000E+00 0. -1.
         11    1    3    3    0    0 -0.30066045257E+01 -0.18630804736E+01  0.23100819435E+02  0.23370036339E+02  0.51100000000E-03 0. -1.
        -11    1    3    3    0    0  0.87316383545E+01  0.36637710040E+01 -0.62409439140E+01  0.11340815999E+02  0.51100000000E-03 0.  1.
         12    1    3    3    0    0  0.22721143641E+02 -0.84699258911E+01 -0.40905424474E+01  0.24591107142E+02  0.00000000000E+00 0. -1.
</event>
<event>
 7    1  0.4237994E-013  0.5930195E+02  0.7816164E-02  0.1266605E+00
        -11   -1    0    0    0    0  0.00000000000E+00  0.00000000000E+00  0.45593999997E+02  0.45594000000E+02  0.51100000000E-03 0. -1.
         11   -1    0    0    0    0 -0.00000000000E+00 -0.00000000000E+00 -0.45593999997E+02  0.45594000000E+02  0.51100000000E-03 0.  1.
    9900012    2    1    2    0    0 -0.16776612015E+02  0.67304393687E+00 -0.27107429904E+02  0.59301945762E+02  0.50000003164E+02 0.  0.
         12    1    1    2    0    0  0.16776612015E+02 -0.67304393687E+00  0.27107429904E+02  0.31886054238E+02  0.00000000000E+00 0. -1.
         11    1    3    3    0    0 -0.11199736567E+02 -0.17629776645E+02 -0.81366256174E+01  0.22415347430E+02  0.51100000000E-03 0. -1.
        -11    1    3    3    0    0 -0.35209007149E+01  0.14869013751E+02 -0.25206922988E+02  0.29476656503E+02  0.51100000000E-03 0.  1.
        -12    1    3    3    0    0 -0.20559747335E+01  0.34338068302E+01  0.62361187018E+01  0.74099418294E+01  0.00000000000E+00 0.  1.
</event>
<event>
 7    1  0.4237994E-013  0.5930194E+02  0.7816164E-02  0.1266605E+00
        -11   -1    0    0    0    0  0.00000000000E+00  0.00000000000E+00  0.45593999997E+02  0.45594000000E+02  0.51100000000E-03 0.  1.
         11   -1    0    0    0    0 -0.00000000000E+00 -0.00000000000E+00 -0.45593999997E+02  0.45594000000E+02  0.51100000000E-03 0. -1.
    9900012    2    1    2    0    0  0.47230880857E+01  0.16753823342E+02  0.26715592823E+02  0.59301936312E+02  0.49999985928E+02 0.  0.
         12    1    1    2    0    0 -0.47230880857E+01 -0.16753823342E+02 -0.26715592823E+02  0.31886063688E+02  0.00000000000E+00 0. -1.
         11    1    3    3    0    0 -0.66753344152E+01  0.34531770999E+01  0.18855915471E+02  0.20298523842E+02  0.51100000000E-03 0. -1.
        -11    1    3    3    0    0  0.16479147198E+02  0.22041486029E+02  0.27003397163E+01  0.27652870260E+02  0.51100000000E-03 0.  1.
        -12    1    3    3    0    0 -0.50807246969E+01 -0.87408397872E+01  0.51593376352E+01  0.11350542210E+02  0.00000000000E+00 0.  1.
</event>
<event>
 7    1  0.4237994E-013  0.5930201E+02  0.7816164E-02  0.1266605E+00
        -11   -1    0    0    0    0  0.00000000000E+00  0.00000000000E+00  0.45593999997E+02  0.45594000000E+02  0.51100000000E-03 0. -1.
         11   -1    0    0    0    0 -0.00000000000E+00 -0.00000000000E+00 -0.45593999997E+02  0.45594000000E+02  0.51100000000E-03 0.  1.
    9900012    2    1    2    0    0 -0.14785546069E+02 -0.19698790515E+02 -0.20249980331E+02  0.59302008974E+02  0.50000118446E+02 0.  0.
         12    1    1    2    0    0  0.14785546069E+02  0.19698790515E+02  0.20249980331E+02  0.31885991026E+02  0.00000000000E+00 0. -1.
         11    1    3    3    0    0 -0.25680819751E+02 -0.73732141769E+01  0.22758920354E+01  0.26815079250E+02  0.51100000000E-03 0. -1.
        -11    1    3    3    0    0  0.27847653106E+00 -0.11720570621E+02 -0.69560228217E+01  0.13632152384E+02  0.51100000000E-03 0.  1.
         12    1    3    3    0    0  0.10616797151E+02 -0.60500571699E+00 -0.15569849545E+02  0.18854777339E+02  0.00000000000E+00 0. -1.
</event>
<event>
 7    1  0.4237994E-013  0.5930194E+02  0.7816164E-02  0.1266605E+00
        -11   -1    0    0    0    0  0.00000000000E+00  0.00000000000E+00  0.45593999997E+02  0.45594000000E+02  0.51100000000E-03 0.  1.
         11   -1    0    0    0    0 -0.00000000000E+00 -0.00000000000E+00 -0.45593999997E+02  0.45594000000E+02  0.51100000000E-03 0. -1.
    9900012    2    1    2    0    0 -0.27153464318E+02 -0.13405879865E+02  0.99846022327E+01  0.59301944723E+02  0.50000001267E+02 0.  0.
         12    1    1    2    0    0  0.27153464318E+02  0.13405879865E+02 -0.99846022327E+01  0.31886055277E+02  0.00000000000E+00 0. -1.
         11    1    3    3    0    0  0.64399591226E+01 -0.19446109492E+02 -0.60213073447E+00  0.20493579715E+02  0.51100000000E-03 0. -1.
        -11    1    3    3    0    0 -0.28988788924E+00  0.32541476178E+01 -0.10324066265E+01  0.34262771940E+01  0.51100000000E-03 0.  1.
         12    1    3    3    0    0 -0.33303535551E+02  0.27860820085E+01  0.11619139594E+02  0.35382087814E+02  0.00000000000E+00 0. -1.
</event>
<event>
 7    1  0.4237994E-013  0.5930193E+02  0.7816164E-02  0.1266605E+00
        -11   -1    0    0    0    0  0.00000000000E+00  0.00000000000E+00  0.45593999997E+02  0.45594000000E+02  0.51100000000E-03 0.  1.
         11   -1    0    0    0    0 -0.00000000000E+00 -0.00000000000E+00 -0.45593999997E+02  0.45594000000E+02  0.51100000000E-03 0. -1.
    9900012    2    1    2    0    0  0.35903064864E+01 -0.13383251832E+01  0.31655019186E+02  0.59301926948E+02  0.49999968851E+02 0.  0.
         12    1    1    2    0    0 -0.35903064864E+01  0.13383251832E+01 -0.31655019186E+02  0.31886073052E+02  0.00000000000E+00 0. -1.
         11    1    3    3    0    0 -0.18987352008E+01  0.91670299334E+01 -0.50001925129E+01  0.10613272756E+02  0.51100000000E-03 0. -1.
        -11    1    3    3    0    0  0.13873556815E+02  0.25934552951E+01  0.26763554580E+02  0.30257056088E+02  0.51100000000E-03 0.  1.
         12    1    3    3    0    0 -0.83845151278E+01 -0.13098810412E+02  0.98916571194E+01  0.18431598105E+02  0.00000000000E+00 0. -1.
</event>
<event>
 7    1  0.4237994E-013  0.5930195E+02  0.7816164E-02  0.1266605E+00
        -11   -1    0    0    0    0  0.00000000000E+00  0.00000000000E+00  0.45593999997E+02  0.45594000000E+02  0.51100000000E-03 0.  1.
         11   -1    0    0    0    0 -0.00000000000E+00 -0.00000000000E+00 -0.45593999997E+02  0.45594000000E+02  0.51100000000E-03 0. -1.
    9900012    2    1    2    0    0  0.81775320087E+01 -0.15489504254E+02  0.26644384308E+02  0.59301953100E+02  0.50000016545E+02 0.  0.
         12    1    1    2    0    0 -0.81775320087E+01  0.15489504254E+02 -0.26644384308E+02  0.31886046900E+02  0.00000000000E+00 0. -1.
         11    1    3    3    0    0  0.17328162250E+02 -0.11789450956E+02  0.21369057088E+02  0.29931471095E+02  0.51100000000E-03 0. -1.
        -11    1    3    3    0    0 -0.13658994616E+02  0.72652624102E+01  0.76811882386E+01  0.17272892776E+02  0.51100000000E-03 0.  1.
         12    1    3    3    0    0  0.45083643748E+01 -0.10965315708E+02 -0.24058610186E+01  0.12097589229E+02  0.00000000000E+00 0. -1.
</event>
<event>
 7    1  0.4237994E-013  0.5930193E+02  0.7816164E-02  0.1266605E+00
        -11   -1    0    0    0    0  0.00000000000E+00  0.00000000000E+00  0.45593999997E+02  0.45594000000E+02  0.51100000000E-03 0. -1.
         11   -1    0    0    0    0 -0.00000000000E+00 -0.00000000000E+00 -0.45593999997E+02  0.45594000000E+02  0.51100000000E-03 0.  1.
    9900012    2    1    2    0    0  0.27896361498E+02  0.10701280554E+02 -0.11135392765E+02  0.59301931532E+02  0.49999977211E+02 0.  0.
         12    1    1    2    0    0 -0.27896361498E+02 -0.10701280554E+02  0.11135392765E+02  0.31886068468E+02  0.00000000000E+00 0. -1.
         11    1    3    3    0    0 -0.74317916376E+01 -0.15406751633E+01  0.29926495427E+01  0.81585022185E+01  0.51100000000E-03 0. -1.
        -11    1    3    3    0    0  0.16885455290E+02  0.22001243912E+02 -0.11829732712E+02  0.30151549053E+02  0.51100000000E-03 0.  1.
        -12    1    3    3    0    0  0.18442697845E+02 -0.97592881944E+01 -0.22983095953E+01  0.20991880260E+02  0.00000000000E+00 0.  1.
</event>
<event>
 7    1  0.4237994E-013  0.5930193E+02  0.7816164E-02  0.1266605E+00
        -11   -1    0    0    0    0  0.00000000000E+00  0.00000000000E+00  0.45593999997E+02  0.45594000000E+02  0.51100000000E-03 0.  1.
         11   -1    0    0    0    0 -0.00000000000E+00 -0.00000000000E+00 -0.45593999997E+02  0.45594000000E+02  0.51100000000E-03 0. -1.
    9900012    2    1    2    0    0  0.33082289620E+01 -0.25469306309E+02  0.18896860528E+02  0.59301932815E+02  0.49999979551E+02 0.  0.
         12    1    1    2    0    0 -0.33082289620E+01  0.25469306309E+02 -0.18896860528E+02  0.31886067185E+02  0.00000000000E+00 0. -1.
         11    1    3    3    0    0  0.20504944685E+02 -0.84876006717E+01 -0.72595327026E+01  0.23349366951E+02  0.51100000000E-03 0. -1.
        -11    1    3    3    0    0 -0.32313308740E+01 -0.31767764829E+01  0.80723962229E+01  0.92572668256E+01  0.51100000000E-03 0.  1.
         12    1    3    3    0    0 -0.13965384849E+02 -0.13804929154E+02  0.18083997008E+02  0.26695299038E+02  0.00000000000E+00 0. -1.
</event>
<event>
 7    1  0.4237994E-013  0.5930192E+02  0.7816164E-02  0.1266605E+00
        -11   -1    0    0    0    0  0.00000000000E+00  0.00000000000E+00  0.45593999997E+02  0.45594000000E+02  0.51100000000E-03 0.  1.
         11   -1    0    0    0    0 -0.00000000000E+00 -0.00000000000E+00 -0.45593999997E+02  0.45594000000E+02  0.51100000000E-03 0. -1.
    9900012    2    1    2    0    0 -0.21979576295E+02 -0.22568817766E+02  0.49263076900E+01  0.59301924404E+02  0.49999964210E+02 0.  0.
         12    1    1    2    0    0  0.21979576295E+02  0.22568817766E+02 -0.49263076900E+01  0.31886075596E+02  0.00000000000E+00 0. -1.
         11    1    3    3    0    0 -0.82721970721E+00 -0.25949207965E+02 -0.48874899093E+01  0.26418426227E+02  0.51100000000E-03 0. -1.
        -11    1    3    3    0    0 -0.22764116015E+02 -0.37051699244E+01  0.36415935089E+01  0.23349399685E+02  0.51100000000E-03 0.  1.
         12    1    3    3    0    0  0.16117594264E+01  0.70855601234E+01  0.61722040904E+01  0.95340984915E+01  0.00000000000E+00 0. -1.
</event>
<event>
 7    1  0.4237994E-013  0.5930195E+02  0.7816164E-02  0.1266605E+00
        -11   -1    0    0    0    0  0.00000000000E+00  0.00000000000E+00  0.45593999997E+02  0.45594000000E+02  0.51100000000E-03 0. -1.
         11   -1    0    0    0    0 -0.00000000000E+00 -0.00000000000E+00 -0.45593999997E+02  0.45594000000E+02  0.51100000000E-03 0.  1.
    9900012    2    1    2    0    0  0.68756604203E+01  0.10261770877E+01 -0.31119000973E+02  0.59301953409E+02  0.50000017110E+02 0.  0.
         12    1    1    2    0    0 -0.68756604203E+01 -0.10261770877E+01  0.31119000973E+02  0.31886046591E+02  0.00000000000E+00 0. -1.
         11    1    3    3    0    0 -0.15864787378E+02 -0.64710321905E+01  0.20627785796E+01  0.17257485097E+02  0.51100000000E-03 0. -1.
        -11    1    3    3    0    0  0.22159272107E+01  0.43067582532E+01 -0.85256575665E+01  0.98053728770E+01  0.51100000000E-03 0.  1.
         12    1    3    3    0    0  0.20524520587E+02  0.31904510249E+01 -0.24656121986E+02  0.32239095435E+02  0.00000000000E+00 0. -1.
</event>
<event>
 7    1  0.4237994E-013  0.5930195E+02  0.7816164E-02  0.1266605E+00
        -11   -1    0    0    0    0  0.00000000000E+00  0.00000000000E+00  0.45593999997E+02  0.45594000000E+02  0.51100000000E-03 0.  1.
         11   -1    0    0    0    0 -0.00000000000E+00 -0.00000000000E+00 -0.45593999997E+02  0.45594000000E+02  0.51100000000E-03 0. -1.
    9900012    2    1    2    0    0  0.88121492121E+00 -0.91207641808E+01  0.30541041303E+02  0.59301951596E+02  0.50000013802E+02 0.  0.
         12    1    1    2    0    0 -0.88121492121E+00  0.91207641808E+01 -0.30541041303E+02  0.31886048404E+02  0.00000000000E+00 0. -1.
         11    1    3    3    0    0  0.86455247467E+01  0.92551420299E+01 -0.24408439840E+01  0.12898080158E+02  0.51100000000E-03 0. -1.
        -11    1    3    3    0    0  0.57134550430E+01 -0.15845820303E+02  0.98507922900E+01  0.19513372302E+02  0.51100000000E-03 0.  1.
         12    1    3    3    0    0 -0.13477764868E+02 -0.25300859082E+01  0.23131092997E+02  0.26890499136E+02  0.00000000000E+00 0. -1.
</event>
<event>
 7    1  0.4237994E-013  0.5930191E+02  0.7816164E-02  0.1266605E+00
        -11   -1    0    0    0    0  0.00000000000E+00  0.00000000000E+00  0.45593999997E+02  0.45594000000E+02  0.51100000000E-03 0.  1.
         11   -1    0    0    0    0 -0.00000000000E+00 -0.00000000000E+00 -0.45593999997E+02  0.45594000000E+02  0.51100000000E-03 0. -1.
    9900012    2    1    2    0    0  0.18936130260E+01  0.30760170121E+02  0.81822277899E+01  0.59301910748E+02  0.49999939306E+02 0.  0.
         12    1    1    2    0    0 -0.18936130260E+01 -0.30760170121E+02 -0.81822277899E+01  0.31886089252E+02  0.00000000000E+00 0. -1.
         11    1    3    3    0    0 -0.82094989436E+01 -0.20499208740E+01 -0.13997554251E+02  0.16356331305E+02  0.51100000000E-03 0. -1.
        -11    1    3    3    0    0 -0.97942301211E+00  0.10649699004E+02  0.17602675555E+01  0.10838537745E+02  0.51100000000E-03 0.  1.
         12    1    3    3    0    0  0.11082534982E+02  0.22160391991E+02  0.20419514485E+02  0.32107041698E+02  0.00000000000E+00 0. -1.
</event>
<event>
 7    1  0.4237994E-013  0.5930210E+02  0.7816164E-02  0.1266604E+00
        -11   -1    0    0    0    0  0.00000000000E+00  0.00000000000E+00  0.45593999997E+02  0.45594000000E+02  0.51100000000E-03 0. -1.
         11   -1    0    0    0    0 -0.00000000000E+00 -0.00000000000E+00 -0.45593999997E+02  0.45594000000E+02  0.51100000000E-03 0.  1.
    9900012    2    1    2    0    0 -0.22216408316E+02  0.22674431576E+02 -0.30020280214E+01  0.59302096877E+02  0.50000278760E+02 0.  0.
         12    1    1    2    0    0  0.22216408316E+02 -0.22674431576E+02  0.30020280214E+01  0.31885903123E+02  0.00000000000E+00 0. -1.
         11    1    3    3    0    0 -0.12538297200E+02  0.10363078754E+02  0.11745741894E+02  0.20064016319E+02  0.51100000000E-03 0. -1.
        -11    1    3    3    0    0  0.28529274444E+01 -0.97377311870E+01 -0.52411927748E+00  0.10160576015E+02  0.51100000000E-03 0.  1.
        -12    1    3    3    0    0 -0.12531038560E+02  0.22049084009E+02 -0.14223650638E+02  0.29077504544E+02  0.00000000000E+00 0.  1.
</event>
<event>
 7    1  0.4237994E-013  0.5930194E+02  0.7816164E-02  0.1266605E+00
        -11   -1    0    0    0    0  0.00000000000E+00  0.00000000000E+00  0.45593999997E+02  0.45594000000E+02  0.51100000000E-03 0. -1.
         11   -1    0    0    0    0 -0.00000000000E+00 -0.00000000000E+00 -0.45593999997E+02  0.45594000000E+02  0.51100000000E-03 0.  1.
    9900012    2    1    2    0    0 -0.39427320098E+01  0.29283867014E+02 -0.11984609518E+02  0.59301939279E+02  0.49999991340E+02 0.  0.
         12    1    1    2    0    0  0.39427320098E+01 -0.29283867014E+02  0.11984609518E+02  0.31886060721E+02  0.00000000000E+00 0. -1.
         11    1    3    3    0    0  0.15057088682E+02  0.36869942490E+01 -0.26395422403E+01  0.15725044664E+02  0.51100000000E-03 0. -1.
        -11    1    3    3    0    0 -0.22325702749E+02  0.88871654622E+01 -0.11061306670E+02  0.26453189197E+02  0.51100000000E-03 0.  1.
        -12    1    3    3    0    0  0.33258820570E+01  0.16709707303E+02  0.17162393921E+01  0.17123705418E+02  0.00000000000E+00 0.  1.
</event>
<event>
 7    1  0.4237994E-013  0.5930195E+02  0.7816164E-02  0.1266605E+00
        -11   -1    0    0    0    0  0.00000000000E+00  0.00000000000E+00  0.45593999997E+02  0.45594000000E+02  0.51100000000E-03 0. -1.
         11   -1    0    0    0    0 -0.00000000000E+00 -0.00000000000E+00 -0.45593999997E+02  0.45594000000E+02  0.51100000000E-03 0.  1.
    9900012    2    1    2    0    0 -0.16783934015E+02  0.26366156688E+02 -0.63123446666E+01  0.59301947332E+02  0.50000006027E+02 0.  0.
         12    1    1    2    0    0  0.16783934015E+02 -0.26366156688E+02  0.63123446666E+01  0.31886052668E+02  0.00000000000E+00 0. -1.
         11    1    3    3    0    0  0.12286121297E+02 -0.27528634376E+01  0.59603223697E+01  0.13930271951E+02  0.51100000000E-03 0. -1.
        -11    1    3    3    0    0 -0.11399616555E+02  0.21585934839E+02 -0.80465232800E+01  0.25703119998E+02  0.51100000000E-03 0.  1.
        -12    1    3    3    0    0 -0.17670438757E+02  0.75330852863E+01 -0.42261437563E+01  0.19668555383E+02  0.00000000000E+00 0.  1.
</event>
<event>
 7    1  0.4237994E-013  0.5930194E+02  0.7816164E-02  0.1266605E+00
        -11   -1    0    0    0    0  0.00000000000E+00  0.00000000000E+00  0.45593999997E+02  0.45594000000E+02  0.51100000000E-03 0. -1.
         11   -1    0    0    0    0 -0.00000000000E+00 -0.00000000000E+00 -0.45593999997E+02  0.45594000000E+02  0.51100000000E-03 0.  1.
    9900012    2    1    2    0    0 -0.21983783043E+02 -0.19936145652E+02 -0.11661222372E+02  0.59301941486E+02  0.49999995364E+02 0.  0.
         12    1    1    2    0    0  0.21983783043E+02  0.19936145652E+02  0.11661222372E+02  0.31886058514E+02  0.00000000000E+00 0. -1.
         11    1    3    3    0    0  0.53695622996E+01 -0.90389698068E+01  0.93773832287E+01  0.14087955527E+02  0.51100000000E-03 0. -1.
        -11    1    3    3    0    0 -0.24318516835E+02 -0.18942618231E+02 -0.19508651279E+02  0.36480138726E+02  0.51100000000E-03 0.  1.
        -12    1    3    3    0    0 -0.30348285079E+01  0.80454423858E+01 -0.15299543223E+01  0.87338472327E+01  0.00000000000E+00 0.  1.
</event>
<event>
 7    1  0.4237994E-013  0.5930202E+02  0.7816164E-02  0.1266604E+00
        -11   -1    0    0    0    0  0.00000000000E+00  0.00000000000E+00  0.45593999997E+02  0.45594000000E+02  0.51100000000E-03 0. -1.
         11   -1    0    0    0    0 -0.00000000000E+00 -0.00000000000E+00 -0.45593999997E+02  0.45594000000E+02  0.51100000000E-03 0.  1.
    9900012    2    1    2    0    0 -0.24537372901E+02  0.14899838265E+02 -0.13879043971E+02  0.59302020154E+02  0.50000138835E+02 0.  0.
         12    1    1    2    0    0  0.24537372901E+02 -0.14899838265E+02  0.13879043971E+02  0.31885979846E+02  0.00000000000E+00 0. -1.
         11    1    3    3    0    0  0.10952286844E+02  0.80598527919E+01 -0.49834654257E+01  0.14482704929E+02  0.51100000000E-03 0. -1.
        -11    1    3    3    0    0 -0.33589234701E+02  0.71361273128E+00 -0.14220769022E+02  0.36482546550E+02  0.51100000000E-03 0.  1.
         12    1    3    3    0    0 -0.19004250439E+01  0.61263727416E+01  0.53251904773E+01  0.83367686748E+01  0.00000000000E+00 0. -1.
</event>
<event>
 7    1  0.4237994E-013  0.5930193E+02  0.7816164E-02  0.1266605E+00
        -11   -1    0    0    0    0  0.00000000000E+00  0.00000000000E+00  0.45593999997E+02  0.45594000000E+02  0.51100000000E-03 0.  1.
         11   -1    0    0    0    0 -0.00000000000E+00 -0.00000000000E+00 -0.45593999997E+02  0.45594000000E+02  0.51100000000E-03 0. -1.
    9900012    2    1    2    0    0  0.25373851501E+02 -0.14483161169E+02 -0.12772132600E+02  0.59301926730E+02  0.49999968453E+02 0.  0.
         12    1    1    2    0    0 -0.25373851501E+02  0.14483161169E+02  0.12772132600E+02  0.31886073270E+02  0.00000000000E+00 0. -1.
         11    1    3    3    0    0 -0.38847699432E+01 -0.11891872500E+02 -0.22435915422E+02  0.25688097831E+02  0.51100000000E-03 0. -1.
        -11    1    3    3    0    0  0.13686043613E+02  0.49384505682E+01  0.68776556961E+01  0.16093422008E+02  0.51100000000E-03 0.  1.
        -12    1    3    3    0    0  0.15572577830E+02 -0.75297392368E+01  0.27861271255E+01  0.17520406891E+02  0.00000000000E+00 0.  1.
</event>
<event>
 7    1  0.4237994E-013  0.5930194E+02  0.7816164E-02  0.1266605E+00
        -11   -1    0    0    0    0  0.00000000000E+00  0.00000000000E+00  0.45593999997E+02  0.45594000000E+02  0.51100000000E-03 0.  1.
         11   -1    0    0    0    0 -0.00000000000E+00 -0.00000000000E+00 -0.45593999997E+02  0.45594000000E+02  0.51100000000E-03 0. -1.
    9900012    2    1    2    0    0 -0.45819660348E+01  0.85574676823E+01  0.30372622742E+02  0.59301939125E+02  0.49999991059E+02 0.  0.
         12    1    1    2    0    0  0.45819660348E+01 -0.85574676823E+01 -0.30372622742E+02  0.31886060875E+02  0.00000000000E+00 0. -1.
         11    1    3    3    0    0 -0.16084027483E+01  0.27177940841E+02  0.24064524737E+02  0.36336328637E+02  0.51100000000E-03 0. -1.
        -11    1    3    3    0    0 -0.39749961666E+01 -0.17496592693E+02  0.88538945888E+01  0.20008068374E+02  0.51100000000E-03 0.  1.
        -12    1    3    3    0    0  0.10014328802E+01 -0.11238804660E+01 -0.25457965835E+01  0.29575421147E+01  0.00000000000E+00 0.  1.
</event>
<event>
 7    1  0.4237994E-013  0.5930195E+02  0.7816164E-02  0.1266605E+00
        -11   -1    0    0    0    0  0.00000000000E+00  0.00000000000E+00  0.45593999997E+02  0.45594000000E+02  0.51100000000E-03 0.  1.
         11   -1    0    0    0    0 -0.00000000000E+00 -0.00000000000E+00 -0.45593999997E+02  0.45594000000E+02  0.51100000000E-03 0. -1.
    9900012    2    1    2    0    0 -0.71900446458E+00 -0.18703890660E+02  0.25814104829E+02  0.59301945033E+02  0.50000001833E+02 0.  0.
         12    1    1    2    0    0  0.71900446458E+00  0.18703890660E+02 -0.25814104829E+02  0.31886054967E+02  0.00000000000E+00 0. -1.
         11    1    3    3    0    0 -0.19519327896E+02 -0.12164610377E+02 -0.24802331046E+01  0.23132951901E+02  0.51100000000E-03 0. -1.
        -11    1    3    3    0    0  0.23220242710E+01  0.62439800168E-01  0.11499131479E+02  0.11731398914E+02  0.51100000000E-03 0.  1.
         12    1    3    3    0    0  0.16478299161E+02 -0.66017200830E+01  0.16795206455E+02  0.24437594218E+02  0.00000000000E+00 0. -1.
</event>
<event>
 7    1  0.4237994E-013  0.5930198E+02  0.7816164E-02  0.1266605E+00
        -11   -1    0    0    0    0  0.00000000000E+00  0.00000000000E+00  0.45593999997E+02  0.45594000000E+02  0.51100000000E-03 0. -1.
         11   -1    0    0    0    0 -0.00000000000E+00 -0.00000000000E+00 -0.45593999997E+02  0.45594000000E+02  0.51100000000E-03 0.  1.
    9900012    2    1    2    0    0 -0.15825834751E+02 -0.24358272065E+02  0.13150508147E+02  0.59301979112E+02  0.50000063985E+02 0.  0.
         12    1    1    2    0    0  0.15825834751E+02  0.24358272065E+02 -0.13150508147E+02  0.31886020888E+02  0.00000000000E+00 0. -1.
         11    1    3    3    0    0 -0.10662788756E+02 -0.71011166800E+01  0.41530455857E+01  0.13467320077E+02  0.51100000000E-03 0. -1.
        -11    1    3    3    0    0 -0.13968373465E+01 -0.16186181601E+02 -0.14643400401E+02  0.21871735298E+02  0.51100000000E-03 0.  1.
        -12    1    3    3    0    0 -0.37662086485E+01 -0.10709737844E+01  0.23640862962E+02  0.23962923737E+02  0.00000000000E+00 0.  1.
</event>
<event>
 7    1  0.4237994E-013  0.5930194E+02  0.7816164E-02  0.1266605E+00
        -11   -1    0    0    0    0  0.00000000000E+00  0.00000000000E+00  0.45593999997E+02  0.45594000000E+02  0.51100000000E-03 0.  1.
         11   -1    0    0    0    0 -0.00000000000E+00 -0.00000000000E+00 -0.45593999997E+02  0.45594000000E+02  0.51100000000E-03 0. -1.
    9900012    2    1    2    0    0 -0.71821849469E+01 -0.26537634323E+02  0.16152125591E+02  0.59301937572E+02  0.49999988226E+02 0.  0.
         12    1    1    2    0    0  0.71821849469E+01  0.26537634323E+02 -0.16152125591E+02  0.31886062428E+02  0.00000000000E+00 0. -1.
         11    1    3    3    0    0  0.10687566390E+02  0.51413267447E+01  0.52830492278E+01  0.12983371112E+02  0.51100000000E-03 0. -1.
        -11    1    3    3    0    0 -0.17878725478E+02 -0.27840087061E+02  0.18405063078E+02  0.37861136003E+02  0.51100000000E-03 0.  1.
        -12    1    3    3    0    0  0.89741414448E-02 -0.38388740065E+01 -0.75359867141E+01  0.84574304566E+01  0.00000000000E+00 0.  1.
</event>
<event>
 7    1  0.4237994E-013  0.5930216E+02  0.7816164E-02  0.1266604E+00
        -11   -1    0    0    0    0  0.00000000000E+00  0.00000000000E+00  0.45593999997E+02  0.45594000000E+02  0.51100000000E-03 0. -1.
         11   -1    0    0    0    0 -0.00000000000E+00 -0.00000000000E+00 -0.45593999997E+02  0.45594000000E+02  0.51100000000E-03 0.  1.
    9900012    2    1    2    0    0  0.13760919812E+02  0.31852626924E+01 -0.28586676620E+02  0.59302158429E+02  0.50000391016E+02 0.  0.
         12    1    1    2    0    0 -0.13760919812E+02 -0.31852626924E+01  0.28586676620E+02  0.31885841571E+02  0.00000000000E+00 0. -1.
         11    1    3    3    0    0  0.18319863716E+01  0.11431398043E+02  0.88677961712E+01  0.14583238477E+02  0.51100000000E-03 0. -1.
        -11    1    3    3    0    0  0.16241004122E+02 -0.23129722460E+01 -0.30391929798E+02  0.34536784052E+02  0.51100000000E-03 0.  1.
         12    1    3    3    0    0 -0.43120706814E+01 -0.59331631041E+01 -0.70625429927E+01  0.10182135901E+02  0.00000000000E+00 0. -1.
</event>
<event>
 7    1  0.4237994E-013  0.5930194E+02  0.7816164E-02  0.1266605E+00
        -11   -1    0    0    0    0  0.00000000000E+00  0.00000000000E+00  0.45593999997E+02  0.45594000000E+02  0.51100000000E-03 0.  1.
         11   -1    0    0    0    0 -0.00000000000E+00 -0.00000000000E+00 -0.45593999997E+02  0.45594000000E+02  0.51100000000E-03 0. -1.
    9900012    2    1    2    0    0 -0.74590806425E+01 -0.13629695905E+02  0.27844469045E+02  0.59301937984E+02  0.49999988978E+02 0.  0.
         12    1    1    2    0    0  0.74590806425E+01  0.13629695905E+02 -0.27844469045E+02  0.31886062016E+02  0.00000000000E+00 0. -1.
         11    1    3    3    0    0 -0.93058964771E+01  0.37453957328E+01 -0.59941155607E+01  0.11685765702E+02  0.51100000000E-03 0. -1.
        -11    1    3    3    0    0 -0.21278775568E+01 -0.98679415728E+00  0.30293492901E+02  0.30384162618E+02  0.51100000000E-03 0.  1.
         12    1    3    3    0    0  0.39746933915E+01 -0.16388297480E+02  0.35450917044E+01  0.17232009664E+02  0.00000000000E+00 0. -1.
</event>
<event>
 7    1  0.4237994E-013  0.5930195E+02  0.7816164E-02  0.1266605E+00
        -11   -1    0    0    0    0  0.00000000000E+00  0.00000000000E+00  0.45593999997E+02  0.45594000000E+02  0.51100000000E-03 0.  1.
         11   -1    0    0    0    0 -0.00000000000E+00 -0.00000000000E+00 -0.45593999997E+02  0.45594000000E+02  0.51100000000E-03 0. -1.
    9900012    2    1    2    0    0  0.79187839293E+01 -0.10484921700E+02  0.29053048555E+02  0.59301947370E+02  0.50000006095E+02 0.  0.
         12    1    1    2    0    0 -0.79187839293E+01  0.10484921700E+02 -0.29053048555E+02  0.31886052630E+02  0.00000000000E+00 0. -1.
         11    1    3    3    0    0  0.43147435330E+01 -0.13848894004E+02  0.50466382778E+01  0.15358301829E+02  0.51100000000E-03 0. -1.
        -11    1    3    3    0    0 -0.16105281767E+02  0.42813624876E+01  0.77498108064E+01  0.18378512816E+02  0.51100000000E-03 0.  1.
        -12    1    3    3    0    0  0.19709322163E+02 -0.91739018325E+00  0.16256599471E+02  0.25565132725E+02  0.00000000000E+00 0.  1.
</event>
<event>
 7    1  0.4237994E-013  0.5930196E+02  0.7816164E-02  0.1266605E+00
        -11   -1    0    0    0    0  0.00000000000E+00  0.00000000000E+00  0.45593999997E+02  0.45594000000E+02  0.51100000000E-03 0.  1.
         11   -1    0    0    0    0 -0.00000000000E+00 -0.00000000000E+00 -0.45593999997E+02  0.45594000000E+02  0.51100000000E-03 0. -1.
    9900012    2    1    2    0    0  0.11545182528E+02 -0.26333771659E+02  0.13782635009E+02  0.59301956075E+02  0.50000021971E+02 0.  0.
         12    1    1    2    0    0 -0.11545182528E+02  0.26333771659E+02 -0.13782635009E+02  0.31886043925E+02  0.00000000000E+00 0. -1.
         11    1    3    3    0    0 -0.77815545913E+01  0.46808188848E+01  0.20213311802E+02  0.22159436625E+02  0.51100000000E-03 0. -1.
        -11    1    3    3    0    0  0.11087522221E+02 -0.16348292743E+02 -0.31387223162E+01  0.20001285025E+02  0.51100000000E-03 0.  1.
         12    1    3    3    0    0  0.82392148990E+01 -0.14666297801E+02 -0.32919544764E+01  0.17141234425E+02  0.00000000000E+00 0. -1.
</event>
<event>
 7    1  0.4237994E-013  0.5930200E+02  0.7816164E-02  0.1266605E+00
        -11   -1    0    0    0    0  0.00000000000E+00  0.00000000000E+00  0.45593999997E+02  0.45594000000E+02  0.51100000000E-03 0.  1.
         11   -1    0    0    0    0 -0.00000000000E+00 -0.00000000000E+00 -0.45593999997E+02  0.45594000000E+02  0.51100000000E-03 0. -1.
    9900012    2    1    2    0    0  0.10460711804E+02 -0.26064492842E+02  0.15097444447E+02  0.59301998253E+02  0.50000098894E+02 0.  0.
         12    1    1    2    0    0 -0.10460711804E+02  0.26064492842E+02 -0.15097444447E+02  0.31886001747E+02  0.00000000000E+00 0. -1.
         11    1    3    3    0    0 -0.12240980223E+02 -0.26765055125E+02  0.46611761289E+01  0.29798260617E+02  0.51100000000E-03 0. -1.
        -11    1    3    3    0    0  0.15163544816E+02 -0.51254428656E+01  0.91190604625E+00  0.16032305787E+02  0.51100000000E-03 0.  1.
         12    1    3    3    0    0  0.75381472111E+01  0.58260051482E+01  0.95243622722E+01  0.13471431849E+02  0.00000000000E+00 0. -1.
</event>
<event>
 7    1  0.4237994E-013  0.5930193E+02  0.7816164E-02  0.1266605E+00
        -11   -1    0    0    0    0  0.00000000000E+00  0.00000000000E+00  0.45593999997E+02  0.45594000000E+02  0.51100000000E-03 0.  1.
         11   -1    0    0    0    0 -0.00000000000E+00 -0.00000000000E+00 -0.45593999997E+02  0.45594000000E+02  0.51100000000E-03 0. -1.
    9900012    2    1    2    0    0 -0.28191403146E+02  0.12532939579E+02  0.80555215464E+01  0.59301933871E+02  0.49999981476E+02 0.  0.
         12    1    1    2    0    0  0.28191403146E+02 -0.12532939579E+02 -0.80555215464E+01  0.31886066129E+02  0.00000000000E+00 0. -1.
         11    1    3    3    0    0 -0.23748441160E+01  0.12155932300E+02  0.96184083680E+01  0.15681847928E+02  0.51100000000E-03 0. -1.
        -11    1    3    3    0    0 -0.95726188863E+01 -0.11842079711E+02  0.11825974271E+02  0.19280133608E+02  0.51100000000E-03 0.  1.
        -12    1    3    3    0    0 -0.16243940144E+02  0.12219086990E+02 -0.13388861093E+02  0.24339952334E+02  0.00000000000E+00 0.  1.
</event>
<event>
 7    1  0.4237994E-013  0.5930196E+02  0.7816164E-02  0.1266605E+00
        -11   -1    0    0    0    0  0.00000000000E+00  0.00000000000E+00  0.45593999997E+02  0.45594000000E+02  0.51100000000E-03 0.  1.
         11   -1    0    0    0    0 -0.00000000000E+00 -0.00000000000E+00 -0.45593999997E+02  0.45594000000E+02  0.51100000000E-03 0. -1.
    9900012    2    1    2    0    0 -0.17839268089E+02  0.25150564463E+02  0.81196911868E+01  0.59301956600E+02  0.50000022929E+02 0.  0.
         12    1    1    2    0    0  0.17839268089E+02 -0.25150564463E+02 -0.81196911868E+01  0.31886043400E+02  0.00000000000E+00 0. -1.
         11    1    3    3    0    0 -0.11120598306E+02 -0.58159021809E+01  0.70555803966E+01  0.14397001072E+02  0.51100000000E-03 0. -1.
        -11    1    3    3    0    0  0.10365961327E+02  0.19577566595E+02  0.74992566681E+01  0.23387456443E+02  0.51100000000E-03 0.  1.
        -12    1    3    3    0    0 -0.17084631109E+02  0.11388900048E+02 -0.64351458779E+01  0.21517499086E+02  0.00000000000E+00 0.  1.
</event>
<event>
 7    1  0.4237994E-013  0.5930197E+02  0.7816164E-02  0.1266605E+00
        -11   -1    0    0    0    0  0.00000000000E+00  0.00000000000E+00  0.45593999997E+02  0.45594000000E+02  0.51100000000E-03 0. -1.
         11   -1    0    0    0    0 -0.00000000000E+00 -0.00000000000E+00 -0.45593999997E+02  0.45594000000E+02  0.51100000000E-03 0.  1.
    9900012    2    1    2    0    0  0.74878192828E+01 -0.85982150092E+01 -0.29777885602E+02  0.59301965285E+02  0.50000038768E+02 0.  0.
         12    1    1    2    0    0 -0.74878192828E+01  0.85982150092E+01  0.29777885602E+02  0.31886034715E+02  0.00000000000E+00 0. -1.
         11    1    3    3    0    0 -0.92235595486E+01 -0.87043615905E+01  0.68316643471E+01  0.14405262908E+02  0.51100000000E-03 0. -1.
        -11    1    3    3    0    0  0.15186393364E+02 -0.60444758447E+01 -0.14342644743E+02  0.21745659110E+02  0.51100000000E-03 0.  1.
         12    1    3    3    0    0  0.15249854676E+01  0.61506224260E+01 -0.22266905205E+02  0.23151043266E+02  0.00000000000E+00 0. -1.
</event>
<event>
 7    1  0.4237994E-013  0.5930191E+02  0.7816164E-02  0.1266605E+00
        -11   -1    0    0    0    0  0.00000000000E+00  0.00000000000E+00  0.45593999997E+02  0.45594000000E+02  0.51100000000E-03 0.  1.
         11   -1    0    0    0    0 -0.00000000000E+00 -0.00000000000E+00 -0.45593999997E+02  0.45594000000E+02  0.51100000000E-03 0. -1.
    9900012    2    1    2    0    0 -0.19159066179E+02  0.23193781885E+02  0.10568887192E+02  0.59301910377E+02  0.49999938629E+02 0.  0.
         12    1    1    2    0    0  0.19159066179E+02 -0.23193781885E+02 -0.10568887192E+02  0.31886089623E+02  0.00000000000E+00 0. -1.
         11    1    3    3    0    0 -0.12791640180E+02  0.19825690356E+02 -0.11124495893E+02  0.26085215462E+02  0.51100000000E-03 0. -1.
        -11    1    3    3    0    0 -0.41603793019E+01  0.13665030170E+02  0.15131657285E+02  0.20808864889E+02  0.51100000000E-03 0.  1.
         12    1    3    3    0    0 -0.22070466974E+01 -0.10296938641E+02  0.65617257992E+01  0.12407830026E+02  0.00000000000E+00 0. -1.
</event>
<event>
 7    1  0.4237994E-013  0.5930195E+02  0.7816164E-02  0.1266605E+00
        -11   -1    0    0    0    0  0.00000000000E+00  0.00000000000E+00  0.45593999997E+02  0.45594000000E+02  0.51100000000E-03 0. -1.
         11   -1    0    0    0    0 -0.00000000000E+00 -0.00000000000E+00 -0.45593999997E+02  0.45594000000E+02  0.51100000000E-03 0.  1.
    9900012    2    1    2    0    0 -0.22582662883E+01  0.21012613272E+02 -0.23876571537E+02  0.59301947382E+02  0.50000006118E+02 0.  0.
         12    1    1    2    0    0  0.22582662883E+01 -0.21012613272E+02  0.23876571537E+02  0.31886052618E+02  0.00000000000E+00 0. -1.
         11    1    3    3    0    0  0.17735349251E+02  0.16884225537E+02  0.14991527798E+01  0.24532980748E+02  0.51100000000E-03 0. -1.
        -11    1    3    3    0    0 -0.10106829328E+02  0.80138958721E+01 -0.11399709600E+02  0.17214061268E+02  0.51100000000E-03 0.  1.
         12    1    3    3    0    0 -0.98867862116E+01 -0.38855081367E+01 -0.13976014717E+02  0.17554905367E+02  0.00000000000E+00 0. -1.
</event>
<event>
 7    1  0.4237994E-013  0.5930194E+02  0.7816164E-02  0.1266605E+00
        -11   -1    0    0    0    0  0.00000000000E+00  0.00000000000E+00  0.45593999997E+02  0.45594000000E+02  0.51100000000E-03 0. -1.
         11   -1    0    0    0    0 -0.00000000000E+00 -0.00000000000E+00 -0.45593999997E+02  0.45594000000E+02  0.51100000000E-03 0.  1.
    9900012    2    1    2    0    0  0.12382624029E+01  0.29825109346E+02 -0.11209392982E+02  0.59301938276E+02  0.49999989509E+02 0.  0.
         12    1    1    2    0    0 -0.12382624029E+01 -0.29825109346E+02  0.11209392982E+02  0.31886061724E+02  0.00000000000E+00 0. -1.
         11    1    3    3    0    0  0.70435246738E+01  0.62000747638E+01  0.34904256751E+01  0.10011755019E+02  0.51100000000E-03 0. -1.
        -11    1    3    3    0    0 -0.10006398191E+02  0.30357241431E+02 -0.21760757286E+02  0.38668083351E+02  0.51100000000E-03 0.  1.
        -12    1    3    3    0    0  0.42011359205E+01 -0.67322068489E+01  0.70609386296E+01  0.10622099906E+02  0.00000000000E+00 0.  1.
</event>
<event>
 7    1  0.4237994E-013  0.5930194E+02  0.7816164E-02  0.1266605E+00
        -11   -1    0    0    0    0  0.00000000000E+00  0.00000000000E+00  0.45593999997E+02  0.45594000000E+02  0.51100000000E-03 0.  1.
         11   -1    0    0    0    0 -0.00000000000E+00 -0.00000000000E+00 -0.45593999997E+02  0.45594000000E+02  0.51100000000E-03 0. -1.
    9900012    2    1    2    0    0  0.12334119698E+01  0.17519160915E+02  0.26613507447E+02  0.59301935914E+02  0.49999985202E+02 0.  0.
         12    1    1    2    0    0 -0.12334119698E+01 -0.17519160915E+02 -0.26613507447E+02  0.31886064086E+02  0.00000000000E+00 0. -1.
         11    1    3    3    0    0 -0.38626465863E+01  0.27695360488E+02  0.80528900049E+00  0.27975016029E+02  0.51100000000E-03 0. -1.
        -11    1    3    3    0    0 -0.34922237631E+01 -0.77269149532E+01  0.95027083028E+01  0.12735866946E+02  0.51100000000E-03 0.  1.
         12    1    3    3    0    0  0.85882823193E+01 -0.24492846191E+01  0.16305510144E+02  0.18591052939E+02  0.00000000000E+00 0. -1.
</event>
<event>
 7    1  0.4237994E-013  0.5930193E+02  0.7816164E-02  0.1266605E+00
        -11   -1    0    0    0    0  0.00000000000E+00  0.00000000000E+00  0.45593999997E+02  0.45594000000E+02  0.51100000000E-03 0. -1.
         11   -1    0    0    0    0 -0.00000000000E+00 -0.00000000000E+00 -0.45593999997E+02  0.45594000000E+02  0.51100000000E-03 0.  1.
    9900012    2    1    2    0    0 -0.66670579991E+01  0.30076390343E+02 -0.82269344384E+01  0.59301931432E+02  0.49999977029E+02 0.  0.
         12    1    1    2    0    0  0.66670579991E+01 -0.30076390343E+02  0.82269344384E+01  0.31886068568E+02  0.00000000000E+00 0. -1.
         11    1    3    3    0    0 -0.86469222769E+01  0.44124980440E+01 -0.24605605306E+00  0.97108160158E+01  0.51100000000E-03 0. -1.
        -11    1    3    3    0    0  0.25755588588E+01 -0.51296433278E+01 -0.16636344809E+02  0.17598713389E+02  0.51100000000E-03 0.  1.
        -12    1    3    3    0    0 -0.59569458098E+00  0.30793535627E+02  0.86554664233E+01  0.31992402027E+02  0.00000000000E+00 0.  1.
</event>
<event>
 7    1  0.4237994E-013  0.5930193E+02  0.7816164E-02  0.1266605E+00
        -11   -1    0    0    0    0  0.00000000000E+00  0.00000000000E+00  0.45593999997E+02  0.45594000000E+02  0.51100000000E-03 0.  1.
         11   -1    0    0    0    0 -0.00000000000E+00 -0.00000000000E+00 -0.45593999997E+02  0.45594000000E+02  0.51100000000E-03 0. -1.
    9900012    2    1    2    0    0  0.26472005123E+01  0.13844613176E+02  0.28601412443E+02  0.59301925010E+02  0.49999965317E+02 0.  0.
         12    1    1    2    0    0 -0.26472005123E+01 -0.13844613176E+02 -0.28601412443E+02  0.31886074990E+02  0.00000000000E+00 0. -1.
         11    1    3    3    0    0  0.78839024586E+01  0.19124671182E+02 -0.76920105876E+01  0.22069798208E+02  0.51100000000E-03 0. -1.
        -11    1    3    3    0    0 -0.27842348595E+01 -0.24497422315E+01  0.26297078691E+02  0.26557288053E+02  0.51100000000E-03 0.  1.
         12    1    3    3    0    0 -0.24524670868E+01 -0.28303157743E+01  0.99963443389E+01  0.10674838750E+02  0.00000000000E+00 0. -1.
</event>
<event>
 7    1  0.4237994E-013  0.5930195E+02  0.7816164E-02  0.1266605E+00
        -11   -1    0    0    0    0  0.00000000000E+00  0.00000000000E+00  0.45593999997E+02  0.45594000000E+02  0.51100000000E-03 0.  1.
         11   -1    0    0    0    0 -0.00000000000E+00 -0.00000000000E+00 -0.45593999997E+02  0.45594000000E+02  0.51100000000E-03 0. -1.
    9900012    2    1    2    0    0  0.96894441229E+01 -0.29403343992E+02  0.76339986137E+01  0.59301954461E+02  0.50000019027E+02 0.  0.
         12    1    1    2    0    0 -0.96894441229E+01  0.29403343992E+02 -0.76339986137E+01  0.31886045539E+02  0.00000000000E+00 0. -1.
         11    1    3    3    0    0  0.20963349442E+02  0.20210361861E+00 -0.56424254243E+01  0.21710362287E+02  0.51100000000E-03 0. -1.
        -11    1    3    3    0    0  0.13010533474E+01 -0.17959150493E+02  0.74850750006E+01  0.19500004468E+02  0.51100000000E-03 0.  1.
         12    1    3    3    0    0 -0.12574958667E+02 -0.11646297117E+02  0.57913490374E+01  0.18091587705E+02  0.00000000000E+00 0. -1.
</event>
<event>
 7    1  0.4237994E-013  0.5930196E+02  0.7816164E-02  0.1266605E+00
        -11   -1    0    0    0    0  0.00000000000E+00  0.00000000000E+00  0.45593999997E+02  0.45594000000E+02  0.51100000000E-03 0.  1.
         11   -1    0    0    0    0 -0.00000000000E+00 -0.00000000000E+00 -0.45593999997E+02  0.45594000000E+02  0.51100000000E-03 0. -1.
    9900012    2    1    2    0    0 -0.28668740034E+02  0.13850391215E+02 -0.17291087021E+01  0.59301955892E+02  0.50000021637E+02 0.  0.
         12    1    1    2    0    0  0.28668740034E+02 -0.13850391215E+02  0.17291087021E+01  0.31886044108E+02  0.00000000000E+00 0. -1.
         11    1    3    3    0    0 -0.69368471390E+01  0.16156003749E+02 -0.26604486026E+01  0.17782415257E+02  0.51100000000E-03 0. -1.
        -11    1    3    3    0    0 -0.17194707661E+02 -0.12598820664E+02  0.13042805346E+02  0.24990058528E+02  0.51100000000E-03 0.  1.
        -12    1    3    3    0    0 -0.45371852341E+01  0.10293208130E+02 -0.12111465446E+02  0.16529482106E+02  0.00000000000E+00 0.  1.
</event>
<event>
 7    1  0.4237994E-013  0.5930196E+02  0.7816164E-02  0.1266605E+00
        -11   -1    0    0    0    0  0.00000000000E+00  0.00000000000E+00  0.45593999997E+02  0.45594000000E+02  0.51100000000E-03 0.  1.
         11   -1    0    0    0    0 -0.00000000000E+00 -0.00000000000E+00 -0.45593999997E+02  0.45594000000E+02  0.51100000000E-03 0. -1.
    9900012    2    1    2    0    0  0.11853767622E+02 -0.21915967172E+02  0.19897189833E+02  0.59301959369E+02  0.50000027978E+02 0.  0.
         12    1    1    2    0    0 -0.11853767622E+02  0.21915967172E+02 -0.19897189833E+02  0.31886040631E+02  0.00000000000E+00 0. -1.
         11    1    3    3    0    0 -0.89646206576E+01  0.30578562602E+01 -0.64263228578E+01  0.11446070687E+02  0.51100000000E-03 0. -1.
        -11    1    3    3    0    0  0.24005925186E+02 -0.12449703140E+02  0.17750108376E+02  0.32347270363E+02  0.51100000000E-03 0.  1.
         12    1    3    3    0    0 -0.31875369065E+01 -0.12524120292E+02  0.85734043144E+01  0.15508618319E+02  0.00000000000E+00 0. -1.
</event>
<event>
 7    1  0.4720151E-013  0.5930206E+02  0.7816164E-02  0.1266604E+00
        -11   -1    0    0    0    0  0.00000000000E+00  0.00000000000E+00  0.45593999997E+02  0.45594000000E+02  0.51100000000E-03 0. -1.
         11   -1    0    0    0    0 -0.00000000000E+00 -0.00000000000E+00 -0.45593999997E+02  0.45594000000E+02  0.51100000000E-03 0.  1.
    9900012    2    1    2    0    0  0.11358065057E+02 -0.28965260135E+02 -0.69800813819E+01  0.59302055249E+02  0.50000202841E+02 0.  0.
         12    1    1    2    0    0 -0.11358065057E+02  0.28965260135E+02  0.69800813819E+01  0.31885944751E+02  0.00000000000E+00 0. -1.
         11    1    3    3    0    0 -0.86247608114E+00  0.94584095457E+01 -0.32457495191E+01  0.10036945069E+02  0.51100000000E-03 0. -1.
        -11    1    3    3    0    0  0.19957886592E+02 -0.25293687332E+02  0.34741437857E+01  0.32406134163E+02  0.51100000000E-03 0.  1.
        -12    1    3    3    0    0 -0.77373454539E+01 -0.13129982349E+02 -0.72084756485E+01  0.16858976017E+02  0.00000000000E+00 0.  1.
</event>
<event>
 7    1  0.4237994E-013  0.5930203E+02  0.7816164E-02  0.1266604E+00
        -11   -1    0    0    0    0  0.00000000000E+00  0.00000000000E+00  0.45593999997E+02  0.45594000000E+02  0.51100000000E-03 0.  1.
         11   -1    0    0    0    0 -0.00000000000E+00 -0.00000000000E+00 -0.45593999997E+02  0.45594000000E+02  0.51100000000E-03 0. -1.
    9900012    2    1    2    0    0  0.22304003647E+02 -0.22525906555E+02  0.34395044985E+01  0.59302027598E+02  0.50000152412E+02 0.  0.
         12    1    1    2    0    0 -0.22304003647E+02  0.22525906555E+02 -0.34395044985E+01  0.31885972402E+02  0.00000000000E+00 0. -1.
         11    1    3    3    0    0  0.11035765660E+02 -0.32565609206E+02 -0.77435339504E+01  0.35245841528E+02  0.51100000000E-03 0. -1.
        -11    1    3    3    0    0  0.10099444588E+02  0.13501631184E+02  0.63945267126E+01  0.18032825562E+02  0.51100000000E-03 0.  1.
         12    1    3    3    0    0  0.11687933998E+01 -0.34619285318E+01  0.47885117363E+01  0.60233605089E+01  0.00000000000E+00 0. -1.
</event>
<event>
 7    1  0.4237994E-013  0.5930196E+02  0.7816164E-02  0.1266605E+00
        -11   -1    0    0    0    0  0.00000000000E+00  0.00000000000E+00  0.45593999997E+02  0.45594000000E+02  0.51100000000E-03 0. -1.
         11   -1    0    0    0    0 -0.00000000000E+00 -0.00000000000E+00 -0.45593999997E+02  0.45594000000E+02  0.51100000000E-03 0.  1.
    9900012    2    1    2    0    0 -0.39099968949E+00 -0.31312072611E+02  0.60100713849E+01  0.59301957129E+02  0.50000023893E+02 0.  0.
         12    1    1    2    0    0  0.39099968949E+00  0.31312072611E+02 -0.60100713849E+01  0.31886042871E+02  0.00000000000E+00 0. -1.
         11    1    3    3    0    0  0.94588336551E+01 -0.22697356158E+02  0.17930362369E+02  0.30432505740E+02  0.51100000000E-03 0. -1.
        -11    1    3    3    0    0 -0.16456048247E+02 -0.93835725019E+01 -0.57491084768E+01  0.19796595802E+02  0.51100000000E-03 0.  1.
         12    1    3    3    0    0  0.66062149025E+01  0.76885604922E+00 -0.61711825069E+01  0.90728555866E+01  0.00000000000E+00 0. -1.
</event>
<event>
 7    1  0.4237994E-013  0.5930194E+02  0.7816164E-02  0.1266605E+00
        -11   -1    0    0    0    0  0.00000000000E+00  0.00000000000E+00  0.45593999997E+02  0.45594000000E+02  0.51100000000E-03 0. -1.
         11   -1    0    0    0    0 -0.00000000000E+00 -0.00000000000E+00 -0.45593999997E+02  0.45594000000E+02  0.51100000000E-03 0.  1.
    9900012    2    1    2    0    0 -0.17923576008E+02 -0.26341400400E+02 -0.12636447755E+01  0.59301941134E+02  0.49999994722E+02 0.  0.
         12    1    1    2    0    0  0.17923576008E+02  0.26341400400E+02  0.12636447755E+01  0.31886058866E+02  0.00000000000E+00 0. -1.
         11    1    3    3    0    0  0.12963973876E+02 -0.90519515124E+00  0.77397873823E+01  0.15125749764E+02  0.51100000000E-03 0. -1.
        -11    1    3    3    0    0 -0.21763672982E+02 -0.23247075484E+02 -0.10271912000E+01  0.31861247656E+02  0.51100000000E-03 0.  1.
         12    1    3    3    0    0 -0.91238769021E+01 -0.21891297647E+01 -0.79762409578E+01  0.12314943714E+02  0.00000000000E+00 0. -1.
</event>
<event>
 7    1  0.4237994E-013  0.5930210E+02  0.7816164E-02  0.1266604E+00
        -11   -1    0    0    0    0  0.00000000000E+00  0.00000000000E+00  0.45593999997E+02  0.45594000000E+02  0.51100000000E-03 0.  1.
         11   -1    0    0    0    0 -0.00000000000E+00 -0.00000000000E+00 -0.45593999997E+02  0.45594000000E+02  0.51100000000E-03 0. -1.
    9900012    2    1    2    0    0 -0.21735748051E+02  0.17693214587E+02  0.15205860607E+02  0.59302097433E+02  0.50000279773E+02 0.  0.
         12    1    1    2    0    0  0.21735748051E+02 -0.17693214587E+02 -0.15205860607E+02  0.31885902567E+02  0.00000000000E+00 0. -1.
         11    1    3    3    0    0 -0.44599250637E+01  0.54311749397E+01  0.24139814439E+02  0.25141981509E+02  0.51100000000E-03 0. -1.
        -11    1    3    3    0    0 -0.16434978244E+02  0.18709695685E+02 -0.25257355374E+01  0.25030792292E+02  0.51100000000E-03 0.  1.
         12    1    3    3    0    0 -0.84084474272E+00 -0.64476560373E+01 -0.64082182946E+01  0.91293236314E+01  0.00000000000E+00 0. -1.
</event>
<event>
 7    1  0.4237994E-013  0.5930196E+02  0.7816164E-02  0.1266605E+00
        -11   -1    0    0    0    0  0.00000000000E+00  0.00000000000E+00  0.45593999997E+02  0.45594000000E+02  0.51100000000E-03 0.  1.
         11   -1    0    0    0    0 -0.00000000000E+00 -0.00000000000E+00 -0.45593999997E+02  0.45594000000E+02  0.51100000000E-03 0. -1.
    9900012    2    1    2    0    0 -0.61955858044E+00 -0.31722086266E+02 -0.31694138619E+01  0.59301956123E+02  0.50000022059E+02 0.  0.
         12    1    1    2    0    0  0.61955858044E+00  0.31722086266E+02  0.31694138619E+01  0.31886043877E+02  0.00000000000E+00 0. -1.
         11    1    3    3    0    0  0.10196694977E+02 -0.14614137324E+01 -0.18878737200E+02  0.21506162770E+02  0.51100000000E-03 0. -1.
        -11    1    3    3    0    0 -0.11426758053E+01 -0.11386563415E+02  0.11401366354E+02  0.16153968225E+02  0.51100000000E-03 0.  1.
         12    1    3    3    0    0 -0.96735777518E+01 -0.18874109118E+02  0.43079569843E+01  0.21641825129E+02  0.00000000000E+00 0. -1.
</event>
<event>
 7    1  0.4237994E-013  0.5930192E+02  0.7816164E-02  0.1266605E+00
        -11   -1    0    0    0    0  0.00000000000E+00  0.00000000000E+00  0.45593999997E+02  0.45594000000E+02  0.51100000000E-03 0. -1.
         11   -1    0    0    0    0 -0.00000000000E+00 -0.00000000000E+00 -0.45593999997E+02  0.45594000000E+02  0.51100000000E-03 0.  1.
    9900012    2    1    2    0    0 -0.11395657727E+02 -0.26463503379E+02 -0.13658111398E+02  0.59301921014E+02  0.49999958029E+02 0.  0.
         12    1    1    2    0    0  0.11395657727E+02  0.26463503379E+02  0.13658111398E+02  0.31886078986E+02  0.00000000000E+00 0. -1.
         11    1    3    3    0    0  0.11101240526E+02 -0.68800838786E+01 -0.15521471721E+02  0.20285196081E+02  0.51100000000E-03 0. -1.
        -11    1    3    3    0    0 -0.17021965993E+02 -0.20804940129E+01 -0.71533086178E+01  0.18580785937E+02  0.51100000000E-03 0.  1.
        -12    1    3    3    0    0 -0.54749322602E+01 -0.17502925488E+02  0.90166689411E+01  0.20435938997E+02  0.00000000000E+00 0.  1.
</event>
<event>
 7    1  0.4237994E-013  0.5930194E+02  0.7816164E-02  0.1266605E+00
        -11   -1    0    0    0    0  0.00000000000E+00  0.00000000000E+00  0.45593999997E+02  0.45594000000E+02  0.51100000000E-03 0.  1.
         11   -1    0    0    0    0 -0.00000000000E+00 -0.00000000000E+00 -0.45593999997E+02  0.45594000000E+02  0.51100000000E-03 0. -1.
    9900012    2    1    2    0    0 -0.29943756997E+02  0.10907810585E+02  0.10544555464E+01  0.59301940485E+02  0.49999993540E+02 0.  0.
         12    1    1    2    0    0  0.29943756997E+02 -0.10907810585E+02 -0.10544555464E+01  0.31886059515E+02  0.00000000000E+00 0. -1.
         11    1    3    3    0    0 -0.22943357365E+02 -0.96156435090E+01 -0.13615553126E+02  0.28359152570E+02  0.51100000000E-03 0. -1.
        -11    1    3    3    0    0  0.41300235413E+01  0.82997927588E+01  0.10270034842E+02  0.13835363031E+02  0.51100000000E-03 0.  1.
         12    1    3    3    0    0 -0.11130423173E+02  0.12223661336E+02  0.43999738309E+01  0.17107424885E+02  0.00000000000E+00 0. -1.
</event>
<event>
 7    1  0.4237994E-013  0.5930195E+02  0.7816164E-02  0.1266605E+00
        -11   -1    0    0    0    0  0.00000000000E+00  0.00000000000E+00  0.45593999997E+02  0.45594000000E+02  0.51100000000E-03 0. -1.
         11   -1    0    0    0    0 -0.00000000000E+00 -0.00000000000E+00 -0.45593999997E+02  0.45594000000E+02  0.51100000000E-03 0.  1.
    9900012    2    1    2    0    0 -0.15900148017E+02  0.92828355737E+01 -0.26033328061E+02  0.59301954256E+02  0.50000018655E+02 0.  0.
         12    1    1    2    0    0  0.15900148017E+02 -0.92828355737E+01  0.26033328061E+02  0.31886045744E+02  0.00000000000E+00 0. -1.
         11    1    3    3    0    0 -0.24060451633E+02  0.18529295054E+02 -0.10632288461E+02  0.32175855329E+02  0.51100000000E-03 0. -1.
        -11    1    3    3    0    0  0.98216508372E+01 -0.59954769563E+01 -0.18862356136E+02  0.22095226823E+02  0.51100000000E-03 0.  1.
         12    1    3    3    0    0 -0.16613472209E+01 -0.32509825243E+01  0.34613165363E+01  0.50308721040E+01  0.00000000000E+00 0. -1.
</event>
<event>
 7    1  0.4237994E-013  0.5930192E+02  0.7816164E-02  0.1266605E+00
        -11   -1    0    0    0    0  0.00000000000E+00  0.00000000000E+00  0.45593999997E+02  0.45594000000E+02  0.51100000000E-03 0.  1.
         11   -1    0    0    0    0 -0.00000000000E+00 -0.00000000000E+00 -0.45593999997E+02  0.45594000000E+02  0.51100000000E-03 0. -1.
    9900012    2    1    2    0    0  0.25285433493E+02  0.15142068745E+02  0.12169091014E+02  0.59301918884E+02  0.49999954144E+02 0.  0.
         12    1    1    2    0    0 -0.25285433493E+02 -0.15142068745E+02 -0.12169091014E+02  0.31886081116E+02  0.00000000000E+00 0. -1.
         11    1    3    3    0    0  0.16500572062E+02  0.30185202495E+02 -0.21313522222E+01  0.34466766465E+02  0.51100000000E-03 0. -1.
        -11    1    3    3    0    0  0.88171822293E+01 -0.47584294551E+01  0.71618133928E+01  0.12315718602E+02  0.51100000000E-03 0.  1.
         12    1    3    3    0    0 -0.32320797691E-01 -0.10284704295E+02  0.71386298434E+01  0.12519433817E+02  0.00000000000E+00 0. -1.
</event>
<event>
 7    1  0.4237994E-013  0.5930196E+02  0.7816164E-02  0.1266605E+00
        -11   -1    0    0    0    0  0.00000000000E+00  0.00000000000E+00  0.45593999997E+02  0.45594000000E+02  0.51100000000E-03 0.  1.
         11   -1    0    0    0    0 -0.00000000000E+00 -0.00000000000E+00 -0.45593999997E+02  0.45594000000E+02  0.51100000000E-03 0. -1.
    9900012    2    1    2    0    0 -0.25023245614E+02 -0.68577683279E+01  0.18534506532E+02  0.59301956974E+02  0.50000023610E+02 0.  0.
         12    1    1    2    0    0  0.25023245614E+02  0.68577683279E+01 -0.18534506532E+02  0.31886043026E+02  0.00000000000E+00 0. -1.
         11    1    3    3    0    0 -0.14747318909E+02 -0.67463214285E+01 -0.13930872851E+02  0.21379089935E+02  0.51100000000E-03 0.  1.
        -11    1    3    3    0    0 -0.14604064659E+02  0.19832068283E+01  0.23231885368E+02  0.27512402874E+02  0.51100000000E-03 0. -1.
         12    1    3    3    0    0  0.43281379538E+01 -0.20946537277E+01  0.92334940147E+01  0.10410464164E+02  0.00000000000E+00 0. -1.
</event>
<event>
 7    1  0.4237994E-013  0.5930195E+02  0.7816164E-02  0.1266605E+00
        -11   -1    0    0    0    0  0.00000000000E+00  0.00000000000E+00  0.45593999997E+02  0.45594000000E+02  0.51100000000E-03 0.  1.
         11   -1    0    0    0    0 -0.00000000000E+00 -0.00000000000E+00 -0.45593999997E+02  0.45594000000E+02  0.51100000000E-03 0. -1.
    9900012    2    1    2    0    0 -0.16711404441E+02 -0.17571929950E+02  0.20704496136E+02  0.59301954137E+02  0.50000018436E+02 0.  0.
         12    1    1    2    0    0  0.16711404441E+02  0.17571929950E+02 -0.20704496136E+02  0.31886045863E+02  0.00000000000E+00 0. -1.
         11    1    3    3    0    0  0.42333479412E+01  0.13035258182E+01  0.82719773961E-01  0.44302660385E+01  0.51100000000E-03 0. -1.
        -11    1    3    3    0    0 -0.32148452850E+02 -0.92467513395E+01  0.58107503921E+01  0.33952765004E+02  0.51100000000E-03 0.  1.
        -12    1    3    3    0    0  0.11203700468E+02 -0.96287044287E+01  0.14811025970E+02  0.20918923094E+02  0.00000000000E+00 0.  1.
</event>
<event>
 7    1  0.4237994E-013  0.5930208E+02  0.7816164E-02  0.1266604E+00
        -11   -1    0    0    0    0  0.00000000000E+00  0.00000000000E+00  0.45593999997E+02  0.45594000000E+02  0.51100000000E-03 0.  1.
         11   -1    0    0    0    0 -0.00000000000E+00 -0.00000000000E+00 -0.45593999997E+02  0.45594000000E+02  0.51100000000E-03 0. -1.
    9900012    2    1    2    0    0 -0.45779649580E+01 -0.12341590291E+01  0.31531432490E+02  0.59302076044E+02  0.50000240766E+02 0.  0.
         12    1    1    2    0    0  0.45779649580E+01  0.12341590291E+01 -0.31531432490E+02  0.31885923956E+02  0.00000000000E+00 0. -1.
         11    1    3    3    0    0  0.14107165682E+01 -0.69794392043E+01 -0.79322686670E+01  0.10659436163E+02  0.51100000000E-03 0. -1.
        -11    1    3    3    0    0 -0.16258815700E+02  0.72190918425E+01  0.21579518629E+02  0.27966765983E+02  0.51100000000E-03 0.  1.
        -12    1    3    3    0    0  0.10270134174E+02 -0.14738116673E+01  0.17884182528E+02  0.20675873899E+02  0.00000000000E+00 0.  1.
</event>
<event>
 7    1  0.4237994E-013  0.5930199E+02  0.7816164E-02  0.1266605E+00
        -11   -1    0    0    0    0  0.00000000000E+00  0.00000000000E+00  0.45593999997E+02  0.45594000000E+02  0.51100000000E-03 0.  1.
         11   -1    0    0    0    0 -0.00000000000E+00 -0.00000000000E+00 -0.45593999997E+02  0.45594000000E+02  0.51100000000E-03 0. -1.
    9900012    2    1    2    0    0  0.14825303580E+02 -0.21693964110E+02  0.18063773262E+02  0.59301990380E+02  0.50000084535E+02 0.  0.
         12    1    1    2    0    0 -0.14825303580E+02  0.21693964110E+02 -0.18063773262E+02  0.31886009620E+02  0.00000000000E+00 0. -1.
         11    1    3    3    0    0 -0.28130866712E+01 -0.11104267145E+01 -0.58830451064E+01  0.66148865518E+01  0.51100000000E-03 0. -1.
        -11    1    3    3    0    0  0.25381336741E+02 -0.16890438053E+02  0.29535922272E+02  0.42448437629E+02  0.51100000000E-03 0.  1.
        -12    1    3    3    0    0 -0.77429464895E+01 -0.36930993424E+01 -0.55891039038E+01  0.10238666199E+02  0.00000000000E+00 0.  1.
</event>
<event>
 7    1  0.4237994E-013  0.5930193E+02  0.7816164E-02  0.1266605E+00
        -11   -1    0    0    0    0  0.00000000000E+00  0.00000000000E+00  0.45593999997E+02  0.45594000000E+02  0.51100000000E-03 0. -1.
         11   -1    0    0    0    0 -0.00000000000E+00 -0.00000000000E+00 -0.45593999997E+02  0.45594000000E+02  0.51100000000E-03 0.  1.
    9900012    2    1    2    0    0  0.68954837074E+01 -0.30911535842E+02 -0.36946982270E+01  0.59301928767E+02  0.49999972168E+02 0.  0.
         12    1    1    2    0    0 -0.68954837074E+01  0.30911535842E+02  0.36946982270E+01  0.31886071233E+02  0.00000000000E+00 0. -1.
         11    1    3    3    0    0  0.47754470268E+01 -0.23931304250E+02  0.33806184094E+01  0.24636168503E+02  0.51100000000E-03 0. -1.
        -11    1    3    3    0    0 -0.95940320718E+01 -0.97435042474E+01 -0.14967521111E+02  0.20273332604E+02  0.51100000000E-03 0.  1.
         12    1    3    3    0    0  0.11714068752E+02  0.27632726550E+01  0.78922044742E+01  0.14392427661E+02  0.00000000000E+00 0. -1.
</event>
<event>
 7    1  0.4237994E-013  0.5930195E+02  0.7816164E-02  0.1266605E+00
        -11   -1    0    0    0    0  0.00000000000E+00  0.00000000000E+00  0.45593999997E+02  0.45594000000E+02  0.51100000000E-03 0. -1.
         11   -1    0    0    0    0 -0.00000000000E+00 -0.00000000000E+00 -0.45593999997E+02  0.45594000000E+02  0.51100000000E-03 0.  1.
    9900012    2    1    2    0    0  0.70070751018E+01  0.17766876276E+02 -0.25533493134E+02  0.59301948728E+02  0.50000008572E+02 0.  0.
         12    1    1    2    0    0 -0.70070751018E+01 -0.17766876276E+02  0.25533493134E+02  0.31886051272E+02  0.00000000000E+00 0. -1.
         11    1    3    3    0    0  0.41265071071E+01 -0.19460690086E+01  0.49131642422E+01  0.67048063822E+01  0.51100000000E-03 0. -1.
        -11    1    3    3    0    0  0.77602539020E+01  0.19912542527E+02 -0.38002977594E+02  0.43599967853E+02  0.51100000000E-03 0.  1.
        -12    1    3    3    0    0 -0.48796859073E+01 -0.19959724274E+00  0.75563202177E+01  0.89971744923E+01  0.00000000000E+00 0.  1.
</event>
<event>
 7    1  0.4237994E-013  0.5930194E+02  0.7816164E-02  0.1266605E+00
        -11   -1    0    0    0    0  0.00000000000E+00  0.00000000000E+00  0.45593999997E+02  0.45594000000E+02  0.51100000000E-03 0.  1.
         11   -1    0    0    0    0 -0.00000000000E+00 -0.00000000000E+00 -0.45593999997E+02  0.45594000000E+02  0.51100000000E-03 0. -1.
    9900012    2    1    2    0    0 -0.62956129426E+01  0.25788912534E+02  0.17664027382E+02  0.59301943246E+02  0.49999998574E+02 0.  0.
         12    1    1    2    0    0  0.62956129426E+01 -0.25788912534E+02 -0.17664027382E+02  0.31886056754E+02  0.00000000000E+00 0. -1.
         11    1    3    3    0    0 -0.28473348401E+01  0.15248506692E+02 -0.13316329569E+02  0.20443798705E+02  0.51100000000E-03 0. -1.
        -11    1    3    3    0    0  0.18019109235E+01 -0.59145832329E+01  0.82814309777E+01  0.10334954141E+02  0.51100000000E-03 0.  1.
         12    1    3    3    0    0 -0.52501890261E+01  0.16454989074E+02  0.22698925973E+02  0.28523190400E+02  0.00000000000E+00 0. -1.
</event>
<event>
 7    1  0.4237994E-013  0.5930195E+02  0.7816164E-02  0.1266605E+00
        -11   -1    0    0    0    0  0.00000000000E+00  0.00000000000E+00  0.45593999997E+02  0.45594000000E+02  0.51100000000E-03 0.  1.
         11   -1    0    0    0    0 -0.00000000000E+00 -0.00000000000E+00 -0.45593999997E+02  0.45594000000E+02  0.51100000000E-03 0. -1.
    9900012    2    1    2    0    0  0.20345974325E+02  0.22467684575E+02  0.98977146374E+01  0.59301948560E+02  0.50000008266E+02 0.  0.
         12    1    1    2    0    0 -0.20345974325E+02 -0.22467684575E+02 -0.98977146374E+01  0.31886051440E+02  0.00000000000E+00 0. -1.
         11    1    3    3    0    0  0.15858079860E+02 -0.45523027497E+01 -0.80688509859E+01  0.18365960733E+02  0.51100000000E-03 0. -1.
        -11    1    3    3    0    0  0.28869558994E+01  0.26031674943E+02  0.23439834119E+02  0.35148377466E+02  0.51100000000E-03 0.  1.
         12    1    3    3    0    0  0.16009385656E+01  0.98831238175E+00 -0.54732684959E+01  0.57876103604E+01  0.00000000000E+00 0. -1.
</event>
<event>
 7    1  0.4237994E-013  0.5930194E+02  0.7816164E-02  0.1266605E+00
        -11   -1    0    0    0    0  0.00000000000E+00  0.00000000000E+00  0.45593999997E+02  0.45594000000E+02  0.51100000000E-03 0. -1.
         11   -1    0    0    0    0 -0.00000000000E+00 -0.00000000000E+00 -0.45593999997E+02  0.45594000000E+02  0.51100000000E-03 0.  1.
    9900012    2    1    2    0    0  0.86521876974E+01  0.29974618303E+02 -0.65865446662E+01  0.59301942467E+02  0.49999997154E+02 0.  0.
         12    1    1    2    0    0 -0.86521876974E+01 -0.29974618303E+02  0.65865446662E+01  0.31886057533E+02  0.00000000000E+00 0. -1.
         11    1    3    3    0    0  0.15088923601E+02 -0.66713867801E+00  0.37924677255E+00  0.15108425392E+02  0.51100000000E-03 0. -1.
        -11    1    3    3    0    0 -0.11548637966E+01  0.35481008226E+02 -0.21563376623E+01  0.35565228067E+02  0.51100000000E-03 0.  1.
        -12    1    3    3    0    0 -0.52818721071E+01 -0.48392512452E+01 -0.48094537765E+01  0.86282890076E+01  0.00000000000E+00 0.  1.
</event>
<event>
 7    1  0.4237994E-013  0.5930183E+02  0.7816164E-02  0.1266605E+00
        -11   -1    0    0    0    0  0.00000000000E+00  0.00000000000E+00  0.45593999997E+02  0.45594000000E+02  0.51100000000E-03 0.  1.
         11   -1    0    0    0    0 -0.00000000000E+00 -0.00000000000E+00 -0.45593999997E+02  0.45594000000E+02  0.51100000000E-03 0. -1.
    9900012    2    1    2    0    0 -0.22107556526E+02 -0.28447557663E+01  0.22801124106E+02  0.59301828210E+02  0.49999788776E+02 0.  0.
         12    1    1    2    0    0  0.22107556526E+02  0.28447557663E+01 -0.22801124106E+02  0.31886171790E+02  0.00000000000E+00 0. -1.
         11    1    3    3    0    0  0.13714946661E+02  0.22845329816E+01  0.11378960262E+01  0.13950400012E+02  0.51100000000E-03 0. -1.
        -11    1    3    3    0    0 -0.20625306748E+02  0.52966739879E+01  0.13351908723E+02  0.25134269446E+02  0.51100000000E-03 0.  1.
         12    1    3    3    0    0 -0.15197196438E+02 -0.10425962736E+02  0.83113193572E+01  0.20217158752E+02  0.00000000000E+00 0. -1.
</event>
<event>
 7    1  0.4237994E-013  0.5930183E+02  0.7816164E-02  0.1266605E+00
        -11   -1    0    0    0    0  0.00000000000E+00  0.00000000000E+00  0.45593999997E+02  0.45594000000E+02  0.51100000000E-03 0. -1.
         11   -1    0    0    0    0 -0.00000000000E+00 -0.00000000000E+00 -0.45593999997E+02  0.45594000000E+02  0.51100000000E-03 0.  1.
    9900012    2    1    2    0    0  0.38670989624E+01 -0.31473596993E+02 -0.33445400926E+01  0.59301831988E+02  0.49999795666E+02 0.  0.
         12    1    1    2    0    0 -0.38670989624E+01  0.31473596993E+02  0.33445400926E+01  0.31886168012E+02  0.00000000000E+00 0. -1.
         11    1    3    3    0    0  0.40399684901E+01 -0.24688730635E+02 -0.13617381198E+02  0.28483114941E+02  0.51100000000E-03 0.  1.
        -11    1    3    3    0    0 -0.40053822179E+01  0.74126710901E+01  0.13357621462E+02  0.15792936104E+02  0.51100000000E-03 0. -1.
         12    1    3    3    0    0  0.38325126901E+01 -0.14197537448E+02 -0.30847803569E+01  0.15025780943E+02  0.00000000000E+00 0. -1.
</event>
<event>
 7    1  0.4237994E-013  0.5930196E+02  0.7816164E-02  0.1266605E+00
        -11   -1    0    0    0    0  0.00000000000E+00  0.00000000000E+00  0.45593999997E+02  0.45594000000E+02  0.51100000000E-03 0. -1.
         11   -1    0    0    0    0 -0.00000000000E+00 -0.00000000000E+00 -0.45593999997E+02  0.45594000000E+02  0.51100000000E-03 0.  1.
    9900012    2    1    2    0    0  0.26194214386E+02  0.12929043113E+02 -0.12783689192E+02  0.59301957090E+02  0.50000023822E+02 0.  0.
         12    1    1    2    0    0 -0.26194214386E+02 -0.12929043113E+02  0.12783689192E+02  0.31886042910E+02  0.00000000000E+00 0. -1.
         11    1    3    3    0    0  0.11612449098E+02  0.58921880379E+01  0.12316853410E+02  0.17924054567E+02  0.51100000000E-03 0. -1.
        -11    1    3    3    0    0  0.17681125049E+02  0.15692121159E+02 -0.19187002422E+02  0.30446771778E+02  0.51100000000E-03 0.  1.
         12    1    3    3    0    0 -0.30993597605E+01 -0.86552660839E+01 -0.59135401803E+01  0.10931130745E+02  0.00000000000E+00 0. -1.
</event>
<event>
 7    1  0.4237994E-013  0.5930199E+02  0.7816164E-02  0.1266605E+00
        -11   -1    0    0    0    0  0.00000000000E+00  0.00000000000E+00  0.45593999997E+02  0.45594000000E+02  0.51100000000E-03 0.  1.
         11   -1    0    0    0    0 -0.00000000000E+00 -0.00000000000E+00 -0.45593999997E+02  0.45594000000E+02  0.51100000000E-03 0. -1.
    9900012    2    1    2    0    0 -0.31829139386E+01 -0.14089408548E+02  0.28426665032E+02  0.59301989600E+02  0.50000083113E+02 0.  0.
         12    1    1    2    0    0  0.31829139386E+01  0.14089408548E+02 -0.28426665032E+02  0.31886010400E+02  0.00000000000E+00 0. -1.
         11    1    3    3    0    0 -0.19415910683E+02 -0.54327846539E+01  0.19089140653E+02  0.27764870392E+02  0.51100000000E-03 0.  1.
        -11    1    3    3    0    0  0.22419865790E+02 -0.76639054473E+01  0.86934238487E+01  0.25238095158E+02  0.51100000000E-03 0. -1.
         12    1    3    3    0    0 -0.61868690450E+01 -0.99271844708E+00  0.64410053008E+00  0.62990240504E+01  0.00000000000E+00 0. -1.
</event>
<event>
 7    1  0.4237994E-013  0.5930196E+02  0.7816164E-02  0.1266605E+00
        -11   -1    0    0    0    0  0.00000000000E+00  0.00000000000E+00  0.45593999997E+02  0.45594000000E+02  0.51100000000E-03 0.  1.
         11   -1    0    0    0    0 -0.00000000000E+00 -0.00000000000E+00 -0.45593999997E+02  0.45594000000E+02  0.51100000000E-03 0. -1.
    9900012    2    1    2    0    0  0.85582517849E+01 -0.53260445442E+01  0.30250773773E+02  0.59301957004E+02  0.50000023665E+02 0.  0.
         12    1    1    2    0    0 -0.85582517849E+01  0.53260445442E+01 -0.30250773773E+02  0.31886042996E+02  0.00000000000E+00 0. -1.
         11    1    3    3    0    0  0.68820046335E+00  0.12437892392E+02 -0.73894820489E+01  0.14483757532E+02  0.51100000000E-03 0. -1.
        -11    1    3    3    0    0  0.29309135818E+01 -0.79987348070E+00  0.18586649511E+02  0.18833310711E+02  0.51100000000E-03 0.  1.
         12    1    3    3    0    0  0.49391377398E+01 -0.16964063455E+02  0.19053606310E+02  0.25984888762E+02  0.00000000000E+00 0. -1.
</event>
<event>
 7    1  0.4237994E-013  0.5930195E+02  0.7816164E-02  0.1266605E+00
        -11   -1    0    0    0    0  0.00000000000E+00  0.00000000000E+00  0.45593999997E+02  0.45594000000E+02  0.51100000000E-03 0. -1.
         11   -1    0    0    0    0 -0.00000000000E+00 -0.00000000000E+00 -0.45593999997E+02  0.45594000000E+02  0.51100000000E-03 0.  1.
    9900012    2    1    2    0    0 -0.29146022657E+02  0.11878338549E+02 -0.51121731065E+01  0.59301954819E+02  0.50000019681E+02 0.  0.
         12    1    1    2    0    0  0.29146022657E+02 -0.11878338549E+02  0.51121731065E+01  0.31886045181E+02  0.00000000000E+00 0. -1.
         11    1    3    3    0    0  0.45378249757E+01 -0.25188494086E+01  0.11219881087E+02  0.12362127233E+02  0.51100000000E-03 0. -1.
        -11    1    3    3    0    0 -0.26413630376E+02  0.16500533621E+02 -0.21438856887E+02  0.37809682151E+02  0.51100000000E-03 0.  1.
        -12    1    3    3    0    0 -0.72702172559E+01 -0.21033456633E+01  0.51068026932E+01  0.91301454356E+01  0.00000000000E+00 0.  1.
</event>
<event>
 7    1  0.4237994E-013  0.5930193E+02  0.7816164E-02  0.1266605E+00
        -11   -1    0    0    0    0  0.00000000000E+00  0.00000000000E+00  0.45593999997E+02  0.45594000000E+02  0.51100000000E-03 0. -1.
         11   -1    0    0    0    0 -0.00000000000E+00 -0.00000000000E+00 -0.45593999997E+02  0.45594000000E+02  0.51100000000E-03 0.  1.
    9900012    2    1    2    0    0  0.16267639641E+02 -0.27421463879E+02  0.38595263518E+00  0.59301925607E+02  0.49999966405E+02 0.  0.
         12    1    1    2    0    0 -0.16267639641E+02  0.27421463879E+02 -0.38595263518E+00  0.31886074393E+02  0.00000000000E+00 0. -1.
         11    1    3    3    0    0  0.14470067838E+02 -0.36589556600E+02  0.13608588627E+02  0.41633786762E+02  0.51100000000E-03 0. -1.
        -11    1    3    3    0    0 -0.22139572468E+01  0.15532055749E+01 -0.53913770509E+01  0.60316665205E+01  0.51100000000E-03 0.  1.
         12    1    3    3    0    0  0.40115290491E+01  0.76148871460E+01 -0.78312589409E+01  0.11636472324E+02  0.00000000000E+00 0. -1.
</event>
<event>
 7    1  0.4237994E-013  0.5930194E+02  0.7816164E-02  0.1266605E+00
        -11   -1    0    0    0    0  0.00000000000E+00  0.00000000000E+00  0.45593999997E+02  0.45594000000E+02  0.51100000000E-03 0. -1.
         11   -1    0    0    0    0 -0.00000000000E+00 -0.00000000000E+00 -0.45593999997E+02  0.45594000000E+02  0.51100000000E-03 0.  1.
    9900012    2    1    2    0    0 -0.13561606977E+02 -0.15825319166E+02 -0.24132190251E+02  0.59301944791E+02  0.50000001391E+02 0.  0.
         12    1    1    2    0    0  0.13561606977E+02  0.15825319166E+02  0.24132190251E+02  0.31886055209E+02  0.00000000000E+00 0. -1.
         11    1    3    3    0    0  0.40294631497E+01  0.62912514925E+01 -0.47196181362E+01  0.88369233464E+01  0.51100000000E-03 0. -1.
        -11    1    3    3    0    0 -0.22459230933E+02 -0.12411500071E+02  0.27283691949E+01  0.25805162020E+02  0.51100000000E-03 0.  1.
        -12    1    3    3    0    0  0.48681608069E+01 -0.97050705873E+01 -0.22140941310E+02  0.24659859425E+02  0.00000000000E+00 0.  1.
</event>
<event>
 7    1  0.4237994E-013  0.5930191E+02  0.7816164E-02  0.1266605E+00
        -11   -1    0    0    0    0  0.00000000000E+00  0.00000000000E+00  0.45593999997E+02  0.45594000000E+02  0.51100000000E-03 0.  1.
         11   -1    0    0    0    0 -0.00000000000E+00 -0.00000000000E+00 -0.45593999997E+02  0.45594000000E+02  0.51100000000E-03 0. -1.
    9900012    2    1    2    0    0 -0.22950552354E+02  0.19850342457E+01  0.22046648517E+02  0.59301907026E+02  0.49999932517E+02 0.  0.
         12    1    1    2    0    0  0.22950552354E+02 -0.19850342457E+01 -0.22046648517E+02  0.31886092974E+02  0.00000000000E+00 0. -1.
         11    1    3    3    0    0 -0.97341658595E+01  0.13014380612E+01 -0.42864430775E+01  0.10715471083E+02  0.51100000000E-03 0. -1.
        -11    1    3    3    0    0  0.14053147891E+01 -0.17160158749E+02  0.15218243360E+02  0.22979140305E+02  0.51100000000E-03 0.  1.
        -12    1    3    3    0    0 -0.14621701284E+02  0.17843754934E+02  0.11114848235E+02  0.25607295638E+02  0.00000000000E+00 0.  1.
</event>
<event>
 7    1  0.4237994E-013  0.5930196E+02  0.7816164E-02  0.1266605E+00
        -11   -1    0    0    0    0  0.00000000000E+00  0.00000000000E+00  0.45593999997E+02  0.45594000000E+02  0.51100000000E-03 0. -1.
         11   -1    0    0    0    0 -0.00000000000E+00 -0.00000000000E+00 -0.45593999997E+02  0.45594000000E+02  0.51100000000E-03 0.  1.
    9900012    2    1    2    0    0 -0.66048454600E+00  0.10698211476E+02 -0.30030515624E+02  0.59301955446E+02  0.50000020825E+02 0.  0.
         12    1    1    2    0    0  0.66048454600E+00 -0.10698211476E+02  0.30030515624E+02  0.31886044554E+02  0.00000000000E+00 0. -1.
         11    1    3    3    0    0  0.31582784700E+01 -0.65842549091E+01 -0.24626507897E+02  0.25686417170E+02  0.51100000000E-03 0. -1.
        -11    1    3    3    0    0  0.11809295633E+02  0.48407834837E+01  0.53940171835E+00  0.12774333742E+02  0.51100000000E-03 0.  1.
        -12    1    3    3    0    0 -0.15628058649E+02  0.12441682902E+02 -0.59434094459E+01  0.20841204534E+02  0.00000000000E+00 0.  1.
</event>
<event>
 7    1  0.4237994E-013  0.5930201E+02  0.7816164E-02  0.1266605E+00
        -11   -1    0    0    0    0  0.00000000000E+00  0.00000000000E+00  0.45593999997E+02  0.45594000000E+02  0.51100000000E-03 0. -1.
         11   -1    0    0    0    0 -0.00000000000E+00 -0.00000000000E+00 -0.45593999997E+02  0.45594000000E+02  0.51100000000E-03 0.  1.
    9900012    2    1    2    0    0 -0.29462487772E+02 -0.14354708349E+01 -0.12108571485E+02  0.59302011452E+02  0.50000122966E+02 0.  0.
         12    1    1    2    0    0  0.29462487772E+02  0.14354708349E+01  0.12108571485E+02  0.31885988548E+02  0.00000000000E+00 0. -1.
         11    1    3    3    0    0 -0.29324282167E+02 -0.95519646838E+01 -0.15506772388E+02  0.34519755852E+02  0.51100000000E-03 0.  1.
        -11    1    3    3    0    0  0.63462319310E+01 -0.35543111353E+01  0.78561817863E+01  0.10706417696E+02  0.51100000000E-03 0. -1.
        -12    1    3    3    0    0 -0.64844375363E+01  0.11670804984E+02 -0.44579808830E+01  0.14075837904E+02  0.00000000000E+00 0.  1.
</event>
<event>
 7    1  0.4237994E-013  0.5930196E+02  0.7816164E-02  0.1266605E+00
        -11   -1    0    0    0    0  0.00000000000E+00  0.00000000000E+00  0.45593999997E+02  0.45594000000E+02  0.51100000000E-03 0.  1.
         11   -1    0    0    0    0 -0.00000000000E+00 -0.00000000000E+00 -0.45593999997E+02  0.45594000000E+02  0.51100000000E-03 0. -1.
    9900012    2    1    2    0    0  0.70347272670E+01  0.29022232832E+02  0.11177753098E+02  0.59301959942E+02  0.50000029024E+02 0.  0.
         12    1    1    2    0    0 -0.70347272670E+01 -0.29022232832E+02 -0.11177753098E+02  0.31886040058E+02  0.00000000000E+00 0. -1.
         11    1    3    3    0    0  0.10799502773E+02 -0.11397014467E+02  0.27696553677E+01  0.15943405848E+02  0.51100000000E-03 0. -1.
        -11    1    3    3    0    0 -0.31451560579E+01  0.39535666150E+02  0.52320805956E+01  0.40004194432E+02  0.51100000000E-03 0.  1.
        -12    1    3    3    0    0 -0.61961944853E+00  0.88358114840E+00  0.31760171344E+01  0.33543596624E+01  0.00000000000E+00 0.  1.
</event>
<event>
 7    1  0.4237994E-013  0.5930197E+02  0.7816164E-02  0.1266605E+00
        -11   -1    0    0    0    0  0.00000000000E+00  0.00000000000E+00  0.45593999997E+02  0.45594000000E+02  0.51100000000E-03 0. -1.
         11   -1    0    0    0    0 -0.00000000000E+00 -0.00000000000E+00 -0.45593999997E+02  0.45594000000E+02  0.51100000000E-03 0.  1.
    9900012    2    1    2    0    0 -0.20997616078E+02 -0.11473989829E+02 -0.21075265838E+02  0.59301966165E+02  0.50000040374E+02 0.  0.
         12    1    1    2    0    0  0.20997616078E+02  0.11473989829E+02  0.21075265838E+02  0.31886033835E+02  0.00000000000E+00 0. -1.
         11    1    3    3    0    0 -0.52668929940E+00 -0.16911963952E+02 -0.78640456112E+01  0.18658379886E+02  0.51100000000E-03 0. -1.
        -11    1    3    3    0    0 -0.28046569043E+02  0.95897368415E+01 -0.86632222723E+01  0.30880811326E+02  0.51100000000E-03 0.  1.
        -12    1    3    3    0    0  0.75756422643E+01 -0.41517627190E+01 -0.45479979545E+01  0.97627749531E+01  0.00000000000E+00 0.  1.
</event>
<event>
 7    1  0.4237994E-013  0.5930192E+02  0.7816164E-02  0.1266605E+00
        -11   -1    0    0    0    0  0.00000000000E+00  0.00000000000E+00  0.45593999997E+02  0.45594000000E+02  0.51100000000E-03 0. -1.
         11   -1    0    0    0    0 -0.00000000000E+00 -0.00000000000E+00 -0.45593999997E+02  0.45594000000E+02  0.51100000000E-03 0.  1.
    9900012    2    1    2    0    0 -0.99695801735E+01 -0.30047724212E+02 -0.38031088122E+01  0.59301923167E+02  0.49999961955E+02 0.  0.
         12    1    1    2    0    0  0.99695801735E+01  0.30047724212E+02  0.38031088122E+01  0.31886076833E+02  0.00000000000E+00 0. -1.
         11    1    3    3    0    0 -0.65248199956E+01  0.20762477949E+01  0.15481674942E+02  0.16928270441E+02  0.51100000000E-03 0. -1.
        -11    1    3    3    0    0  0.55784416356E+01 -0.59667577734E+01 -0.10581263237E+02  0.13367286238E+02  0.51100000000E-03 0.  1.
         12    1    3    3    0    0 -0.90232018134E+01 -0.26157214234E+02 -0.87035205168E+01  0.29006366488E+02  0.00000000000E+00 0. -1.
</event>
<event>
 7    1  0.4237994E-013  0.5930195E+02  0.7816164E-02  0.1266605E+00
        -11   -1    0    0    0    0  0.00000000000E+00  0.00000000000E+00  0.45593999997E+02  0.45594000000E+02  0.51100000000E-03 0.  1.
         11   -1    0    0    0    0 -0.00000000000E+00 -0.00000000000E+00 -0.45593999997E+02  0.45594000000E+02  0.51100000000E-03 0. -1.
    9900012    2    1    2    0    0 -0.12266175060E+02 -0.38133570396E+01  0.29184228672E+02  0.59301953746E+02  0.50000017724E+02 0.  0.
         12    1    1    2    0    0  0.12266175060E+02  0.38133570396E+01 -0.29184228672E+02  0.31886046254E+02  0.00000000000E+00 0. -1.
         11    1    3    3    0    0 -0.29355119699E+01  0.15784362888E+01 -0.70658040090E+01  0.78124438045E+01  0.51100000000E-03 0. -1.
        -11    1    3    3    0    0  0.38510317331E+01  0.19267212315E+01  0.36156641955E+02  0.36412160851E+02  0.51100000000E-03 0.  1.
        -12    1    3    3    0    0 -0.13181694823E+02 -0.73185145599E+01  0.93390725795E-01  0.15077349091E+02  0.00000000000E+00 0.  1.
</event>
<event>
 7    1  0.4237994E-013  0.5930195E+02  0.7816164E-02  0.1266605E+00
        -11   -1    0    0    0    0  0.00000000000E+00  0.00000000000E+00  0.45593999997E+02  0.45594000000E+02  0.51100000000E-03 0. -1.
         11   -1    0    0    0    0 -0.00000000000E+00 -0.00000000000E+00 -0.45593999997E+02  0.45594000000E+02  0.51100000000E-03 0.  1.
    9900012    2    1    2    0    0 -0.18671590198E+02  0.88972595810E+01  0.24267897978E+02  0.59301946923E+02  0.50000005280E+02 0.  0.
         12    1    1    2    0    0  0.18671590198E+02 -0.88972595810E+01 -0.24267897978E+02  0.31886053077E+02  0.00000000000E+00 0. -1.
         11    1    3    3    0    0  0.77087615721E+01  0.10098154617E+02  0.43887355085E+01  0.13440934911E+02  0.51100000000E-03 0. -1.
        -11    1    3    3    0    0 -0.28518662815E+02 -0.11325217937E+02  0.12411631860E+02  0.33100200842E+02  0.51100000000E-03 0.  1.
        -12    1    3    3    0    0  0.21383110452E+01  0.10124322901E+02  0.74675306090E+01  0.12760811170E+02  0.00000000000E+00 0.  1.
</event>
<event>
 7    1  0.4237994E-013  0.5930203E+02  0.7816164E-02  0.1266604E+00
        -11   -1    0    0    0    0  0.00000000000E+00  0.00000000000E+00  0.45593999997E+02  0.45594000000E+02  0.51100000000E-03 0. -1.
         11   -1    0    0    0    0 -0.00000000000E+00 -0.00000000000E+00 -0.45593999997E+02  0.45594000000E+02  0.51100000000E-03 0.  1.
    9900012    2    1    2    0    0  0.29644943887E+02 -0.11583800861E+02 -0.19255723671E+01  0.59302031779E+02  0.50000160037E+02 0.  0.
         12    1    1    2    0    0 -0.29644943887E+02  0.11583800861E+02  0.19255723671E+01  0.31885968221E+02  0.00000000000E+00 0. -1.
         11    1    3    3    0    0 -0.85804842102E+01  0.15562198854E+01 -0.79128802475E+01  0.11775406731E+02  0.51100000000E-03 0. -1.
        -11    1    3    3    0    0  0.21836212535E+02 -0.14609705199E+01 -0.76869156615E+01  0.23195760074E+02  0.51100000000E-03 0.  1.
        -12    1    3    3    0    0  0.16389215562E+02 -0.11679050227E+02  0.13674223542E+02  0.24330864974E+02  0.00000000000E+00 0.  1.
</event>
<event>
 7    1  0.4237994E-013  0.5930196E+02  0.7816164E-02  0.1266605E+00
        -11   -1    0    0    0    0  0.00000000000E+00  0.00000000000E+00  0.45593999997E+02  0.45594000000E+02  0.51100000000E-03 0.  1.
         11   -1    0    0    0    0 -0.00000000000E+00 -0.00000000000E+00 -0.45593999997E+02  0.45594000000E+02  0.51100000000E-03 0. -1.
    9900012    2    1    2    0    0 -0.23182552682E+02  0.63910717443E+01  0.20939025991E+02  0.59301962988E+02  0.50000034579E+02 0.  0.
         12    1    1    2    0    0  0.23182552682E+02 -0.63910717443E+01 -0.20939025991E+02  0.31886037012E+02  0.00000000000E+00 0. -1.
         11    1    3    3    0    0  0.74071748193E+01  0.13637290455E+02  0.25207813403E+01  0.15722476541E+02  0.51100000000E-03 0. -1.
        -11    1    3    3    0    0 -0.27344737515E+02  0.85613925236E+00  0.20987642490E+02  0.34481136607E+02  0.51100000000E-03 0.  1.
        -12    1    3    3    0    0 -0.32449899855E+01 -0.81023579626E+01 -0.25693978386E+01  0.90983498401E+01  0.00000000000E+00 0.  1.
</event>
<event>
 7    1  0.4237994E-013  0.5930200E+02  0.7816164E-02  0.1266605E+00
        -11   -1    0    0    0    0  0.00000000000E+00  0.00000000000E+00  0.45593999997E+02  0.45594000000E+02  0.51100000000E-03 0. -1.
         11   -1    0    0    0    0 -0.00000000000E+00 -0.00000000000E+00 -0.45593999997E+02  0.45594000000E+02  0.51100000000E-03 0.  1.
    9900012    2    1    2    0    0  0.24946974961E+02 -0.55235634839E+01 -0.19075000923E+02  0.59302000353E+02  0.50000102723E+02 0.  0.
         12    1    1    2    0    0 -0.24946974961E+02  0.55235634839E+01  0.19075000923E+02  0.31885999647E+02  0.00000000000E+00 0. -1.
         11    1    3    3    0    0  0.56736652714E+01 -0.24267260710E+02 -0.17892926613E+02  0.30679752982E+02  0.51100000000E-03 0. -1.
        -11    1    3    3    0    0  0.49200061353E+01  0.11496508223E+02 -0.78845465813E-01  0.12505294021E+02  0.51100000000E-03 0.  1.
         12    1    3    3    0    0  0.14353303555E+02  0.72471890034E+01 -0.11032288447E+01  0.16116953349E+02  0.00000000000E+00 0. -1.
</event>
<event>
 7    1  0.4237994E-013  0.5930193E+02  0.7816164E-02  0.1266605E+00
        -11   -1    0    0    0    0  0.00000000000E+00  0.00000000000E+00  0.45593999997E+02  0.45594000000E+02  0.51100000000E-03 0. -1.
         11   -1    0    0    0    0 -0.00000000000E+00 -0.00000000000E+00 -0.45593999997E+02  0.45594000000E+02  0.51100000000E-03 0.  1.
    9900012    2    1    2    0    0 -0.24119198088E+02 -0.87017828988E+01 -0.18954281994E+02  0.59301928622E+02  0.49999971904E+02 0.  0.
         12    1    1    2    0    0  0.24119198088E+02  0.87017828988E+01  0.18954281994E+02  0.31886071378E+02  0.00000000000E+00 0. -1.
         11    1    3    3    0    0 -0.15694091771E+02 -0.25843202465E+01  0.30704124676E+01  0.16199094439E+02  0.51100000000E-03 0. -1.
        -11    1    3    3    0    0 -0.10563848271E+02 -0.10663702881E+02 -0.30075371614E+02  0.33613054419E+02  0.51100000000E-03 0.  1.
        -12    1    3    3    0    0  0.21387419544E+01  0.45462402283E+01  0.80506771521E+01  0.94897797639E+01  0.00000000000E+00 0.  1.
</event>
<event>
 7    1  0.4237994E-013  0.5930196E+02  0.7816164E-02  0.1266605E+00
        -11   -1    0    0    0    0  0.00000000000E+00  0.00000000000E+00  0.45593999997E+02  0.45594000000E+02  0.51100000000E-03 0.  1.
         11   -1    0    0    0    0 -0.00000000000E+00 -0.00000000000E+00 -0.45593999997E+02  0.45594000000E+02  0.51100000000E-03 0. -1.
    9900012    2    1    2    0    0 -0.87704286130E+01  0.25364102712E+02  0.17218056817E+02  0.59301959089E+02  0.50000027468E+02 0.  0.
         12    1    1    2    0    0  0.87704286130E+01 -0.25364102712E+02 -0.17218056817E+02  0.31886040911E+02  0.00000000000E+00 0. -1.
         11    1    3    3    0    0 -0.10970391506E+02 -0.11838567004E+02  0.90936433430E+01  0.18525536646E+02  0.51100000000E-03 0. -1.
        -11    1    3    3    0    0  0.83766435168E+01  0.22394895694E+02  0.45698943759E+01  0.24343036882E+02  0.51100000000E-03 0.  1.
        -12    1    3    3    0    0 -0.61766806238E+01  0.14807774022E+02  0.35545190982E+01  0.16433385562E+02  0.00000000000E+00 0.  1.
</event>
<event>
 7    1  0.4237994E-013  0.5930193E+02  0.7816164E-02  0.1266605E+00
        -11   -1    0    0    0    0  0.00000000000E+00  0.00000000000E+00  0.45593999997E+02  0.45594000000E+02  0.51100000000E-03 0.  1.
         11   -1    0    0    0    0 -0.00000000000E+00 -0.00000000000E+00 -0.45593999997E+02  0.45594000000E+02  0.51100000000E-03 0. -1.
    9900012    2    1    2    0    0  0.26672951029E+02  0.28211468532E+01  0.17242863546E+02  0.59301928912E+02  0.49999972433E+02 0.  0.
         12    1    1    2    0    0 -0.26672951029E+02 -0.28211468532E+01 -0.17242863546E+02  0.31886071088E+02  0.00000000000E+00 0. -1.
         11    1    3    3    0    0  0.12836645419E+02 -0.54270476018E+00 -0.16339622424E+02  0.20785986994E+02  0.51100000000E-03 0. -1.
        -11    1    3    3    0    0  0.41957629831E+01 -0.38470877881E+01  0.53003198101E+01  0.77780397152E+01  0.51100000000E-03 0.  1.
         12    1    3    3    0    0  0.96405426267E+01  0.72109394015E+01  0.28282166159E+02  0.30737902203E+02  0.00000000000E+00 0. -1.
</event>
<event>
 7    1  0.4237994E-013  0.5930194E+02  0.7816164E-02  0.1266605E+00
        -11   -1    0    0    0    0  0.00000000000E+00  0.00000000000E+00  0.45593999997E+02  0.45594000000E+02  0.51100000000E-03 0.  1.
         11   -1    0    0    0    0 -0.00000000000E+00 -0.00000000000E+00 -0.45593999997E+02  0.45594000000E+02  0.51100000000E-03 0. -1.
    9900012    2    1    2    0    0  0.12624035841E+02  0.27868264791E+02  0.89841311820E+01  0.59301936015E+02  0.49999985387E+02 0.  0.
         12    1    1    2    0    0 -0.12624035841E+02 -0.27868264791E+02 -0.89841311820E+01  0.31886063985E+02  0.00000000000E+00 0. -1.
         11    1    3    3    0    0 -0.28600296383E+01  0.32912708718E+02  0.98288918926E-02  0.33036741085E+02  0.51100000000E-03 0. -1.
        -11    1    3    3    0    0  0.16996258736E+02  0.15406684105E+01  0.94215490904E+01  0.19493897961E+02  0.51100000000E-03 0.  1.
         12    1    3    3    0    0 -0.15121932573E+01 -0.65851123372E+01 -0.44724680026E+00  0.67712969689E+01  0.00000000000E+00 0. -1.
</event>
<event>
 7    1  0.4237994E-013  0.5930195E+02  0.7816164E-02  0.1266605E+00
        -11   -1    0    0    0    0  0.00000000000E+00  0.00000000000E+00  0.45593999997E+02  0.45594000000E+02  0.51100000000E-03 0.  1.
         11   -1    0    0    0    0 -0.00000000000E+00 -0.00000000000E+00 -0.45593999997E+02  0.45594000000E+02  0.51100000000E-03 0. -1.
    9900012    2    1    2    0    0 -0.61618213890E+01 -0.22499889878E+02  0.21737224360E+02  0.59301952735E+02  0.50000015879E+02 0.  0.
         12    1    1    2    0    0  0.61618213890E+01  0.22499889878E+02 -0.21737224360E+02  0.31886047265E+02  0.00000000000E+00 0. -1.
         11    1    3    3    0    0  0.10698977794E+02 -0.19464758293E+02  0.14524449440E+02  0.26538737216E+02  0.51100000000E-03 0. -1.
        -11    1    3    3    0    0 -0.71218110454E+01  0.79441945148E+01  0.13147994454E+02  0.16932223052E+02  0.51100000000E-03 0.  1.
        -12    1    3    3    0    0 -0.97389881380E+01 -0.10979326100E+02 -0.59352195339E+01  0.15830992467E+02  0.00000000000E+00 0.  1.
</event>
<event>
 7    1  0.4237994E-013  0.5930194E+02  0.7816164E-02  0.1266605E+00
        -11   -1    0    0    0    0  0.00000000000E+00  0.00000000000E+00  0.45593999997E+02  0.45594000000E+02  0.51100000000E-03 0. -1.
         11   -1    0    0    0    0 -0.00000000000E+00 -0.00000000000E+00 -0.45593999997E+02  0.45594000000E+02  0.51100000000E-03 0.  1.
    9900012    2    1    2    0    0 -0.24353560167E+02 -0.18572918764E+02  0.88696915490E+01  0.59301942978E+02  0.49999998086E+02 0.  0.
         12    1    1    2    0    0  0.24353560167E+02  0.18572918764E+02 -0.88696915490E+01  0.31886057022E+02  0.00000000000E+00 0. -1.
         11    1    3    3    0    0 -0.51783494240E+01 -0.27991016062E+02  0.18216288527E+02  0.33795642484E+02  0.51100000000E-03 0. -1.
        -11    1    3    3    0    0 -0.77905495480E+01  0.71043112327E+01 -0.90344362280E+01  0.13884701602E+02  0.51100000000E-03 0.  1.
         12    1    3    3    0    0 -0.11384661195E+02  0.23137860651E+01 -0.31216074955E+00  0.11621598892E+02  0.00000000000E+00 0. -1.
</event>
<event>
 7    1  0.4237994E-013  0.5930194E+02  0.7816164E-02  0.1266605E+00
        -11   -1    0    0    0    0  0.00000000000E+00  0.00000000000E+00  0.45593999997E+02  0.45594000000E+02  0.51100000000E-03 0. -1.
         11   -1    0    0    0    0 -0.00000000000E+00 -0.00000000000E+00 -0.45593999997E+02  0.45594000000E+02  0.51100000000E-03 0.  1.
    9900012    2    1    2    0    0 -0.11766902212E+02  0.64306605979E+01 -0.28929354747E+02  0.59301938006E+02  0.49999989018E+02 0.  0.
         12    1    1    2    0    0  0.11766902212E+02 -0.64306605979E+01  0.28929354747E+02  0.31886061994E+02  0.00000000000E+00 0. -1.
         11    1    3    3    0    0 -0.14902337169E+02  0.22868583326E+02 -0.65133125209E+01  0.28061984903E+02  0.51100000000E-03 0. -1.
        -11    1    3    3    0    0 -0.22700272712E+01 -0.46691649481E+00 -0.10093266868E+02  0.10355919619E+02  0.51100000000E-03 0.  1.
         12    1    3    3    0    0  0.54054622289E+01 -0.15971006233E+02 -0.12322775358E+02  0.20884033483E+02  0.00000000000E+00 0. -1.
</event>
<event>
 7    1  0.4237994E-013  0.5930186E+02  0.7816164E-02  0.1266605E+00
        -11   -1    0    0    0    0  0.00000000000E+00  0.00000000000E+00  0.45593999997E+02  0.45594000000E+02  0.51100000000E-03 0. -1.
         11   -1    0    0    0    0 -0.00000000000E+00 -0.00000000000E+00 -0.45593999997E+02  0.45594000000E+02  0.51100000000E-03 0.  1.
    9900012    2    1    2    0    0 -0.26402230571E+02  0.17677112830E+02  0.26772319438E+01  0.59301864016E+02  0.49999854077E+02 0.  0.
         12    1    1    2    0    0  0.26402230571E+02 -0.17677112830E+02 -0.26772319438E+01  0.31886135984E+02  0.00000000000E+00 0. -1.
         11    1    3    3    0    0  0.65097574421E+01  0.47253125487E+01  0.11478767962E+02  0.14016691294E+02  0.51100000000E-03 0. -1.
        -11    1    3    3    0    0 -0.36353287210E+02  0.15981146767E+02 -0.68276722196E+01  0.40293617995E+02  0.51100000000E-03 0.  1.
         12    1    3    3    0    0  0.34412991967E+01 -0.30293464857E+01 -0.19738637989E+01  0.49915547266E+01  0.00000000000E+00 0. -1.
</event>
<event>
 7    1  0.4237994E-013  0.5930196E+02  0.7816164E-02  0.1266605E+00
        -11   -1    0    0    0    0  0.00000000000E+00  0.00000000000E+00  0.45593999997E+02  0.45594000000E+02  0.51100000000E-03 0.  1.
         11   -1    0    0    0    0 -0.00000000000E+00 -0.00000000000E+00 -0.45593999997E+02  0.45594000000E+02  0.51100000000E-03 0. -1.
    9900012    2    1    2    0    0  0.19446000399E+02 -0.84076445568E+01  0.23830320423E+02  0.59301959325E+02  0.50000027898E+02 0.  0.
         12    1    1    2    0    0 -0.19446000399E+02  0.84076445568E+01 -0.23830320423E+02  0.31886040675E+02  0.00000000000E+00 0. -1.
         11    1    3    3    0    0  0.23098194984E+01  0.11487372537E+02 -0.65711534173E+01  0.13434100320E+02  0.51100000000E-03 0. -1.
        -11    1    3    3    0    0  0.17131834844E+02 -0.41181515829E+01  0.21339385172E+02  0.27673602899E+02  0.51100000000E-03 0.  1.
         12    1    3    3    0    0  0.43460559216E-02 -0.15776865511E+02  0.90620886676E+01  0.18194256106E+02  0.00000000000E+00 0. -1.
</event>
<event>
 7    1  0.4237994E-013  0.5930202E+02  0.7816164E-02  0.1266604E+00
        -11   -1    0    0    0    0  0.00000000000E+00  0.00000000000E+00  0.45593999997E+02  0.45594000000E+02  0.51100000000E-03 0.  1.
         11   -1    0    0    0    0 -0.00000000000E+00 -0.00000000000E+00 -0.45593999997E+02  0.45594000000E+02  0.51100000000E-03 0. -1.
    9900012    2    1    2    0    0 -0.17553214824E+02  0.13134797966E+02  0.23153345172E+02  0.59302020935E+02  0.50000140260E+02 0.  0.
         12    1    1    2    0    0  0.17553214824E+02 -0.13134797966E+02 -0.23153345172E+02  0.31885979065E+02  0.00000000000E+00 0. -1.
         11    1    3    3    0    0 -0.75404195088E+01  0.25877991645E+02  0.64069767729E+01  0.27705193188E+02  0.51100000000E-03 0. -1.
        -11    1    3    3    0    0 -0.16070230810E+02 -0.12092447175E+02  0.98479503444E+01  0.22393341046E+02  0.51100000000E-03 0.  1.
        -12    1    3    3    0    0  0.60574354943E+01 -0.65074650410E+00  0.68984180550E+01  0.92034867002E+01  0.00000000000E+00 0.  1.
</event>
<event>
 7    1  0.4237994E-013  0.5930194E+02  0.7816164E-02  0.1266605E+00
        -11   -1    0    0    0    0  0.00000000000E+00  0.00000000000E+00  0.45593999997E+02  0.45594000000E+02  0.51100000000E-03 0. -1.
         11   -1    0    0    0    0 -0.00000000000E+00 -0.00000000000E+00 -0.45593999997E+02  0.45594000000E+02  0.51100000000E-03 0.  1.
    9900012    2    1    2    0    0  0.18996682456E+02  0.10439809329E+02 -0.23384972628E+02  0.59301944929E+02  0.50000001644E+02 0.  0.
         12    1    1    2    0    0 -0.18996682456E+02 -0.10439809329E+02  0.23384972628E+02  0.31886055071E+02  0.00000000000E+00 0. -1.
         11    1    3    3    0    0 -0.10227516217E+02 -0.11680896457E+02 -0.88451316915E+01  0.17868457821E+02  0.51100000000E-03 0. -1.
        -11    1    3    3    0    0  0.58784999966E+01  0.10640141257E+02 -0.81785013424E+01  0.14651186050E+02  0.51100000000E-03 0.  1.
         12    1    3    3    0    0  0.23345698676E+02  0.11480564529E+02 -0.63613395939E+01  0.26782301059E+02  0.00000000000E+00 0. -1.
</event>
<event>
 7    1  0.4237994E-013  0.5930191E+02  0.7816164E-02  0.1266605E+00
        -11   -1    0    0    0    0  0.00000000000E+00  0.00000000000E+00  0.45593999997E+02  0.45594000000E+02  0.51100000000E-03 0. -1.
         11   -1    0    0    0    0 -0.00000000000E+00 -0.00000000000E+00 -0.45593999997E+02  0.45594000000E+02  0.51100000000E-03 0.  1.
    9900012    2    1    2    0    0 -0.18005113006E+01 -0.19444409212E+02 -0.25207064180E+02  0.59301906242E+02  0.49999931089E+02 0.  0.
         12    1    1    2    0    0  0.18005113006E+01  0.19444409212E+02  0.25207064180E+02  0.31886093758E+02  0.00000000000E+00 0. -1.
         11    1    3    3    0    0  0.18518594647E+02  0.18905135254E+01 -0.19629913504E+01  0.18718058777E+02  0.51100000000E-03 0. -1.
        -11    1    3    3    0    0 -0.16525895499E+02 -0.62002000717E+01 -0.11739522430E+02  0.21198209597E+02  0.51100000000E-03 0.  1.
        -12    1    3    3    0    0 -0.37932104482E+01 -0.15134722666E+02 -0.11504550399E+02  0.19385637869E+02  0.00000000000E+00 0.  1.
</event>
<event>
 7    1  0.4237994E-013  0.5930194E+02  0.7816164E-02  0.1266605E+00
        -11   -1    0    0    0    0  0.00000000000E+00  0.00000000000E+00  0.45593999997E+02  0.45594000000E+02  0.51100000000E-03 0.  1.
         11   -1    0    0    0    0 -0.00000000000E+00 -0.00000000000E+00 -0.45593999997E+02  0.45594000000E+02  0.51100000000E-03 0. -1.
    9900012    2    1    2    0    0  0.13709313650E+01 -0.17426502295E+02 -0.26667558026E+02  0.59301935863E+02  0.49999985110E+02 0.  0.
         12    1    1    2    0    0 -0.13709313650E+01  0.17426502295E+02  0.26667558026E+02  0.31886064137E+02  0.00000000000E+00 0. -1.
         11    1    3    3    0    0 -0.31369501984E+01 -0.18520462859E+02  0.54849121489E+01  0.19568655104E+02  0.51100000000E-03 0.  1.
        -11    1    3    3    0    0  0.76930764154E+01  0.10189357085E+02 -0.23675110944E+02  0.26898276916E+02  0.51100000000E-03 0. -1.
         12    1    3    3    0    0 -0.31851948520E+01 -0.90953965216E+01 -0.84773592307E+01  0.12835003843E+02  0.00000000000E+00 0. -1.
</event>
<event>
 7    1  0.4237994E-013  0.5930199E+02  0.7816164E-02  0.1266605E+00
        -11   -1    0    0    0    0  0.00000000000E+00  0.00000000000E+00  0.45593999997E+02  0.45594000000E+02  0.51100000000E-03 0.  1.
         11   -1    0    0    0    0 -0.00000000000E+00 -0.00000000000E+00 -0.45593999997E+02  0.45594000000E+02  0.51100000000E-03 0. -1.
    9900012    2    1    2    0    0 -0.11413931347E+02 -0.19089429000E+02  0.22848045924E+02  0.59301994749E+02  0.50000092503E+02 0.  0.
         12    1    1    2    0    0  0.11413931347E+02  0.19089429000E+02 -0.22848045924E+02  0.31886005251E+02  0.00000000000E+00 0. -1.
         11    1    3    3    0    0 -0.31175385637E+01 -0.67608789678E+01 -0.51626741945E+01  0.90598971414E+01  0.51100000000E-03 0. -1.
        -11    1    3    3    0    0 -0.21590647985E+02 -0.13072233632E+02  0.26890444147E+02  0.36880013005E+02  0.51100000000E-03 0.  1.
        -12    1    3    3    0    0  0.13294255202E+02  0.74368360040E+00  0.11202759716E+01  0.13362084602E+02  0.00000000000E+00 0.  1.
</event>
<event>
 7    1  0.4237994E-013  0.5930194E+02  0.7816164E-02  0.1266605E+00
        -11   -1    0    0    0    0  0.00000000000E+00  0.00000000000E+00  0.45593999997E+02  0.45594000000E+02  0.51100000000E-03 0.  1.
         11   -1    0    0    0    0 -0.00000000000E+00 -0.00000000000E+00 -0.45593999997E+02  0.45594000000E+02  0.51100000000E-03 0. -1.
    9900012    2    1    2    0    0  0.96091730302E+01  0.28944337320E+02  0.93064298354E+01  0.59301944968E+02  0.50000001715E+02 0.  0.
         12    1    1    2    0    0 -0.96091730302E+01 -0.28944337320E+02 -0.93064298354E+01  0.31886055032E+02  0.00000000000E+00 0. -1.
         11    1    3    3    0    0  0.16971582943E+02  0.14142523645E+01  0.60458629378E+01  0.18071723666E+02  0.51100000000E-03 0. -1.
        -11    1    3    3    0    0 -0.18979942641E+01  0.18105935356E+02 -0.12491167455E+02  0.22078418014E+02  0.51100000000E-03 0.  1.
        -12    1    3    3    0    0 -0.54644156488E+01  0.94241495999E+01  0.15751734353E+02  0.19151803288E+02  0.00000000000E+00 0.  1.
</event>
<event>
 7    1  0.4237994E-013  0.5930195E+02  0.7816164E-02  0.1266605E+00
        -11   -1    0    0    0    0  0.00000000000E+00  0.00000000000E+00  0.45593999997E+02  0.45594000000E+02  0.51100000000E-03 0.  1.
         11   -1    0    0    0    0 -0.00000000000E+00 -0.00000000000E+00 -0.45593999997E+02  0.45594000000E+02  0.51100000000E-03 0. -1.
    9900012    2    1    2    0    0  0.18962525420E+02  0.15303652525E+02  0.20565536820E+02  0.59301945750E+02  0.50000003142E+02 0.  0.
         12    1    1    2    0    0 -0.18962525420E+02 -0.15303652525E+02 -0.20565536820E+02  0.31886054250E+02  0.00000000000E+00 0. -1.
         11    1    3    3    0    0  0.20522280989E+02  0.10556439357E+02 -0.10232164866E+02  0.25244794058E+02  0.51100000000E-03 0. -1.
        -11    1    3    3    0    0 -0.75262096984E+01  0.38327309262E+01  0.19429752200E+02  0.21186055074E+02  0.51100000000E-03 0.  1.
        -12    1    3    3    0    0  0.59664541290E+01  0.91448224150E+00  0.11367949486E+02  0.12871096619E+02  0.00000000000E+00 0.  1.
</event>
<event>
 7    1  0.4237994E-013  0.5930194E+02  0.7816164E-02  0.1266605E+00
        -11   -1    0    0    0    0  0.00000000000E+00  0.00000000000E+00  0.45593999997E+02  0.45594000000E+02  0.51100000000E-03 0. -1.
         11   -1    0    0    0    0 -0.00000000000E+00 -0.00000000000E+00 -0.45593999997E+02  0.45594000000E+02  0.51100000000E-03 0.  1.
    9900012    2    1    2    0    0 -0.19976273884E+02  0.23074775574E+02 -0.92316882573E+01  0.59301939501E+02  0.49999991744E+02 0.  0.
         12    1    1    2    0    0  0.19976273884E+02 -0.23074775574E+02  0.92316882573E+01  0.31886060499E+02  0.00000000000E+00 0. -1.
         11    1    3    3    0    0 -0.53422785096E+01 -0.12000394780E+02  0.80053458640E+00  0.13160177447E+02  0.51100000000E-03 0. -1.
        -11    1    3    3    0    0 -0.20852459288E+02  0.28103949616E+02 -0.44958079701E+01  0.35282705848E+02  0.51100000000E-03 0.  1.
        -12    1    3    3    0    0  0.62184639132E+01  0.69712207386E+01 -0.55364148736E+01  0.10859056206E+02  0.00000000000E+00 0.  1.
</event>
<event>
 7    1  0.4237994E-013  0.5930194E+02  0.7816164E-02  0.1266605E+00
        -11   -1    0    0    0    0  0.00000000000E+00  0.00000000000E+00  0.45593999997E+02  0.45594000000E+02  0.51100000000E-03 0.  1.
         11   -1    0    0    0    0 -0.00000000000E+00 -0.00000000000E+00 -0.45593999997E+02  0.45594000000E+02  0.51100000000E-03 0. -1.
    9900012    2    1    2    0    0  0.88128354570E+01  0.12838884568E+02  0.27824775042E+02  0.59301935146E+02  0.49999983802E+02 0.  0.
         12    1    1    2    0    0 -0.88128354570E+01 -0.12838884568E+02 -0.27824775042E+02  0.31886064854E+02  0.00000000000E+00 0. -1.
         11    1    3    3    0    0 -0.34303061327E+00  0.13222395426E+01 -0.66688327501E+01  0.68072988711E+01  0.51100000000E-03 0. -1.
        -11    1    3    3    0    0  0.38190126690E+00  0.85360234368E+01  0.40539577214E+02  0.41430265092E+02  0.51100000000E-03 0.  1.
        -12    1    3    3    0    0  0.87739648033E+01  0.29806215885E+01 -0.60459694216E+01  0.11064371183E+02  0.00000000000E+00 0.  1.
</event>
<event>
 7    1  0.4237994E-013  0.5930211E+02  0.7816164E-02  0.1266604E+00
        -11   -1    0    0    0    0  0.00000000000E+00  0.00000000000E+00  0.45593999997E+02  0.45594000000E+02  0.51100000000E-03 0.  1.
         11   -1    0    0    0    0 -0.00000000000E+00 -0.00000000000E+00 -0.45593999997E+02  0.45594000000E+02  0.51100000000E-03 0. -1.
    9900012    2    1    2    0    0 -0.10979445337E+02 -0.29661953511E+02  0.40410889052E+01  0.59302108048E+02  0.50000299133E+02 0.  0.
         12    1    1    2    0    0  0.10979445337E+02  0.29661953511E+02 -0.40410889052E+01  0.31885891952E+02  0.00000000000E+00 0. -1.
         11    1    3    3    0    0 -0.11162349439E+02  0.82850583465E+01 -0.97272038844E+01  0.16966400103E+02  0.51100000000E-03 0. -1.
        -11    1    3    3    0    0 -0.36772834238E+01 -0.11729698227E+02  0.94075241329E+01  0.15479332816E+02  0.51100000000E-03 0.  1.
         12    1    3    3    0    0  0.38601875253E+01 -0.26217313631E+02  0.43607686567E+01  0.26856375129E+02  0.00000000000E+00 0. -1.
</event>
<event>
 7    1  0.4237994E-013  0.5930196E+02  0.7816164E-02  0.1266605E+00
        -11   -1    0    0    0    0  0.00000000000E+00  0.00000000000E+00  0.45593999997E+02  0.45594000000E+02  0.51100000000E-03 0.  1.
         11   -1    0    0    0    0 -0.00000000000E+00 -0.00000000000E+00 -0.45593999997E+02  0.45594000000E+02  0.51100000000E-03 0. -1.
    9900012    2    1    2    0    0 -0.23741691015E+02  0.10612502460E+02  0.18450641258E+02  0.59301964443E+02  0.50000037232E+02 0.  0.
         12    1    1    2    0    0  0.23741691015E+02 -0.10612502460E+02 -0.18450641258E+02  0.31886035557E+02  0.00000000000E+00 0. -1.
         11    1    3    3    0    0  0.10796508729E+02  0.13268942658E+02  0.64453368877E-01  0.17106536601E+02  0.51100000000E-03 0. -1.
        -11    1    3    3    0    0 -0.20261505714E+01 -0.17924930480E+01  0.73798132011E+01  0.78600229395E+01  0.51100000000E-03 0.  1.
         12    1    3    3    0    0 -0.32512049172E+02 -0.86394714942E+00  0.11006374688E+02  0.34335404902E+02  0.00000000000E+00 0. -1.
</event>
<event>
 7    1  0.4237994E-013  0.5930194E+02  0.7816164E-02  0.1266605E+00
        -11   -1    0    0    0    0  0.00000000000E+00  0.00000000000E+00  0.45593999997E+02  0.45594000000E+02  0.51100000000E-03 0.  1.
         11   -1    0    0    0    0 -0.00000000000E+00 -0.00000000000E+00 -0.45593999997E+02  0.45594000000E+02  0.51100000000E-03 0. -1.
    9900012    2    1    2    0    0 -0.22656852690E+02 -0.10756772629E+02  0.19689590648E+02  0.59301935471E+02  0.49999984395E+02 0.  0.
         12    1    1    2    0    0  0.22656852690E+02  0.10756772629E+02 -0.19689590648E+02  0.31886064529E+02  0.00000000000E+00 0. -1.
         11    1    3    3    0    0 -0.11805071022E+02 -0.12620144150E+02 -0.92962433756E+01  0.19622636963E+02  0.51100000000E-03 0. -1.
        -11    1    3    3    0    0 -0.15884824776E+02  0.88480198492E+01  0.16776766089E+02  0.24740149435E+02  0.51100000000E-03 0.  1.
        -12    1    3    3    0    0  0.50330431079E+01 -0.69846483282E+01  0.12209067935E+02  0.14939149073E+02  0.00000000000E+00 0.  1.
</event>
<event>
 7    1  0.4237994E-013  0.5930176E+02  0.7816164E-02  0.1266605E+00
        -11   -1    0    0    0    0  0.00000000000E+00  0.00000000000E+00  0.45593999997E+02  0.45594000000E+02  0.51100000000E-03 0.  1.
         11   -1    0    0    0    0 -0.00000000000E+00 -0.00000000000E+00 -0.45593999997E+02  0.45594000000E+02  0.51100000000E-03 0. -1.
    9900012    2    1    2    0    0  0.65846335646E-01 -0.10921311280E+02  0.29957518273E+02  0.59301760383E+02  0.49999665075E+02 0.  0.
         12    1    1    2    0    0 -0.65846335646E-01  0.10921311280E+02 -0.29957518273E+02  0.31886239617E+02  0.00000000000E+00 0. -1.
         11    1    3    3    0    0  0.15919111498E+02 -0.43985815629E+01 -0.20558850002E+01  0.16643085472E+02  0.51100000000E-03 0. -1.
        -11    1    3    3    0    0  0.35587400829E+01  0.17873625054E+01  0.15064385518E+02  0.15581880727E+02  0.51100000000E-03 0.  1.
        -12    1    3    3    0    0 -0.19412005245E+02 -0.83100922228E+01  0.16949017756E+02  0.27076794183E+02  0.00000000000E+00 0.  1.
</event>
<event>
 7    1  0.4237994E-013  0.5930203E+02  0.7816164E-02  0.1266604E+00
        -11   -1    0    0    0    0  0.00000000000E+00  0.00000000000E+00  0.45593999997E+02  0.45594000000E+02  0.51100000000E-03 0. -1.
         11   -1    0    0    0    0 -0.00000000000E+00 -0.00000000000E+00 -0.45593999997E+02  0.45594000000E+02  0.51100000000E-03 0.  1.
    9900012    2    1    2    0    0 -0.31709209207E+01 -0.30742296447E+02 -0.78467693898E+01  0.59302026278E+02  0.50000150005E+02 0.  0.
         12    1    1    2    0    0  0.31709209207E+01  0.30742296447E+02  0.78467693898E+01  0.31885973722E+02  0.00000000000E+00 0. -1.
         11    1    3    3    0    0 -0.29795732583E+01 -0.33528216960E+02  0.12862438311E+02  0.36034171406E+02  0.51100000000E-03 0. -1.
        -11    1    3    3    0    0 -0.51554760555E+01  0.22128937370E+01 -0.11025213793E+02  0.12370576846E+02  0.51100000000E-03 0.  1.
         12    1    3    3    0    0  0.49641283932E+01  0.57302677610E+00 -0.96839939074E+01  0.10897278027E+02  0.00000000000E+00 0. -1.
</event>
<event>
 7    1  0.4237994E-013  0.5930193E+02  0.7816164E-02  0.1266605E+00
        -11   -1    0    0    0    0  0.00000000000E+00  0.00000000000E+00  0.45593999997E+02  0.45594000000E+02  0.51100000000E-03 0.  1.
         11   -1    0    0    0    0 -0.00000000000E+00 -0.00000000000E+00 -0.45593999997E+02  0.45594000000E+02  0.51100000000E-03 0. -1.
    9900012    2    1    2    0    0  0.78634904145E+01  0.26762245841E+02  0.15448930018E+02  0.59301925882E+02  0.49999966907E+02 0.  0.
         12    1    1    2    0    0 -0.78634904145E+01 -0.26762245841E+02 -0.15448930018E+02  0.31886074118E+02  0.00000000000E+00 0. -1.
         11    1    3    3    0    0  0.99329922338E+01 -0.84554310383E+01  0.14723278848E+02  0.19670627572E+02  0.51100000000E-03 0. -1.
        -11    1    3    3    0    0  0.67506888870E+01  0.22084833311E+02  0.41023893702E+01  0.23455090313E+02  0.51100000000E-03 0.  1.
         12    1    3    3    0    0 -0.88201907064E+01  0.13132843568E+02 -0.33767382004E+01  0.16176207997E+02  0.00000000000E+00 0. -1.
</event>
<event>
 7    1  0.4237994E-013  0.5930193E+02  0.7816164E-02  0.1266605E+00
        -11   -1    0    0    0    0  0.00000000000E+00  0.00000000000E+00  0.45593999997E+02  0.45594000000E+02  0.51100000000E-03 0.  1.
         11   -1    0    0    0    0 -0.00000000000E+00 -0.00000000000E+00 -0.45593999997E+02  0.45594000000E+02  0.51100000000E-03 0. -1.
    9900012    2    1    2    0    0  0.31742541620E+02  0.22365476173E+01  0.20322907882E+01  0.59301932516E+02  0.49999979005E+02 0.  0.
         12    1    1    2    0    0 -0.31742541620E+02 -0.22365476173E+01 -0.20322907882E+01  0.31886067484E+02  0.00000000000E+00 0. -1.
         11    1    3    3    0    0 -0.56414396614E+01 -0.33503606833E+00 -0.28455005273E+00  0.56585386465E+01  0.51100000000E-03 0. -1.
        -11    1    3    3    0    0  0.30521949202E+02  0.63286889294E+01  0.18087553662E+02  0.36038885726E+02  0.51100000000E-03 0.  1.
        -12    1    3    3    0    0  0.68620320794E+01 -0.37571052438E+01 -0.15770712821E+02  0.17604508143E+02  0.00000000000E+00 0.  1.
</event>
<event>
 7    1  0.4237994E-013  0.5930195E+02  0.7816164E-02  0.1266605E+00
        -11   -1    0    0    0    0  0.00000000000E+00  0.00000000000E+00  0.45593999997E+02  0.45594000000E+02  0.51100000000E-03 0.  1.
         11   -1    0    0    0    0 -0.00000000000E+00 -0.00000000000E+00 -0.45593999997E+02  0.45594000000E+02  0.51100000000E-03 0. -1.
    9900012    2    1    2    0    0 -0.21830554141E+02  0.31143018609E-01  0.23241044944E+02  0.59301949224E+02  0.50000009477E+02 0.  0.
         12    1    1    2    0    0  0.21830554141E+02 -0.31143018609E-01 -0.23241044944E+02  0.31886050776E+02  0.00000000000E+00 0. -1.
         11    1    3    3    0    0 -0.60638126666E+01 -0.16292245868E+02 -0.46122305788E+00  0.17390222151E+02  0.51100000000E-03 0. -1.
        -11    1    3    3    0    0  0.51229519873E+01  0.11997572274E+02  0.11140652783E+02  0.17155189367E+02  0.51100000000E-03 0.  1.
        -12    1    3    3    0    0 -0.20889693462E+02  0.43258166130E+01  0.12561615219E+02  0.24756537706E+02  0.00000000000E+00 0.  1.
</event>
<event>
 7    1  0.4237994E-013  0.5930194E+02  0.7816164E-02  0.1266605E+00
        -11   -1    0    0    0    0  0.00000000000E+00  0.00000000000E+00  0.45593999997E+02  0.45594000000E+02  0.51100000000E-03 0.  1.
         11   -1    0    0    0    0 -0.00000000000E+00 -0.00000000000E+00 -0.45593999997E+02  0.45594000000E+02  0.51100000000E-03 0. -1.
    9900012    2    1    2    0    0 -0.29808073050E+02  0.10787923257E+02 -0.34380229044E+01  0.59301944919E+02  0.50000001626E+02 0.  0.
         12    1    1    2    0    0  0.29808073050E+02 -0.10787923257E+02  0.34380229044E+01  0.31886055081E+02  0.00000000000E+00 0. -1.
         11    1    3    3    0    0 -0.40282151608E+01 -0.79454443367E+01 -0.16496262966E+02  0.18747887753E+02  0.51100000000E-03 0. -1.
        -11    1    3    3    0    0 -0.11741436915E+02 -0.65116167491E+00  0.11689387016E+02  0.16580926435E+02  0.51100000000E-03 0.  1.
         12    1    3    3    0    0 -0.14038420974E+02  0.19384529268E+02  0.13688530458E+01  0.23973130731E+02  0.00000000000E+00 0. -1.
</event>
<event>
 7    1  0.4237994E-013  0.5930197E+02  0.7816164E-02  0.1266605E+00
        -11   -1    0    0    0    0  0.00000000000E+00  0.00000000000E+00  0.45593999997E+02  0.45594000000E+02  0.51100000000E-03 0. -1.
         11   -1    0    0    0    0 -0.00000000000E+00 -0.00000000000E+00 -0.45593999997E+02  0.45594000000E+02  0.51100000000E-03 0.  1.
    9900012    2    1    2    0    0  0.71027635687E+01 -0.21935778224E+02 -0.22024781732E+02  0.59301974426E+02  0.50000055438E+02 0.  0.
         12    1    1    2    0    0 -0.71027635687E+01  0.21935778224E+02  0.22024781732E+02  0.31886025574E+02  0.00000000000E+00 0. -1.
         11    1    3    3    0    0 -0.84933084914E+01  0.11413883157E+02  0.93710941210E+00  0.14258022029E+02  0.51100000000E-03 0. -1.
        -11    1    3    3    0    0  0.11089726085E+02 -0.31338222909E+02 -0.22381857123E+02  0.40075101600E+02  0.51100000000E-03 0.  1.
         12    1    3    3    0    0  0.45063459752E+01 -0.20114384714E+01 -0.58003402120E+00  0.49688507966E+01  0.00000000000E+00 0. -1.
</event>
<event>
 7    1  0.4237994E-013  0.5930196E+02  0.7816164E-02  0.1266605E+00
        -11   -1    0    0    0    0  0.00000000000E+00  0.00000000000E+00  0.45593999997E+02  0.45594000000E+02  0.51100000000E-03 0. -1.
         11   -1    0    0    0    0 -0.00000000000E+00 -0.00000000000E+00 -0.45593999997E+02  0.45594000000E+02  0.51100000000E-03 0.  1.
    9900012    2    1    2    0    0  0.26201475401E+02  0.15067257355E+02 -0.10157757251E+02  0.59301959328E+02  0.50000027904E+02 0.  0.
         12    1    1    2    0    0 -0.26201475401E+02 -0.15067257355E+02  0.10157757251E+02  0.31886040672E+02  0.00000000000E+00 0. -1.
         11    1    3    3    0    0 -0.13605254310E+00 -0.14432140942E+02  0.15075063129E+01  0.14511298288E+02  0.51100000000E-03 0. -1.
        -11    1    3    3    0    0  0.24177727785E+02  0.14727959786E+02 -0.79949579408E+01  0.29417591218E+02  0.51100000000E-03 0.  1.
         12    1    3    3    0    0  0.21598001583E+01  0.14771438511E+02 -0.36703056232E+01  0.15373069822E+02  0.00000000000E+00 0. -1.
</event>
<event>
 7    1  0.4237994E-013  0.5930194E+02  0.7816164E-02  0.1266605E+00
        -11   -1    0    0    0    0  0.00000000000E+00  0.00000000000E+00  0.45593999997E+02  0.45594000000E+02  0.51100000000E-03 0.  1.
         11   -1    0    0    0    0 -0.00000000000E+00 -0.00000000000E+00 -0.45593999997E+02  0.45594000000E+02  0.51100000000E-03 0. -1.
    9900012    2    1    2    0    0 -0.16847521872E+02 -0.14500770461E+02  0.22860656665E+02  0.59301937836E+02  0.49999988707E+02 0.  0.
         12    1    1    2    0    0  0.16847521872E+02  0.14500770461E+02 -0.22860656665E+02  0.31886062164E+02  0.00000000000E+00 0. -1.
         11    1    3    3    0    0 -0.18348962841E+02 -0.13386303716E+02 -0.10455105182E+02  0.25003735504E+02  0.51100000000E-03 0. -1.
        -11    1    3    3    0    0  0.78187317570E+00 -0.15621341318E+01  0.33400835454E+02  0.33446485585E+02  0.51100000000E-03 0.  1.
        -12    1    3    3    0    0  0.71956779304E+00  0.44766738661E+00 -0.85073607269E-01  0.85171674662E+00  0.00000000000E+00 0.  1.
</event>
<event>
 7    1  0.4237994E-013  0.5930198E+02  0.7816164E-02  0.1266605E+00
        -11   -1    0    0    0    0  0.00000000000E+00  0.00000000000E+00  0.45593999997E+02  0.45594000000E+02  0.51100000000E-03 0. -1.
         11   -1    0    0    0    0 -0.00000000000E+00 -0.00000000000E+00 -0.45593999997E+02  0.45594000000E+02  0.51100000000E-03 0.  1.
    9900012    2    1    2    0    0 -0.28789341927E+02  0.13706040180E+02 -0.19063849931E+00  0.59301982860E+02  0.50000070820E+02 0.  0.
         12    1    1    2    0    0  0.28789341927E+02 -0.13706040180E+02  0.19063849931E+00  0.31886017140E+02  0.00000000000E+00 0. -1.
         11    1    3    3    0    0 -0.37514392901E+01 -0.10725470109E+02  0.79029352120E+01  0.13840714975E+02  0.51100000000E-03 0. -1.
        -11    1    3    3    0    0 -0.17326098707E+01  0.20149291991E+02  0.57003301410E+00  0.20231679184E+02  0.51100000000E-03 0.  1.
         12    1    3    3    0    0 -0.23305292767E+02  0.42822182982E+01 -0.86636067254E+01  0.25229588700E+02  0.00000000000E+00 0. -1.
</event>
<event>
 7    1  0.4237994E-013  0.5930195E+02  0.7816164E-02  0.1266605E+00
        -11   -1    0    0    0    0  0.00000000000E+00  0.00000000000E+00  0.45593999997E+02  0.45594000000E+02  0.51100000000E-03 0. -1.
         11   -1    0    0    0    0 -0.00000000000E+00 -0.00000000000E+00 -0.45593999997E+02  0.45594000000E+02  0.51100000000E-03 0.  1.
    9900012    2    1    2    0    0 -0.94402846856E+01  0.12753602577E+02 -0.27657673504E+02  0.59301948860E+02  0.50000008812E+02 0.  0.
         12    1    1    2    0    0  0.94402846856E+01 -0.12753602577E+02  0.27657673504E+02  0.31886051140E+02  0.00000000000E+00 0. -1.
         11    1    3    3    0    0 -0.24836198170E+02 -0.64991883354E+01 -0.22006736783E+02  0.33813793822E+02  0.51100000000E-03 0. -1.
        -11    1    3    3    0    0  0.57716504769E+01  0.81404691456E+01 -0.81361579383E+00  0.10012050642E+02  0.51100000000E-03 0.  1.
         12    1    3    3    0    0  0.96242630075E+01  0.11112321767E+02 -0.48373209275E+01  0.15476104395E+02  0.00000000000E+00 0. -1.
</event>
<event>
 7    1  0.4237994E-013  0.5930195E+02  0.7816164E-02  0.1266605E+00
        -11   -1    0    0    0    0  0.00000000000E+00  0.00000000000E+00  0.45593999997E+02  0.45594000000E+02  0.51100000000E-03 0. -1.
         11   -1    0    0    0    0 -0.00000000000E+00 -0.00000000000E+00 -0.45593999997E+02  0.45594000000E+02  0.51100000000E-03 0.  1.
    9900012    2    1    2    0    0  0.12275745216E+02  0.97018939380E+01 -0.27783080673E+02  0.59301949159E+02  0.50000009357E+02 0.  0.
         12    1    1    2    0    0 -0.12275745216E+02 -0.97018939380E+01  0.27783080673E+02  0.31886050841E+02  0.00000000000E+00 0. -1.
         11    1    3    3    0    0 -0.36727300282E+01  0.11528031662E+01  0.67910323276E+01  0.78061527871E+01  0.51100000000E-03 0. -1.
        -11    1    3    3    0    0  0.13952733131E+02  0.77787219576E+01 -0.41382754766E+02  0.44358986343E+02  0.51100000000E-03 0.  1.
        -12    1    3    3    0    0  0.19957421139E+01  0.77036881424E+00  0.68086417655E+01  0.71368100287E+01  0.00000000000E+00 0.  1.
</event>
<event>
 7    1  0.4237994E-013  0.5930193E+02  0.7816164E-02  0.1266605E+00
        -11   -1    0    0    0    0  0.00000000000E+00  0.00000000000E+00  0.45593999997E+02  0.45594000000E+02  0.51100000000E-03 0.  1.
         11   -1    0    0    0    0 -0.00000000000E+00 -0.00000000000E+00 -0.45593999997E+02  0.45594000000E+02  0.51100000000E-03 0. -1.
    9900012    2    1    2    0    0 -0.10323025895E+01  0.17845390357E+02  0.26404505604E+02  0.59301929032E+02  0.49999972651E+02 0.  0.
         12    1    1    2    0    0  0.10323025895E+01 -0.17845390357E+02 -0.26404505604E+02  0.31886070968E+02  0.00000000000E+00 0. -1.
         11    1    3    3    0    0  0.31642088287E+01  0.24156707846E+02  0.12434482528E+02  0.27352789756E+02  0.51100000000E-03 0. -1.
        -11    1    3    3    0    0 -0.75416925488E+01 -0.10942851676E+02 -0.33545745914E+01  0.13706797593E+02  0.51100000000E-03 0.  1.
        -12    1    3    3    0    0  0.33451811306E+01  0.46315341871E+01  0.17324597667E+02  0.18242341682E+02  0.00000000000E+00 0.  1.
</event>
<event>
 7    1  0.4237994E-013  0.5930195E+02  0.7816164E-02  0.1266605E+00
        -11   -1    0    0    0    0  0.00000000000E+00  0.00000000000E+00  0.45593999997E+02  0.45594000000E+02  0.51100000000E-03 0. -1.
         11   -1    0    0    0    0 -0.00000000000E+00 -0.00000000000E+00 -0.45593999997E+02  0.45594000000E+02  0.51100000000E-03 0.  1.
    9900012    2    1    2    0    0 -0.88138874728E+00  0.27540075480E+02  0.16046421090E+02  0.59301949235E+02  0.50000009496E+02 0.  0.
         12    1    1    2    0    0  0.88138874728E+00 -0.27540075480E+02 -0.16046421090E+02  0.31886050765E+02  0.00000000000E+00 0. -1.
         11    1    3    3    0    0  0.15743413266E+02  0.60155156386E+01  0.17112943245E+02  0.24018624366E+02  0.51100000000E-03 0. -1.
        -11    1    3    3    0    0 -0.10987327762E+02  0.23420005244E+02  0.54749349061E+01  0.26442256513E+02  0.51100000000E-03 0.  1.
         12    1    3    3    0    0 -0.56374742511E+01 -0.18954454026E+01 -0.65414570607E+01  0.88410683565E+01  0.00000000000E+00 0. -1.
</event>
<event>
 7    1  0.4237994E-013  0.5930194E+02  0.7816164E-02  0.1266605E+00
        -11   -1    0    0    0    0  0.00000000000E+00  0.00000000000E+00  0.45593999997E+02  0.45594000000E+02  0.51100000000E-03 0. -1.
         11   -1    0    0    0    0 -0.00000000000E+00 -0.00000000000E+00 -0.45593999997E+02  0.45594000000E+02  0.51100000000E-03 0.  1.
    9900012    2    1    2    0    0 -0.25814601272E+01 -0.19428593487E+02 -0.25151280437E+02  0.59301935820E+02  0.49999985031E+02 0.  0.
         12    1    1    2    0    0  0.25814601272E+01  0.19428593487E+02  0.25151280437E+02  0.31886064180E+02  0.00000000000E+00 0. -1.
         11    1    3    3    0    0  0.61716833090E+01 -0.31547872235E+01 -0.25593479405E+02  0.26515439759E+02  0.51100000000E-03 0. -1.
        -11    1    3    3    0    0 -0.12456063872E+02 -0.19863648283E+02  0.69765844797E+01  0.24462027340E+02  0.51100000000E-03 0.  1.
        -12    1    3    3    0    0  0.37029204361E+01  0.35898420194E+01 -0.65343855110E+01  0.83244687210E+01  0.00000000000E+00 0.  1.
</event>
<event>
 7    1  0.4237994E-013  0.5930195E+02  0.7816164E-02  0.1266605E+00
        -11   -1    0    0    0    0  0.00000000000E+00  0.00000000000E+00  0.45593999997E+02  0.45594000000E+02  0.51100000000E-03 0.  1.
         11   -1    0    0    0    0 -0.00000000000E+00 -0.00000000000E+00 -0.45593999997E+02  0.45594000000E+02  0.51100000000E-03 0. -1.
    9900012    2    1    2    0    0 -0.29606538945E+02  0.10428590519E+02  0.56051102340E+01  0.59301954317E+02  0.50000018766E+02 0.  0.
         12    1    1    2    0    0  0.29606538945E+02 -0.10428590519E+02 -0.56051102340E+01  0.31886045683E+02  0.00000000000E+00 0. -1.
         11    1    3    3    0    0 -0.76957776743E+01  0.14669980804E+02 -0.17208837614E+02  0.23886762507E+02  0.51100000000E-03 0. -1.
        -11    1    3    3    0    0  0.91298819121E+00  0.23829048238E+00  0.75183583423E+01  0.75773374094E+01  0.51100000000E-03 0.  1.
         12    1    3    3    0    0 -0.22823749462E+02 -0.44796807671E+01  0.15295589506E+02  0.27837854401E+02  0.00000000000E+00 0. -1.
</event>
<event>
 7    1  0.4237994E-013  0.5930195E+02  0.7816164E-02  0.1266605E+00
        -11   -1    0    0    0    0  0.00000000000E+00  0.00000000000E+00  0.45593999997E+02  0.45594000000E+02  0.51100000000E-03 0. -1.
         11   -1    0    0    0    0 -0.00000000000E+00 -0.00000000000E+00 -0.45593999997E+02  0.45594000000E+02  0.51100000000E-03 0.  1.
    9900012    2    1    2    0    0  0.10119276185E+02  0.27125083956E+02 -0.13362263618E+02  0.59301952595E+02  0.50000015624E+02 0.  0.
         12    1    1    2    0    0 -0.10119276185E+02 -0.27125083956E+02  0.13362263618E+02  0.31886047405E+02  0.00000000000E+00 0. -1.
         11    1    3    3    0    0  0.19269987261E+02  0.29134926860E+02  0.90289743396E+00  0.34942690169E+02  0.51100000000E-03 0. -1.
        -11    1    3    3    0    0 -0.10160444320E+02 -0.82520243167E+01 -0.74438503552E+01  0.15057936196E+02  0.51100000000E-03 0.  1.
        -12    1    3    3    0    0  0.10097332436E+01  0.62421814126E+01 -0.68213106972E+01  0.93013262301E+01  0.00000000000E+00 0.  1.
</event>
<event>
 7    1  0.4237994E-013  0.5930195E+02  0.7816164E-02  0.1266605E+00
        -11   -1    0    0    0    0  0.00000000000E+00  0.00000000000E+00  0.45593999997E+02  0.45594000000E+02  0.51100000000E-03 0. -1.
         11   -1    0    0    0    0 -0.00000000000E+00 -0.00000000000E+00 -0.45593999997E+02  0.45594000000E+02  0.51100000000E-03 0.  1.
    9900012    2    1    2    0    0 -0.17536473370E+02 -0.24980687891E+01 -0.26513239049E+02  0.59301951471E+02  0.50000013575E+02 0.  0.
         12    1    1    2    0    0  0.17536473370E+02  0.24980687891E+01  0.26513239049E+02  0.31886048529E+02  0.00000000000E+00 0. -1.
         11    1    3    3    0    0 -0.39080196987E+01  0.34325670396E-01  0.39239174900E+01  0.55381337060E+01  0.51100000000E-03 0. -1.
        -11    1    3    3    0    0 -0.27687509257E+02  0.44967767722E+01 -0.23455341948E+02  0.36564630949E+02  0.51100000000E-03 0.  1.
        -12    1    3    3    0    0  0.14059055586E+02 -0.70291712317E+01 -0.69818145902E+01  0.17199186817E+02  0.00000000000E+00 0.  1.
</event>
<event>
 7    1  0.4237994E-013  0.5930193E+02  0.7816164E-02  0.1266605E+00
        -11   -1    0    0    0    0  0.00000000000E+00  0.00000000000E+00  0.45593999997E+02  0.45594000000E+02  0.51100000000E-03 0.  1.
         11   -1    0    0    0    0 -0.00000000000E+00 -0.00000000000E+00 -0.45593999997E+02  0.45594000000E+02  0.51100000000E-03 0. -1.
    9900012    2    1    2    0    0 -0.81230792393E+01 -0.11555902442E+02  0.28586676979E+02  0.59301930968E+02  0.49999976182E+02 0.  0.
         12    1    1    2    0    0  0.81230792393E+01  0.11555902442E+02 -0.28586676979E+02  0.31886069032E+02  0.00000000000E+00 0. -1.
         11    1    3    3    0    0  0.16057141035E+02  0.47366534705E+00  0.25440773879E+01  0.16264331129E+02  0.51100000000E-03 0. -1.
        -11    1    3    3    0    0 -0.19015756456E+02 -0.35170060275E+01  0.53350291086E+01  0.20060679471E+02  0.51100000000E-03 0.  1.
        -12    1    3    3    0    0 -0.51644638178E+01 -0.85125617619E+01  0.20707570483E+02  0.22976920368E+02  0.00000000000E+00 0.  1.
</event>
<event>
 7    1  0.4237994E-013  0.5930193E+02  0.7816164E-02  0.1266605E+00
        -11   -1    0    0    0    0  0.00000000000E+00  0.00000000000E+00  0.45593999997E+02  0.45594000000E+02  0.51100000000E-03 0.  1.
         11   -1    0    0    0    0 -0.00000000000E+00 -0.00000000000E+00 -0.45593999997E+02  0.45594000000E+02  0.51100000000E-03 0. -1.
    9900012    2    1    2    0    0 -0.60075225338E+01  0.27202029780E+02 -0.15513893267E+02  0.59301927250E+02  0.49999969402E+02 0.  0.
         12    1    1    2    0    0  0.60075225338E+01 -0.27202029780E+02  0.15513893267E+02  0.31886072750E+02  0.00000000000E+00 0. -1.
         11    1    3    3    0    0 -0.22211508006E+01 -0.74506941242E+01  0.10884650014E+02  0.13376171350E+02  0.51100000000E-03 0.  1.
        -11    1    3    3    0    0  0.35779151012E+01  0.17458746684E+02 -0.18297024119E+02  0.25541934228E+02  0.51100000000E-03 0. -1.
        -12    1    3    3    0    0 -0.73642868344E+01  0.17193977220E+02 -0.81015191621E+01  0.20383821672E+02  0.00000000000E+00 0.  1.
</event>
<event>
 7    1  0.4237994E-013  0.5930185E+02  0.7816164E-02  0.1266605E+00
        -11   -1    0    0    0    0  0.00000000000E+00  0.00000000000E+00  0.45593999997E+02  0.45594000000E+02  0.51100000000E-03 0. -1.
         11   -1    0    0    0    0 -0.00000000000E+00 -0.00000000000E+00 -0.45593999997E+02  0.45594000000E+02  0.51100000000E-03 0.  1.
    9900012    2    1    2    0    0 -0.97057262930E+00 -0.19771591581E+02 -0.24997367872E+02  0.59301854961E+02  0.49999837564E+02 0.  0.
         12    1    1    2    0    0  0.97057262930E+00  0.19771591581E+02  0.24997367872E+02  0.31886145039E+02  0.00000000000E+00 0. -1.
         11    1    3    3    0    0 -0.13935765868E+02 -0.14736187694E+02 -0.56759685493E+01  0.21061277676E+02  0.51100000000E-03 0. -1.
        -11    1    3    3    0    0  0.15956372580E+02 -0.14410093940E+02 -0.73008614930E+01  0.22705929007E+02  0.51100000000E-03 0.  1.
        -12    1    3    3    0    0 -0.29911793415E+01  0.93746900527E+01 -0.12020537830E+02  0.15534648279E+02  0.00000000000E+00 0.  1.
</event>
<event>
 7    1  0.4237994E-013  0.5930201E+02  0.7816164E-02  0.1266605E+00
        -11   -1    0    0    0    0  0.00000000000E+00  0.00000000000E+00  0.45593999997E+02  0.45594000000E+02  0.51100000000E-03 0.  1.
         11   -1    0    0    0    0 -0.00000000000E+00 -0.00000000000E+00 -0.45593999997E+02  0.45594000000E+02  0.51100000000E-03 0. -1.
    9900012    2    1    2    0    0 -0.25218738525E+02  0.19148742907E+02  0.37493060618E+01  0.59302008975E+02  0.50000118448E+02 0.  0.
         12    1    1    2    0    0  0.25218738525E+02 -0.19148742907E+02 -0.37493060618E+01  0.31885991025E+02  0.00000000000E+00 0. -1.
         11    1    3    3    0    0 -0.32855494795E+02  0.12648627112E+02  0.11850490200E+02  0.37147078274E+02  0.51100000000E-03 0.  1.
        -11    1    3    3    0    0  0.48710904031E+01  0.96789948502E+01 -0.12171900329E+02  0.16296184244E+02  0.51100000000E-03 0. -1.
        -12    1    3    3    0    0  0.27656658671E+01 -0.31788790555E+01  0.40707161915E+01  0.58587464572E+01  0.00000000000E+00 0.  1.
</event>
<event>
 7    1  0.4237994E-013  0.5930194E+02  0.7816164E-02  0.1266605E+00
        -11   -1    0    0    0    0  0.00000000000E+00  0.00000000000E+00  0.45593999997E+02  0.45594000000E+02  0.51100000000E-03 0. -1.
         11   -1    0    0    0    0 -0.00000000000E+00 -0.00000000000E+00 -0.45593999997E+02  0.45594000000E+02  0.51100000000E-03 0.  1.
    9900012    2    1    2    0    0 -0.20888883519E+02 -0.17710766886E+02 -0.16331086907E+02  0.59301935365E+02  0.49999984201E+02 0.  0.
         12    1    1    2    0    0  0.20888883519E+02  0.17710766886E+02  0.16331086907E+02  0.31886064635E+02  0.00000000000E+00 0. -1.
         11    1    3    3    0    0 -0.19364472842E+01  0.14802795453E+02  0.99323233758E+00  0.14961921403E+02  0.51100000000E-03 0. -1.
        -11    1    3    3    0    0  0.11260292465E+01 -0.12144109160E+02 -0.45865753477E+01  0.13030119065E+02  0.51100000000E-03 0.  1.
         12    1    3    3    0    0 -0.20078465481E+02 -0.20369453179E+02 -0.12737743897E+02  0.31309894897E+02  0.00000000000E+00 0. -1.
</event>
<event>
 7    1  0.4237994E-013  0.5930204E+02  0.7816164E-02  0.1266604E+00
        -11   -1    0    0    0    0  0.00000000000E+00  0.00000000000E+00  0.45593999997E+02  0.45594000000E+02  0.51100000000E-03 0. -1.
         11   -1    0    0    0    0 -0.00000000000E+00 -0.00000000000E+00 -0.45593999997E+02  0.45594000000E+02  0.51100000000E-03 0.  1.
    9900012    2    1    2    0    0 -0.29624269409E+02  0.11017056009E+02  0.42121110286E+01  0.59302035369E+02  0.50000166585E+02 0.  0.
         12    1    1    2    0    0  0.29624269409E+02 -0.11017056009E+02 -0.42121110286E+01  0.31885964631E+02  0.00000000000E+00 0. -1.
         11    1    3    3    0    0  0.25033590484E+00 -0.14600911214E+02 -0.36787951705E+01  0.15059309762E+02  0.51100000000E-03 0. -1.
        -11    1    3    3    0    0 -0.28034095722E+02  0.13740962609E+02  0.79774052772E+01  0.32223649260E+02  0.51100000000E-03 0.  1.
        -12    1    3    3    0    0 -0.18405095915E+01  0.11877004614E+02 -0.86499078153E-01  0.12019076347E+02  0.00000000000E+00 0.  1.
</event>
<event>
 7    1  0.4237994E-013  0.5930194E+02  0.7816164E-02  0.1266605E+00
        -11   -1    0    0    0    0  0.00000000000E+00  0.00000000000E+00  0.45593999997E+02  0.45594000000E+02  0.51100000000E-03 0. -1.
         11   -1    0    0    0    0 -0.00000000000E+00 -0.00000000000E+00 -0.45593999997E+02  0.45594000000E+02  0.51100000000E-03 0.  1.
    9900012    2    1    2    0    0 -0.62838989073E+01  0.11599317743E+02 -0.29029106289E+02  0.59301943964E+02  0.49999999884E+02 0.  0.
         12    1    1    2    0    0  0.62838989073E+01 -0.11599317743E+02  0.29029106289E+02  0.31886056036E+02  0.00000000000E+00 0. -1.
         11    1    3    3    0    0 -0.65250795598E+01  0.71358337903E+01  0.12129102159E+02  0.15511670013E+02  0.51100000000E-03 0. -1.
        -11    1    3    3    0    0 -0.51618687918E+01 -0.11461236356E+01 -0.28040004237E+02  0.28534195743E+02  0.51100000000E-03 0.  1.
         12    1    3    3    0    0  0.54030494442E+01  0.56096075885E+01 -0.13118204211E+02  0.15256078209E+02  0.00000000000E+00 0. -1.
</event>
<event>
 7    1  0.4237994E-013  0.5930193E+02  0.7816164E-02  0.1266605E+00
        -11   -1    0    0    0    0  0.00000000000E+00  0.00000000000E+00  0.45593999997E+02  0.45594000000E+02  0.51100000000E-03 0. -1.
         11   -1    0    0    0    0 -0.00000000000E+00 -0.00000000000E+00 -0.45593999997E+02  0.45594000000E+02  0.51100000000E-03 0.  1.
    9900012    2    1    2    0    0 -0.30994846792E+02 -0.17762618559E+00 -0.74839381045E+01  0.59301930812E+02  0.49999975897E+02 0.  0.
         12    1    1    2    0    0  0.30994846792E+02  0.17762618559E+00  0.74839381045E+01  0.31886069188E+02  0.00000000000E+00 0. -1.
         11    1    3    3    0    0 -0.77892930246E+01 -0.23553561382E+02  0.15695329747E+00  0.24808627012E+02  0.51100000000E-03 0. -1.
        -11    1    3    3    0    0 -0.66578123462E+01  0.11231538601E+02 -0.20222045939E+01  0.13212238125E+02  0.51100000000E-03 0.  1.
         12    1    3    3    0    0 -0.16547741421E+02  0.12144396596E+02 -0.56186868080E+01  0.21281065675E+02  0.00000000000E+00 0. -1.
</event>
<event>
 7    1  0.4237994E-013  0.5930194E+02  0.7816164E-02  0.1266605E+00
        -11   -1    0    0    0    0  0.00000000000E+00  0.00000000000E+00  0.45593999997E+02  0.45594000000E+02  0.51100000000E-03 0.  1.
         11   -1    0    0    0    0 -0.00000000000E+00 -0.00000000000E+00 -0.45593999997E+02  0.45594000000E+02  0.51100000000E-03 0. -1.
    9900012    2    1    2    0    0  0.15926736011E+02 -0.23659970428E+01  0.27522024211E+02  0.59301942253E+02  0.49999996763E+02 0.  0.
         12    1    1    2    0    0 -0.15926736011E+02  0.23659970428E+01 -0.27522024211E+02  0.31886057747E+02  0.00000000000E+00 0. -1.
         11    1    3    3    0    0  0.26291274258E+02 -0.18236123860E+02  0.10464882513E+02  0.33664537451E+02  0.51100000000E-03 0.  1.
        -11    1    3    3    0    0 -0.73094140355E+01  0.91680237350E+01  0.95738970924E+01  0.15137361017E+02  0.51100000000E-03 0. -1.
        -12    1    3    3    0    0 -0.30551242110E+01  0.67021030823E+01  0.74832446051E+01  0.10500043785E+02  0.00000000000E+00 0.  1.
</event>
<event>
 7    1  0.4237994E-013  0.5930215E+02  0.7816164E-02  0.1266604E+00
        -11   -1    0    0    0    0  0.00000000000E+00  0.00000000000E+00  0.45593999997E+02  0.45594000000E+02  0.51100000000E-03 0.  1.
         11   -1    0    0    0    0 -0.00000000000E+00 -0.00000000000E+00 -0.45593999997E+02  0.45594000000E+02  0.51100000000E-03 0. -1.
    9900012    2    1    2    0    0  0.85564942876E+01 -0.30481770855E+02  0.37888592693E+01  0.59302150419E+02  0.50000376407E+02 0.  0.
         12    1    1    2    0    0 -0.85564942876E+01  0.30481770855E+02 -0.37888592693E+01  0.31885849581E+02  0.00000000000E+00 0. -1.
         11    1    3    3    0    0 -0.54337116951E+01 -0.49456738365E+01 -0.12077474396E+02  0.14136841958E+02  0.51100000000E-03 0. -1.
        -11    1    3    3    0    0  0.18881117138E+02 -0.27182703157E+02  0.54524836611E+01  0.33542890657E+02  0.51100000000E-03 0.  1.
        -12    1    3    3    0    0 -0.48909111556E+01  0.16466061384E+01  0.10413850004E+02  0.11622417804E+02  0.00000000000E+00 0.  1.
</event>
<event>
 7    1  0.4237994E-013  0.5930194E+02  0.7816164E-02  0.1266605E+00
        -11   -1    0    0    0    0  0.00000000000E+00  0.00000000000E+00  0.45593999997E+02  0.45594000000E+02  0.51100000000E-03 0.  1.
         11   -1    0    0    0    0 -0.00000000000E+00 -0.00000000000E+00 -0.45593999997E+02  0.45594000000E+02  0.51100000000E-03 0. -1.
    9900012    2    1    2    0    0 -0.24686452750E+01  0.25333133266E+02  0.19205708926E+02  0.59301935553E+02  0.49999984545E+02 0.  0.
         12    1    1    2    0    0  0.24686452750E+01 -0.25333133266E+02 -0.19205708926E+02  0.31886064447E+02  0.00000000000E+00 0. -1.
         11    1    3    3    0    0 -0.79691950762E+01  0.10273946397E+02 -0.54678308297E+01  0.14105290461E+02  0.51100000000E-03 0. -1.
        -11    1    3    3    0    0  0.59883871556E+01  0.23723546554E+02  0.26771902441E+02  0.36268473947E+02  0.51100000000E-03 0.  1.
        -12    1    3    3    0    0 -0.48783735445E+00 -0.86643596861E+01 -0.20983626850E+01  0.89281711460E+01  0.00000000000E+00 0.  1.
</event>
<event>
 7    1  0.4237994E-013  0.5930197E+02  0.7816164E-02  0.1266605E+00
        -11   -1    0    0    0    0  0.00000000000E+00  0.00000000000E+00  0.45593999997E+02  0.45594000000E+02  0.51100000000E-03 0.  1.
         11   -1    0    0    0    0 -0.00000000000E+00 -0.00000000000E+00 -0.45593999997E+02  0.45594000000E+02  0.51100000000E-03 0. -1.
    9900012    2    1    2    0    0 -0.85524948030E+01  0.17242675209E+02  0.25421718127E+02  0.59301972210E+02  0.50000051397E+02 0.  0.
         12    1    1    2    0    0  0.85524948030E+01 -0.17242675209E+02 -0.25421718127E+02  0.31886027790E+02  0.00000000000E+00 0. -1.
         11    1    3    3    0    0  0.33299342522E+00 -0.12198330349E+02 -0.74009862163E+01  0.14271816463E+02  0.51100000000E-03 0. -1.
        -11    1    3    3    0    0 -0.25389745929E+01  0.64313052806E+01  0.84153162328E+01  0.10891539246E+02  0.51100000000E-03 0.  1.
         12    1    3    3    0    0 -0.63465136353E+01  0.23009700277E+02  0.24407388111E+02  0.34138616500E+02  0.00000000000E+00 0. -1.
</event>
<event>
 7    1  0.4237994E-013  0.5930194E+02  0.7816164E-02  0.1266605E+00
        -11   -1    0    0    0    0  0.00000000000E+00  0.00000000000E+00  0.45593999997E+02  0.45594000000E+02  0.51100000000E-03 0. -1.
         11   -1    0    0    0    0 -0.00000000000E+00 -0.00000000000E+00 -0.45593999997E+02  0.45594000000E+02  0.51100000000E-03 0.  1.
    9900012    2    1    2    0    0 -0.64152637362E-01  0.29516803602E+02 -0.12061315332E+02  0.59301935050E+02  0.49999983628E+02 0.  0.
         12    1    1    2    0    0  0.64152637362E-01 -0.29516803602E+02  0.12061315332E+02  0.31886064950E+02  0.00000000000E+00 0. -1.
         11    1    3    3    0    0 -0.31532732730E+01  0.21595585438E+02  0.14050206331E+02  0.25956131086E+02  0.51100000000E-03 0. -1.
        -11    1    3    3    0    0 -0.42395704067E+01  0.59603062050E+01 -0.24528606849E+02  0.25595932519E+02  0.51100000000E-03 0.  1.
        -12    1    3    3    0    0  0.73286910423E+01  0.19609119587E+01 -0.15829148139E+01  0.77498714449E+01  0.00000000000E+00 0.  1.
</event>
<event>
 7    1  0.4237994E-013  0.5930191E+02  0.7816164E-02  0.1266605E+00
        -11   -1    0    0    0    0  0.00000000000E+00  0.00000000000E+00  0.45593999997E+02  0.45594000000E+02  0.51100000000E-03 0.  1.
         11   -1    0    0    0    0 -0.00000000000E+00 -0.00000000000E+00 -0.45593999997E+02  0.45594000000E+02  0.51100000000E-03 0. -1.
    9900012    2    1    2    0    0  0.36940983813E+01  0.24943859892E+02  0.19516161039E+02  0.59301905055E+02  0.49999928922E+02 0.  0.
         12    1    1    2    0    0 -0.36940983813E+01 -0.24943859892E+02 -0.19516161039E+02  0.31886094945E+02  0.00000000000E+00 0. -1.
         11    1    3    3    0    0  0.99145738815E+01  0.75650496697E+01 -0.85953933491E+01  0.15146271450E+02  0.51100000000E-03 0. -1.
        -11    1    3    3    0    0 -0.13685728099E+02  0.13545112691E+02  0.29910813983E+02  0.35572827057E+02  0.51100000000E-03 0.  1.
        -12    1    3    3    0    0  0.74652525992E+01  0.38336975321E+01 -0.17992595956E+01  0.85828065474E+01  0.00000000000E+00 0.  1.
</event>
<event>
 7    1  0.4237994E-013  0.5930194E+02  0.7816164E-02  0.1266605E+00
        -11   -1    0    0    0    0  0.00000000000E+00  0.00000000000E+00  0.45593999997E+02  0.45594000000E+02  0.51100000000E-03 0.  1.
         11   -1    0    0    0    0 -0.00000000000E+00 -0.00000000000E+00 -0.45593999997E+02  0.45594000000E+02  0.51100000000E-03 0. -1.
    9900012    2    1    2    0    0 -0.99826650125E+01  0.30050122097E+02  0.37492900598E+01  0.59301943255E+02  0.49999998590E+02 0.  0.
         12    1    1    2    0    0  0.99826650125E+01 -0.30050122097E+02 -0.37492900598E+01  0.31886056745E+02  0.00000000000E+00 0. -1.
         11    1    3    3    0    0  0.56192472934E+01  0.13716258312E+02 -0.13676926319E+02  0.20168539759E+02  0.51100000000E-03 0. -1.
        -11    1    3    3    0    0 -0.21680084234E+02  0.51557537648E+01  0.11877578633E+02  0.25252420156E+02  0.51100000000E-03 0.  1.
        -12    1    3    3    0    0  0.60781719284E+01  0.11178110021E+02  0.55486377465E+01  0.13880983339E+02  0.00000000000E+00 0.  1.
</event>
<event>
 7    1  0.4237994E-013  0.5930195E+02  0.7816164E-02  0.1266605E+00
        -11   -1    0    0    0    0  0.00000000000E+00  0.00000000000E+00  0.45593999997E+02  0.45594000000E+02  0.51100000000E-03 0.  1.
         11   -1    0    0    0    0 -0.00000000000E+00 -0.00000000000E+00 -0.45593999997E+02  0.45594000000E+02  0.51100000000E-03 0. -1.
    9900012    2    1    2    0    0  0.29336830743E+02 -0.96012126327E+01  0.79929379164E+01  0.59301953231E+02  0.50000016784E+02 0.  0.
         12    1    1    2    0    0 -0.29336830743E+02  0.96012126327E+01 -0.79929379164E+01  0.31886046769E+02  0.00000000000E+00 0. -1.
         11    1    3    3    0    0  0.11035864991E+02 -0.64657151577E+01 -0.85787638829E+01  0.15401005766E+02  0.51100000000E-03 0. -1.
        -11    1    3    3    0    0  0.72377471794E+01 -0.16909514799E+02  0.18550613526E+02  0.26123589673E+02  0.51100000000E-03 0.  1.
        -12    1    3    3    0    0  0.11063218573E+02  0.13774017324E+02 -0.19789117268E+01  0.17777357791E+02  0.00000000000E+00 0.  1.
</event>
<event>
 7    1  0.4237994E-013  0.5930196E+02  0.7816164E-02  0.1266605E+00
        -11   -1    0    0    0    0  0.00000000000E+00  0.00000000000E+00  0.45593999997E+02  0.45594000000E+02  0.51100000000E-03 0. -1.
         11   -1    0    0    0    0 -0.00000000000E+00 -0.00000000000E+00 -0.45593999997E+02  0.45594000000E+02  0.51100000000E-03 0.  1.
    9900012    2    1    2    0    0  0.34326252366E+01 -0.31661813162E+02 -0.15704937785E+01  0.59301956354E+02  0.50000022479E+02 0.  0.
         12    1    1    2    0    0 -0.34326252366E+01  0.31661813162E+02  0.15704937785E+01  0.31886043646E+02  0.00000000000E+00 0. -1.
         11    1    3    3    0    0 -0.11033539525E+02 -0.20774751981E+02  0.18493249117E+02  0.29922058377E+02  0.51100000000E-03 0. -1.
        -11    1    3    3    0    0  0.18559119169E+01 -0.37351104391E+01 -0.12187252085E+02  0.12881171247E+02  0.51100000000E-03 0.  1.
         12    1    3    3    0    0  0.12610252845E+02 -0.71519507420E+01 -0.78764908107E+01  0.16498726730E+02  0.00000000000E+00 0. -1.
</event>
<event>
 7    1  0.4237994E-013  0.5930193E+02  0.7816164E-02  0.1266605E+00
        -11   -1    0    0    0    0  0.00000000000E+00  0.00000000000E+00  0.45593999997E+02  0.45594000000E+02  0.51100000000E-03 0. -1.
         11   -1    0    0    0    0 -0.00000000000E+00 -0.00000000000E+00 -0.45593999997E+02  0.45594000000E+02  0.51100000000E-03 0.  1.
    9900012    2    1    2    0    0  0.22630078532E+02 -0.16403827883E+02 -0.15346512369E+02  0.59301929915E+02  0.49999974261E+02 0.  0.
         12    1    1    2    0    0 -0.22630078532E+02  0.16403827883E+02  0.15346512369E+02  0.31886070085E+02  0.00000000000E+00 0. -1.
         11    1    3    3    0    0 -0.25912012373E+01 -0.12080268590E+02  0.85337353958E+01  0.15015720200E+02  0.51100000000E-03 0. -1.
        -11    1    3    3    0    0  0.73077391049E+01  0.32015114422E+01 -0.23537899348E+02  0.24853278100E+02  0.51100000000E-03 0.  1.
        -12    1    3    3    0    0  0.17913540665E+02 -0.75250707352E+01 -0.34234841713E+00  0.19432931615E+02  0.00000000000E+00 0.  1.
</event>
<event>
 7    1  0.4237994E-013  0.5930209E+02  0.7816164E-02  0.1266604E+00
        -11   -1    0    0    0    0  0.00000000000E+00  0.00000000000E+00  0.45593999997E+02  0.45594000000E+02  0.51100000000E-03 0. -1.
         11   -1    0    0    0    0 -0.00000000000E+00 -0.00000000000E+00 -0.45593999997E+02  0.45594000000E+02  0.51100000000E-03 0.  1.
    9900012    2    1    2    0    0  0.43792829440E+01  0.30448049304E+02 -0.83934343821E+01  0.59302085143E+02  0.50000257360E+02 0.  0.
         12    1    1    2    0    0 -0.43792829440E+01 -0.30448049304E+02  0.83934343821E+01  0.31885914857E+02  0.00000000000E+00 0. -1.
         11    1    3    3    0    0 -0.30411857689E+01 -0.72576319726E+01  0.33448272006E+01  0.85504328542E+01  0.51100000000E-03 0. -1.
        -11    1    3    3    0    0  0.70727254416E+01  0.28829828502E+02  0.65693439403E+01  0.30402939606E+02  0.51100000000E-03 0.  1.
         12    1    3    3    0    0  0.34774327128E+00  0.88758527750E+01 -0.18307605523E+02  0.20348712683E+02  0.00000000000E+00 0. -1.
</event>
<event>
 7    1  0.4237994E-013  0.5930195E+02  0.7816164E-02  0.1266605E+00
        -11   -1    0    0    0    0  0.00000000000E+00  0.00000000000E+00  0.45593999997E+02  0.45594000000E+02  0.51100000000E-03 0.  1.
         11   -1    0    0    0    0 -0.00000000000E+00 -0.00000000000E+00 -0.45593999997E+02  0.45594000000E+02  0.51100000000E-03 0. -1.
    9900012    2    1    2    0    0  0.21655092647E+02 -0.39139496873E+01  0.23075047746E+02  0.59301954962E+02  0.50000019941E+02 0.  0.
         12    1    1    2    0    0 -0.21655092647E+02  0.39139496873E+01 -0.23075047746E+02  0.31886045038E+02  0.00000000000E+00 0. -1.
         11    1    3    3    0    0 -0.66426734471E+01  0.99210166367E+01  0.51167199270E+01  0.12989707645E+02  0.51100000000E-03 0. -1.
        -11    1    3    3    0    0  0.21552886506E+02 -0.19776981985E+02  0.37385248015E+01  0.29489532060E+02  0.51100000000E-03 0.  1.
        -12    1    3    3    0    0  0.67448795877E+01  0.59420156606E+01  0.14219803018E+02  0.16822715257E+02  0.00000000000E+00 0.  1.
</event>
<event>
 7    1  0.4237994E-013  0.5930192E+02  0.7816164E-02  0.1266605E+00
        -11   -1    0    0    0    0  0.00000000000E+00  0.00000000000E+00  0.45593999997E+02  0.45594000000E+02  0.51100000000E-03 0.  1.
         11   -1    0    0    0    0 -0.00000000000E+00 -0.00000000000E+00 -0.45593999997E+02  0.45594000000E+02  0.51100000000E-03 0. -1.
    9900012    2    1    2    0    0 -0.23671962716E+02 -0.18654638693E+02  0.10409826980E+02  0.59301923707E+02  0.49999962940E+02 0.  0.
         12    1    1    2    0    0  0.23671962716E+02  0.18654638693E+02 -0.10409826980E+02  0.31886076293E+02  0.00000000000E+00 0. -1.
         11    1    3    3    0    0  0.21865290760E+00 -0.77316412227E+01  0.34707710205E+01  0.84777554122E+01  0.51100000000E-03 0. -1.
        -11    1    3    3    0    0 -0.36363492131E+02 -0.95733670990E+01  0.32267013600E+01  0.37740754093E+02  0.51100000000E-03 0.  1.
        -12    1    3    3    0    0  0.12472876507E+02 -0.13496303716E+01  0.37123545999E+01  0.13083414202E+02  0.00000000000E+00 0.  1.
</event>
<event>
 7    1  0.4237994E-013  0.5930195E+02  0.7816164E-02  0.1266605E+00
        -11   -1    0    0    0    0  0.00000000000E+00  0.00000000000E+00  0.45593999997E+02  0.45594000000E+02  0.51100000000E-03 0. -1.
         11   -1    0    0    0    0 -0.00000000000E+00 -0.00000000000E+00 -0.45593999997E+02  0.45594000000E+02  0.51100000000E-03 0.  1.
    9900012    2    1    2    0    0 -0.17595953623E+02 -0.19542019374E+02 -0.18033629308E+02  0.59301954601E+02  0.50000019284E+02 0.  0.
         12    1    1    2    0    0  0.17595953623E+02  0.19542019374E+02  0.18033629308E+02  0.31886045399E+02  0.00000000000E+00 0. -1.
         11    1    3    3    0    0 -0.69660983244E+01 -0.23532743619E+02 -0.59805074047E+01  0.25260305168E+02  0.51100000000E-03 0. -1.
        -11    1    3    3    0    0  0.50373678527E+01  0.20724115017E+00 -0.16556209908E+02  0.17306822659E+02  0.51100000000E-03 0.  1.
        -12    1    3    3    0    0 -0.15667223151E+02  0.37834830941E+01  0.45030880045E+01  0.16734826774E+02  0.00000000000E+00 0.  1.
</event>
<event>
 7    1  0.4237994E-013  0.5930194E+02  0.7816164E-02  0.1266605E+00
        -11   -1    0    0    0    0  0.00000000000E+00  0.00000000000E+00  0.45593999997E+02  0.45594000000E+02  0.51100000000E-03 0.  1.
         11   -1    0    0    0    0 -0.00000000000E+00 -0.00000000000E+00 -0.45593999997E+02  0.45594000000E+02  0.51100000000E-03 0. -1.
    9900012    2    1    2    0    0  0.16907425937E+01  0.30628737489E+02  0.87030091383E+01  0.59301944447E+02  0.50000000765E+02 0.  0.
         12    1    1    2    0    0 -0.16907425937E+01 -0.30628737489E+02 -0.87030091383E+01  0.31886055553E+02  0.00000000000E+00 0. -1.
         11    1    3    3    0    0 -0.46227816284E+01  0.10701630455E+01  0.14565903196E+02  0.15319298127E+02  0.51100000000E-03 0. -1.
        -11    1    3    3    0    0  0.12267522784E+02  0.31847650301E+02  0.15986803666E+01  0.34166075633E+02  0.51100000000E-03 0.  1.
         12    1    3    3    0    0 -0.59539985615E+01 -0.22890758584E+01 -0.74615744247E+01  0.98165706869E+01  0.00000000000E+00 0. -1.
</event>
<event>
 7    1  0.4237994E-013  0.5930180E+02  0.7816164E-02  0.1266605E+00
        -11   -1    0    0    0    0  0.00000000000E+00  0.00000000000E+00  0.45593999997E+02  0.45594000000E+02  0.51100000000E-03 0.  1.
         11   -1    0    0    0    0 -0.00000000000E+00 -0.00000000000E+00 -0.45593999997E+02  0.45594000000E+02  0.51100000000E-03 0. -1.
    9900012    2    1    2    0    0 -0.17653606812E+01  0.31818293976E+02 -0.10996073619E+01  0.59301804456E+02  0.49999745455E+02 0.  0.
         12    1    1    2    0    0  0.17653606812E+01 -0.31818293976E+02  0.10996073619E+01  0.31886195544E+02  0.00000000000E+00 0. -1.
         11    1    3    3    0    0  0.97607563258E+01 -0.23518320788E+01 -0.59858755786E+01  0.11689062618E+02  0.51100000000E-03 0.  1.
        -11    1    3    3    0    0 -0.13947036342E+02  0.27043826471E+02 -0.90742944965E+01  0.31752656484E+02  0.51100000000E-03 0. -1.
        -12    1    3    3    0    0  0.24209193351E+01  0.71262995843E+01  0.13960562713E+02  0.15860085355E+02  0.00000000000E+00 0.  1.
</event>
<event>
 7    1  0.4237994E-013  0.5930194E+02  0.7816164E-02  0.1266605E+00
        -11   -1    0    0    0    0  0.00000000000E+00  0.00000000000E+00  0.45593999997E+02  0.45594000000E+02  0.51100000000E-03 0.  1.
         11   -1    0    0    0    0 -0.00000000000E+00 -0.00000000000E+00 -0.45593999997E+02  0.45594000000E+02  0.51100000000E-03 0. -1.
    9900012    2    1    2    0    0  0.28517988417E+02  0.10710666245E+02 -0.94195010966E+01  0.59301936655E+02  0.49999986554E+02 0.  0.
         12    1    1    2    0    0 -0.28517988417E+02 -0.10710666245E+02  0.94195010966E+01  0.31886063345E+02  0.00000000000E+00 0. -1.
         11    1    3    3    0    0  0.85400193876E+01  0.87519338959E+01 -0.15388529169E+02  0.19655409136E+02  0.51100000000E-03 0. -1.
        -11    1    3    3    0    0  0.20436090071E+02  0.69100954101E+01  0.17052602794E+02  0.27498626480E+02  0.51100000000E-03 0.  1.
         12    1    3    3    0    0 -0.45812104204E+00 -0.49513630615E+01 -0.11083574721E+02  0.12147901039E+02  0.00000000000E+00 0. -1.
</event>
<event>
 7    1  0.4237994E-013  0.5930194E+02  0.7816164E-02  0.1266605E+00
        -11   -1    0    0    0    0  0.00000000000E+00  0.00000000000E+00  0.45593999997E+02  0.45594000000E+02  0.51100000000E-03 0.  1.
         11   -1    0    0    0    0 -0.00000000000E+00 -0.00000000000E+00 -0.45593999997E+02  0.45594000000E+02  0.51100000000E-03 0. -1.
    9900012    2    1    2    0    0 -0.31111579102E+02 -0.54032808580E+01 -0.44266338020E+01  0.59301939016E+02  0.49999990860E+02 0.  0.
         12    1    1    2    0    0  0.31111579102E+02  0.54032808580E+01  0.44266338020E+01  0.31886060984E+02  0.00000000000E+00 0. -1.
         11    1    3    3    0    0  0.63527787155E+01 -0.80378843007E+01 -0.10880367188E+02  0.14944824249E+02  0.51100000000E-03 0. -1.
        -11    1    3    3    0    0 -0.21070840644E+02 -0.15810262319E+01  0.14488342534E+02  0.25620149083E+02  0.51100000000E-03 0.  1.
        -12    1    3    3    0    0 -0.16393517174E+02  0.42156296745E+01 -0.80346091476E+01  0.18736965684E+02  0.00000000000E+00 0.  1.
</event>
<event>
 7    1  0.4237994E-013  0.5930194E+02  0.7816164E-02  0.1266605E+00
        -11   -1    0    0    0    0  0.00000000000E+00  0.00000000000E+00  0.45593999997E+02  0.45594000000E+02  0.51100000000E-03 0. -1.
         11   -1    0    0    0    0 -0.00000000000E+00 -0.00000000000E+00 -0.45593999997E+02  0.45594000000E+02  0.51100000000E-03 0.  1.
    9900012    2    1    2    0    0 -0.31585122717E+02  0.43617297903E+01  0.27540781452E+00  0.59301944846E+02  0.50000001493E+02 0.  0.
         12    1    1    2    0    0  0.31585122717E+02 -0.43617297903E+01 -0.27540781452E+00  0.31886055154E+02  0.00000000000E+00 0. -1.
         11    1    3    3    0    0  0.56291797218E+01  0.82079830109E+01  0.12708312094E+02  0.16141866249E+02  0.51100000000E-03 0. -1.
        -11    1    3    3    0    0 -0.29178260127E+02  0.32915734825E+01 -0.42890164945E+01  0.29674921782E+02  0.51100000000E-03 0.  1.
         12    1    3    3    0    0 -0.80360423116E+01 -0.71378267031E+01 -0.81438877851E+01  0.13485156815E+02  0.00000000000E+00 0. -1.
</event>
<event>
 7    1  0.4237994E-013  0.5930195E+02  0.7816164E-02  0.1266605E+00
        -11   -1    0    0    0    0  0.00000000000E+00  0.00000000000E+00  0.45593999997E+02  0.45594000000E+02  0.51100000000E-03 0. -1.
         11   -1    0    0    0    0 -0.00000000000E+00 -0.00000000000E+00 -0.45593999997E+02  0.45594000000E+02  0.51100000000E-03 0.  1.
    9900012    2    1    2    0    0  0.24408073802E+01  0.31281792232E+02 -0.56755513998E+01  0.59301953685E+02  0.50000017613E+02 0.  0.
         12    1    1    2    0    0 -0.24408073802E+01 -0.31281792232E+02  0.56755513998E+01  0.31886046315E+02  0.00000000000E+00 0. -1.
         11    1    3    3    0    0 -0.95296885628E+01  0.22030190995E+01  0.16701446111E+02  0.19354755480E+02  0.51100000000E-03 0. -1.
        -11    1    3    3    0    0  0.30952238381E+01  0.18641097194E+02 -0.95222469376E+01  0.21159964608E+02  0.51100000000E-03 0.  1.
         12    1    3    3    0    0  0.88752721049E+01  0.10437675938E+02 -0.12854750573E+02  0.18787233597E+02  0.00000000000E+00 0. -1.
</event>
<event>
 7    1  0.4237994E-013  0.5930193E+02  0.7816164E-02  0.1266605E+00
        -11   -1    0    0    0    0  0.00000000000E+00  0.00000000000E+00  0.45593999997E+02  0.45594000000E+02  0.51100000000E-03 0.  1.
         11   -1    0    0    0    0 -0.00000000000E+00 -0.00000000000E+00 -0.45593999997E+02  0.45594000000E+02  0.51100000000E-03 0. -1.
    9900012    2    1    2    0    0  0.28594245518E+02 -0.12425998606E+02 -0.66846732408E+01  0.59301934478E+02  0.49999982584E+02 0.  0.
         12    1    1    2    0    0 -0.28594245518E+02  0.12425998606E+02  0.66846732408E+01  0.31886065522E+02  0.00000000000E+00 0. -1.
         11    1    3    3    0    0 -0.24746565900E+01  0.54246272983E+01 -0.44701641977E+01  0.74520382970E+01  0.51100000000E-03 0. -1.
        -11    1    3    3    0    0  0.16950626898E+02 -0.27069320789E+02 -0.97321937308E+01  0.33388433256E+02  0.51100000000E-03 0.  1.
        -12    1    3    3    0    0  0.14118275210E+02  0.92186948842E+01  0.75176846877E+01  0.18461462925E+02  0.00000000000E+00 0.  1.
</event>
<event>
 7    1  0.4237994E-013  0.5930190E+02  0.7816164E-02  0.1266605E+00
        -11   -1    0    0    0    0  0.00000000000E+00  0.00000000000E+00  0.45593999997E+02  0.45594000000E+02  0.51100000000E-03 0. -1.
         11   -1    0    0    0    0 -0.00000000000E+00 -0.00000000000E+00 -0.45593999997E+02  0.45594000000E+02  0.51100000000E-03 0.  1.
    9900012    2    1    2    0    0 -0.24964213315E+02 -0.19570287009E+02  0.32427726191E+01  0.59301895592E+02  0.49999911664E+02 0.  0.
         12    1    1    2    0    0  0.24964213315E+02  0.19570287009E+02 -0.32427726191E+01  0.31886104408E+02  0.00000000000E+00 0. -1.
         11    1    3    3    0    0  0.43271563384E+01 -0.20775289737E+02 -0.50616470970E+01  0.21816443735E+02  0.51100000000E-03 0. -1.
        -11    1    3    3    0    0 -0.12640085171E+02 -0.93619223405E+00 -0.72476678627E+01  0.14600578712E+02  0.51100000000E-03 0.  1.
         12    1    3    3    0    0 -0.16651284483E+02  0.21411949620E+01  0.15552087579E+02  0.22884873145E+02  0.00000000000E+00 0. -1.
</event>
<event>
 7    1  0.4237994E-013  0.5930193E+02  0.7816164E-02  0.1266605E+00
        -11   -1    0    0    0    0  0.00000000000E+00  0.00000000000E+00  0.45593999997E+02  0.45594000000E+02  0.51100000000E-03 0.  1.
         11   -1    0    0    0    0 -0.00000000000E+00 -0.00000000000E+00 -0.45593999997E+02  0.45594000000E+02  0.51100000000E-03 0. -1.
    9900012    2    1    2    0    0  0.30977654792E+02 -0.64965355481E+01  0.38602667931E+01  0.59301925763E+02  0.49999966689E+02 0.  0.
         12    1    1    2    0    0 -0.30977654792E+02  0.64965355481E+01 -0.38602667931E+01  0.31886074237E+02  0.00000000000E+00 0. -1.
         11    1    3    3    0    0  0.23579562913E+02  0.12846868559E+02  0.63466271328E+01  0.27591982444E+02  0.51100000000E-03 0. -1.
        -11    1    3    3    0    0 -0.57407684188E+01 -0.56098111674E+01  0.68335469644E+01  0.10541525874E+02  0.51100000000E-03 0.  1.
         12    1    3    3    0    0  0.13138860298E+02 -0.13733592940E+02 -0.93199073041E+01  0.21168417445E+02  0.00000000000E+00 0. -1.
</event>
<event>
 7    1  0.4237994E-013  0.5930194E+02  0.7816164E-02  0.1266605E+00
        -11   -1    0    0    0    0  0.00000000000E+00  0.00000000000E+00  0.45593999997E+02  0.45594000000E+02  0.51100000000E-03 0.  1.
         11   -1    0    0    0    0 -0.00000000000E+00 -0.00000000000E+00 -0.45593999997E+02  0.45594000000E+02  0.51100000000E-03 0. -1.
    9900012    2    1    2    0    0 -0.27369244399E+01 -0.20517247814E+02  0.24254325828E+02  0.59301944512E+02  0.50000000882E+02 0.  0.
         12    1    1    2    0    0  0.27369244399E+01  0.20517247814E+02 -0.24254325828E+02  0.31886055488E+02  0.00000000000E+00 0. -1.
         11    1    3    3    0    0 -0.24388415711E+02 -0.13606492972E+02  0.16877999415E+02  0.32631247852E+02  0.51100000000E-03 0. -1.
        -11    1    3    3    0    0  0.94474937929E+01  0.11878641363E+01 -0.13567890776E+01  0.96180578619E+01  0.51100000000E-03 0.  1.
         12    1    3    3    0    0  0.12203997478E+02 -0.80986189787E+01  0.87331154905E+01  0.17052638798E+02  0.00000000000E+00 0. -1.
</event>
<event>
 7    1  0.4237994E-013  0.5930204E+02  0.7816164E-02  0.1266604E+00
        -11   -1    0    0    0    0  0.00000000000E+00  0.00000000000E+00  0.45593999997E+02  0.45594000000E+02  0.51100000000E-03 0.  1.
         11   -1    0    0    0    0 -0.00000000000E+00 -0.00000000000E+00 -0.45593999997E+02  0.45594000000E+02  0.51100000000E-03 0. -1.
    9900012    2    1    2    0    0 -0.24654660343E+02 -0.19902041649E+02 -0.35736671862E+01  0.59302037013E+02  0.50000169583E+02 0.  0.
         12    1    1    2    0    0  0.24654660343E+02  0.19902041649E+02  0.35736671862E+01  0.31885962987E+02  0.00000000000E+00 0. -1.
         11    1    3    3    0    0  0.80494420026E+01  0.97424719964E+01 -0.54131178357E+01  0.13748131586E+02  0.51100000000E-03 0. -1.
        -11    1    3    3    0    0 -0.38990756288E+01 -0.15648499735E+01  0.32355585205E+01  0.53028657723E+01  0.51100000000E-03 0.  1.
         12    1    3    3    0    0 -0.28805026716E+02 -0.28079663672E+02 -0.13961078710E+01  0.40251039655E+02  0.00000000000E+00 0. -1.
</event>
<event>
 7    1  0.4237994E-013  0.5930192E+02  0.7816164E-02  0.1266605E+00
        -11   -1    0    0    0    0  0.00000000000E+00  0.00000000000E+00  0.45593999997E+02  0.45594000000E+02  0.51100000000E-03 0. -1.
         11   -1    0    0    0    0 -0.00000000000E+00 -0.00000000000E+00 -0.45593999997E+02  0.45594000000E+02  0.51100000000E-03 0.  1.
    9900012    2    1    2    0    0 -0.11275961383E+02 -0.29118404907E+02 -0.64570182052E+01  0.59301923202E+02  0.49999962019E+02 0.  0.
         12    1    1    2    0    0  0.11275961383E+02  0.29118404907E+02  0.64570182052E+01  0.31886076798E+02  0.00000000000E+00 0. -1.
         11    1    3    3    0    0  0.77914319776E+01 -0.11427217641E+02  0.17020405581E+02  0.21931300045E+02  0.51100000000E-03 0. -1.
        -11    1    3    3    0    0 -0.70651685696E+01 -0.15227935125E+02 -0.12651247469E+02  0.21020482342E+02  0.51100000000E-03 0.  1.
         12    1    3    3    0    0 -0.12002224791E+02 -0.24632521406E+01 -0.10826176317E+02  0.16350140815E+02  0.00000000000E+00 0. -1.
</event>
<event>
 7    1  0.4237994E-013  0.5930194E+02  0.7816164E-02  0.1266605E+00
        -11   -1    0    0    0    0  0.00000000000E+00  0.00000000000E+00  0.45593999997E+02  0.45594000000E+02  0.51100000000E-03 0. -1.
         11   -1    0    0    0    0 -0.00000000000E+00 -0.00000000000E+00 -0.45593999997E+02  0.45594000000E+02  0.51100000000E-03 0.  1.
    9900012    2    1    2    0    0  0.31667025237E+00  0.22764790696E+02 -0.22324531223E+02  0.59301942391E+02  0.49999997016E+02 0.  0.
         12    1    1    2    0    0 -0.31667025237E+00 -0.22764790696E+02  0.22324531223E+02  0.31886057609E+02  0.00000000000E+00 0. -1.
         11    1    3    3    0    0 -0.16946105034E+02  0.15255997293E+01 -0.81191228159E+01  0.18852535265E+02  0.51100000000E-03 0. -1.
        -11    1    3    3    0    0  0.14276726525E+02  0.40962281660E+01  0.38808569939E+01  0.15351386150E+02  0.51100000000E-03 0.  1.
        -12    1    3    3    0    0  0.29860487614E+01  0.17142962801E+02 -0.18086265401E+02  0.25098020977E+02  0.00000000000E+00 0.  1.
</event>
<event>
 7    1  0.4237994E-013  0.5930191E+02  0.7816164E-02  0.1266605E+00
        -11   -1    0    0    0    0  0.00000000000E+00  0.00000000000E+00  0.45593999997E+02  0.45594000000E+02  0.51100000000E-03 0.  1.
         11   -1    0    0    0    0 -0.00000000000E+00 -0.00000000000E+00 -0.45593999997E+02  0.45594000000E+02  0.51100000000E-03 0. -1.
    9900012    2    1    2    0    0  0.19122389816E+01 -0.27597997054E+02  0.15856115392E+02  0.59301913777E+02  0.49999944830E+02 0.  0.
         12    1    1    2    0    0 -0.19122389816E+01  0.27597997054E+02 -0.15856115392E+02  0.31886086223E+02  0.00000000000E+00 0. -1.
         11    1    3    3    0    0  0.40795818884E+01  0.55862275312E+01 -0.30119936912E+01  0.75446028836E+01  0.51100000000E-03 0. -1.
        -11    1    3    3    0    0 -0.15716735762E+02 -0.29554524866E+02  0.17191807212E+02  0.37630359533E+02  0.51100000000E-03 0.  1.
        -12    1    3    3    0    0  0.13549392855E+02 -0.36296997186E+01  0.16763018713E+01  0.14126951361E+02  0.00000000000E+00 0.  1.
</event>
<event>
 7    1  0.4237994E-013  0.5930194E+02  0.7816164E-02  0.1266605E+00
        -11   -1    0    0    0    0  0.00000000000E+00  0.00000000000E+00  0.45593999997E+02  0.45594000000E+02  0.51100000000E-03 0.  1.
         11   -1    0    0    0    0 -0.00000000000E+00 -0.00000000000E+00 -0.45593999997E+02  0.45594000000E+02  0.51100000000E-03 0. -1.
    9900012    2    1    2    0    0  0.17045490192E+02  0.24165666666E+02  0.11924457484E+02  0.59301939290E+02  0.49999991360E+02 0.  0.
         12    1    1    2    0    0 -0.17045490192E+02 -0.24165666666E+02 -0.11924457484E+02  0.31886060710E+02  0.00000000000E+00 0. -1.
         11    1    3    3    0    0  0.22147511957E+02  0.13980275380E+02 -0.12089757163E+02  0.28846535565E+02  0.51100000000E-03 0. -1.
        -11    1    3    3    0    0  0.51951313200E+01  0.44731734712E+01  0.73540943390E+01  0.10053923321E+02  0.51100000000E-03 0.  1.
         12    1    3    3    0    0 -0.10297153085E+02  0.57122178148E+01  0.16660120308E+02  0.20401480404E+02  0.00000000000E+00 0. -1.
</event>
<event>
 7    1  0.4237994E-013  0.5930196E+02  0.7816164E-02  0.1266605E+00
        -11   -1    0    0    0    0  0.00000000000E+00  0.00000000000E+00  0.45593999997E+02  0.45594000000E+02  0.51100000000E-03 0. -1.
         11   -1    0    0    0    0 -0.00000000000E+00 -0.00000000000E+00 -0.45593999997E+02  0.45594000000E+02  0.51100000000E-03 0.  1.
    9900012    2    1    2    0    0  0.22405074967E+02  0.20524895120E+02  0.96675297490E+01  0.59301955476E+02  0.50000020878E+02 0.  0.
         12    1    1    2    0    0 -0.22405074967E+02 -0.20524895120E+02 -0.96675297490E+01  0.31886044524E+02  0.00000000000E+00 0. -1.
         11    1    3    3    0    0  0.92403487183E+00  0.13731140908E+02  0.72090513129E+01  0.15536038497E+02  0.51100000000E-03 0. -1.
        -11    1    3    3    0    0 -0.37773688774E+01 -0.36349384416E+00 -0.12834351949E+02  0.13383618107E+02  0.51100000000E-03 0.  1.
        -12    1    3    3    0    0  0.25258408972E+02  0.71572480560E+01  0.15292830385E+02  0.30382298872E+02  0.00000000000E+00 0.  1.
</event>
<event>
 7    1  0.4237994E-013  0.5930193E+02  0.7816164E-02  0.1266605E+00
        -11   -1    0    0    0    0  0.00000000000E+00  0.00000000000E+00  0.45593999997E+02  0.45594000000E+02  0.51100000000E-03 0.  1.
         11   -1    0    0    0    0 -0.00000000000E+00 -0.00000000000E+00 -0.45593999997E+02  0.45594000000E+02  0.51100000000E-03 0. -1.
    9900012    2    1    2    0    0 -0.12820988433E+02 -0.46513547839E+01  0.28822014862E+02  0.59301931154E+02  0.49999976522E+02 0.  0.
         12    1    1    2    0    0  0.12820988433E+02  0.46513547839E+01 -0.28822014862E+02  0.31886068846E+02  0.00000000000E+00 0. -1.
         11    1    3    3    0    0 -0.12153511906E+02 -0.18855038615E+02  0.42446154231E+01  0.22830617451E+02  0.51100000000E-03 0. -1.
        -11    1    3    3    0    0 -0.11283621233E+01  0.19266966942E+02  0.11562171650E+02  0.22498289485E+02  0.51100000000E-03 0.  1.
        -12    1    3    3    0    0  0.46088559608E+00 -0.50632831107E+01  0.13015227789E+02  0.13973024218E+02  0.00000000000E+00 0.  1.
</event>
<event>
 7    1  0.4237994E-013  0.5930199E+02  0.7816164E-02  0.1266605E+00
        -11   -1    0    0    0    0  0.00000000000E+00  0.00000000000E+00  0.45593999997E+02  0.45594000000E+02  0.51100000000E-03 0.  1.
         11   -1    0    0    0    0 -0.00000000000E+00 -0.00000000000E+00 -0.45593999997E+02  0.45594000000E+02  0.51100000000E-03 0. -1.
    9900012    2    1    2    0    0 -0.10745641697E+02 -0.28885613934E+02 -0.81774228587E+01  0.59301988138E+02  0.50000080447E+02 0.  0.
         12    1    1    2    0    0  0.10745641697E+02  0.28885613934E+02  0.81774228587E+01  0.31886011862E+02  0.00000000000E+00 0. -1.
         11    1    3    3    0    0 -0.20800906334E+02 -0.17075690036E+02  0.98664856363E+00  0.26930101563E+02  0.51100000000E-03 0. -1.
        -11    1    3    3    0    0  0.16218979371E+02 -0.10529677654E+02  0.21173956062E+01  0.19452834440E+02  0.51100000000E-03 0.  1.
        -12    1    3    3    0    0 -0.61637147338E+01 -0.12802462448E+01 -0.11281467029E+02  0.12919052136E+02  0.00000000000E+00 0.  1.
</event>
<event>
 7    1  0.4237994E-013  0.5930193E+02  0.7816164E-02  0.1266605E+00
        -11   -1    0    0    0    0  0.00000000000E+00  0.00000000000E+00  0.45593999997E+02  0.45594000000E+02  0.51100000000E-03 0. -1.
         11   -1    0    0    0    0 -0.00000000000E+00 -0.00000000000E+00 -0.45593999997E+02  0.45594000000E+02  0.51100000000E-03 0.  1.
    9900012    2    1    2    0    0 -0.31850726330E+02  0.15003048426E+01  0.38892738027E-01  0.59301934156E+02  0.49999981997E+02 0.  0.
         12    1    1    2    0    0  0.31850726330E+02 -0.15003048426E+01 -0.38892738027E-01  0.31886065844E+02  0.00000000000E+00 0. -1.
         11    1    3    3    0    0 -0.26605876237E+02 -0.14685742291E+02  0.10173598614E+02  0.32047555070E+02  0.51100000000E-03 0. -1.
        -11    1    3    3    0    0  0.62594072579E+01  0.10719026706E+02 -0.64842250424E+01  0.14004388148E+02  0.51100000000E-03 0.  1.
        -12    1    3    3    0    0 -0.11504257350E+02  0.54670204274E+01 -0.36504808332E+01  0.13249990938E+02  0.00000000000E+00 0.  1.
</event>
<event>
 7    1  0.4237994E-013  0.5930197E+02  0.7816164E-02  0.1266605E+00
        -11   -1    0    0    0    0  0.00000000000E+00  0.00000000000E+00  0.45593999997E+02  0.45594000000E+02  0.51100000000E-03 0. -1.
         11   -1    0    0    0    0 -0.00000000000E+00 -0.00000000000E+00 -0.45593999997E+02  0.45594000000E+02  0.51100000000E-03 0.  1.
    9900012    2    1    2    0    0  0.68644350330E+01 -0.28219817947E+02 -0.13162076973E+02  0.59301970715E+02  0.50000048672E+02 0.  0.
         12    1    1    2    0    0 -0.68644350330E+01  0.28219817947E+02  0.13162076973E+02  0.31886029285E+02  0.00000000000E+00 0. -1.
         11    1    3    3    0    0  0.78265909139E+01 -0.28489548769E+02 -0.12702464347E+02  0.32159952038E+02  0.51100000000E-03 0. -1.
        -11    1    3    3    0    0 -0.46264385150E+01  0.52136563712E+01 -0.12106276944E+02  0.13969541431E+02  0.51100000000E-03 0.  1.
         12    1    3    3    0    0  0.36642826341E+01 -0.49439255497E+01  0.11646664317E+02  0.13172477246E+02  0.00000000000E+00 0. -1.
</event>
<event>
 7    1  0.4237994E-013  0.5930195E+02  0.7816164E-02  0.1266605E+00
        -11   -1    0    0    0    0  0.00000000000E+00  0.00000000000E+00  0.45593999997E+02  0.45594000000E+02  0.51100000000E-03 0.  1.
         11   -1    0    0    0    0 -0.00000000000E+00 -0.00000000000E+00 -0.45593999997E+02  0.45594000000E+02  0.51100000000E-03 0. -1.
    9900012    2    1    2    0    0  0.18992004304E+02  0.84841316310E+01  0.24166987464E+02  0.59301952893E+02  0.50000016168E+02 0.  0.
         12    1    1    2    0    0 -0.18992004304E+02 -0.84841316310E+01 -0.24166987464E+02  0.31886047107E+02  0.00000000000E+00 0. -1.
         11    1    3    3    0    0 -0.60352253847E+01  0.36857176899E+01 -0.30364544163E+01  0.76960064979E+01  0.51100000000E-03 0. -1.
        -11    1    3    3    0    0  0.22888921722E+02  0.55776592907E+01 -0.73965413928E+00  0.23570322638E+02  0.51100000000E-03 0.  1.
        -12    1    3    3    0    0  0.21383079668E+01 -0.77924534956E+00  0.27943096020E+02  0.28035623757E+02  0.00000000000E+00 0.  1.
</event>
<event>
 7    1  0.4237994E-013  0.5930157E+02  0.7816164E-02  0.1266606E+00
        -11   -1    0    0    0    0  0.00000000000E+00  0.00000000000E+00  0.45593999997E+02  0.45594000000E+02  0.51100000000E-03 0.  1.
         11   -1    0    0    0    0 -0.00000000000E+00 -0.00000000000E+00 -0.45593999997E+02  0.45594000000E+02  0.51100000000E-03 0. -1.
    9900012    2    1    2    0    0  0.13506130003E+02  0.27753575171E+02  0.80042528730E+01  0.59301567987E+02  0.49999314187E+02 0.  0.
         12    1    1    2    0    0 -0.13506130003E+02 -0.27753575171E+02 -0.80042528730E+01  0.31886432013E+02  0.00000000000E+00 0. -1.
         11    1    3    3    0    0  0.12794922011E+02  0.94965310187E+01  0.10588747990E+02  0.19131537181E+02  0.51100000000E-03 0. -1.
        -11    1    3    3    0    0  0.12198065486E+02  0.52300552821E+01 -0.14074535336E+02  0.19345253295E+02  0.51100000000E-03 0.  1.
        -12    1    3    3    0    0 -0.11486857494E+02  0.13026988871E+02  0.11490040219E+02  0.20824777511E+02  0.00000000000E+00 0.  1.
</event>
<event>
 7    1  0.4237994E-013  0.5930195E+02  0.7816164E-02  0.1266605E+00
        -11   -1    0    0    0    0  0.00000000000E+00  0.00000000000E+00  0.45593999997E+02  0.45594000000E+02  0.51100000000E-03 0.  1.
         11   -1    0    0    0    0 -0.00000000000E+00 -0.00000000000E+00 -0.45593999997E+02  0.45594000000E+02  0.51100000000E-03 0. -1.
    9900012    2    1    2    0    0 -0.26251574421E+02  0.15645307772E+02  0.90994149214E+01  0.59301950280E+02  0.50000011402E+02 0.  0.
         12    1    1    2    0    0  0.26251574421E+02 -0.15645307772E+02 -0.90994149214E+01  0.31886049720E+02  0.00000000000E+00 0. -1.
         11    1    3    3    0    0 -0.12809096072E+02  0.22406580110E+02 -0.84432667825E+01  0.27155414352E+02  0.51100000000E-03 0. -1.
        -11    1    3    3    0    0  0.41089940150E+01 -0.22753000087E+01  0.12483209867E+02  0.13337591641E+02  0.51100000000E-03 0.  1.
         12    1    3    3    0    0 -0.17551472364E+02 -0.44859723300E+01  0.50594718370E+01  0.18808944286E+02  0.00000000000E+00 0. -1.
</event>
<event>
 7    1  0.4237994E-013  0.5930195E+02  0.7816164E-02  0.1266605E+00
        -11   -1    0    0    0    0  0.00000000000E+00  0.00000000000E+00  0.45593999997E+02  0.45594000000E+02  0.51100000000E-03 0. -1.
         11   -1    0    0    0    0 -0.00000000000E+00 -0.00000000000E+00 -0.45593999997E+02  0.45594000000E+02  0.51100000000E-03 0.  1.
    9900012    2    1    2    0    0 -0.16887862702E+02  0.82818052966E+01 -0.25747469228E+02  0.59301946979E+02  0.50000005382E+02 0.  0.
         12    1    1    2    0    0  0.16887862702E+02 -0.82818052966E+01  0.25747469228E+02  0.31886053021E+02  0.00000000000E+00 0. -1.
         11    1    3    3    0    0 -0.22970965905E+02 -0.98145581104E+01 -0.35068112737E+01  0.25224760674E+02  0.51100000000E-03 0. -1.
        -11    1    3    3    0    0  0.11053523932E+02  0.58913630127E+01 -0.92349181971E+01  0.15561884971E+02  0.51100000000E-03 0.  1.
         12    1    3    3    0    0 -0.49704207294E+01  0.12205000394E+02 -0.13005739757E+02  0.18515301334E+02  0.00000000000E+00 0. -1.
</event>
<event>
 7    1  0.4237994E-013  0.5930194E+02  0.7816164E-02  0.1266605E+00
        -11   -1    0    0    0    0  0.00000000000E+00  0.00000000000E+00  0.45593999997E+02  0.45594000000E+02  0.51100000000E-03 0. -1.
         11   -1    0    0    0    0 -0.00000000000E+00 -0.00000000000E+00 -0.45593999997E+02  0.45594000000E+02  0.51100000000E-03 0.  1.
    9900012    2    1    2    0    0 -0.31156438816E+02  0.34748967229E+00  0.67731889312E+01  0.59301944787E+02  0.50000001385E+02 0.  0.
         12    1    1    2    0    0  0.31156438816E+02 -0.34748967229E+00 -0.67731889312E+01  0.31886055213E+02  0.00000000000E+00 0. -1.
         11    1    3    3    0    0 -0.33791789104E+02  0.12068941899E+02 -0.79241232258E+01  0.36746919580E+02  0.51100000000E-03 0. -1.
        -11    1    3    3    0    0  0.16512242395E+01 -0.11557323025E+02  0.48250461302E+01  0.12632471152E+02  0.51100000000E-03 0.  1.
         12    1    3    3    0    0  0.98412604921E+00 -0.16412920187E+00  0.98722660268E+01  0.99225540553E+01  0.00000000000E+00 0. -1.
</event>
<event>
 7    1  0.4237994E-013  0.5930195E+02  0.7816164E-02  0.1266605E+00
        -11   -1    0    0    0    0  0.00000000000E+00  0.00000000000E+00  0.45593999997E+02  0.45594000000E+02  0.51100000000E-03 0. -1.
         11   -1    0    0    0    0 -0.00000000000E+00 -0.00000000000E+00 -0.45593999997E+02  0.45594000000E+02  0.51100000000E-03 0.  1.
    9900012    2    1    2    0    0  0.11218135822E+02 -0.15496301493E+02 -0.25509568283E+02  0.59301952812E+02  0.50000016020E+02 0.  0.
         12    1    1    2    0    0 -0.11218135822E+02  0.15496301493E+02  0.25509568283E+02  0.31886047188E+02  0.00000000000E+00 0. -1.
         11    1    3    3    0    0  0.22992484515E+02 -0.83798195587E+01 -0.18050620821E+02  0.30408890679E+02  0.51100000000E-03 0. -1.
        -11    1    3    3    0    0 -0.11623579114E+02  0.65389816846E+01 -0.85867754826E-02  0.13336639265E+02  0.51100000000E-03 0.  1.
         12    1    3    3    0    0 -0.15076957921E+00 -0.13655463619E+02 -0.74503606863E+01  0.15556422869E+02  0.00000000000E+00 0. -1.
</event>
<event>
 7    1  0.4237994E-013  0.5930199E+02  0.7816164E-02  0.1266605E+00
        -11   -1    0    0    0    0  0.00000000000E+00  0.00000000000E+00  0.45593999997E+02  0.45594000000E+02  0.51100000000E-03 0. -1.
         11   -1    0    0    0    0 -0.00000000000E+00 -0.00000000000E+00 -0.45593999997E+02  0.45594000000E+02  0.51100000000E-03 0.  1.
    9900012    2    1    2    0    0 -0.10915984921E+02 -0.32117118668E+01 -0.29786640539E+02  0.59301987792E+02  0.50000079816E+02 0.  0.
         12    1    1    2    0    0  0.10915984921E+02  0.32117118668E+01  0.29786640539E+02  0.31886012208E+02  0.00000000000E+00 0. -1.
         11    1    3    3    0    0  0.12566160875E+02 -0.48592583468E+01 -0.58850326512E+00  0.13485812069E+02  0.51100000000E-03 0. -1.
        -11    1    3    3    0    0 -0.14115545228E+02  0.10181582506E+02 -0.43749051955E+01  0.17945836150E+02  0.51100000000E-03 0.  1.
        -12    1    3    3    0    0 -0.93666005680E+01 -0.85340360263E+01 -0.24823232078E+02  0.27870339573E+02  0.00000000000E+00 0.  1.
</event>
<event>
 7    1  0.4237994E-013  0.5930195E+02  0.7816164E-02  0.1266605E+00
        -11   -1    0    0    0    0  0.00000000000E+00  0.00000000000E+00  0.45593999997E+02  0.45594000000E+02  0.51100000000E-03 0. -1.
         11   -1    0    0    0    0 -0.00000000000E+00 -0.00000000000E+00 -0.45593999997E+02  0.45594000000E+02  0.51100000000E-03 0.  1.
    9900012    2    1    2    0    0 -0.17645018945E+02  0.16550097515E+02 -0.20771799363E+02  0.59301951796E+02  0.50000014167E+02 0.  0.
         12    1    1    2    0    0  0.17645018945E+02 -0.16550097515E+02  0.20771799363E+02  0.31886048204E+02  0.00000000000E+00 0. -1.
         11    1    3    3    0    0 -0.11343218199E+02 -0.14484760486E+02 -0.98844897631E+01  0.20884923356E+02  0.51100000000E-03 0. -1.
        -11    1    3    3    0    0  0.15196160036E+01  0.27278089931E+02 -0.46076808866E+01  0.27706211334E+02  0.51100000000E-03 0.  1.
        -12    1    3    3    0    0 -0.78214167493E+01  0.37567680699E+01 -0.62796287130E+01  0.10710817106E+02  0.00000000000E+00 0.  1.
</event>
<event>
 7    1  0.4237994E-013  0.5930195E+02  0.7816164E-02  0.1266605E+00
        -11   -1    0    0    0    0  0.00000000000E+00  0.00000000000E+00  0.45593999997E+02  0.45594000000E+02  0.51100000000E-03 0. -1.
         11   -1    0    0    0    0 -0.00000000000E+00 -0.00000000000E+00 -0.45593999997E+02  0.45594000000E+02  0.51100000000E-03 0.  1.
    9900012    2    1    2    0    0  0.17609460410E+01  0.80842703589E+00 -0.31827120149E+02  0.59301951919E+02  0.50000014392E+02 0.  0.
         12    1    1    2    0    0 -0.17609460410E+01 -0.80842703589E+00  0.31827120149E+02  0.31886048081E+02  0.00000000000E+00 0. -1.
         11    1    3    3    0    0 -0.11041453924E+02  0.13962191669E+01 -0.34939159350E+02  0.36668896752E+02  0.51100000000E-03 0.  1.
        -11    1    3    3    0    0  0.16940315324E+02  0.26612684946E+01  0.26517528595E+01  0.17351899802E+02  0.51100000000E-03 0. -1.
        -12    1    3    3    0    0 -0.41379153586E+01 -0.32490606257E+01  0.46028634103E+00  0.52811553641E+01  0.00000000000E+00 0.  1.
</event>
<event>
 7    1  0.4237994E-013  0.5930193E+02  0.7816164E-02  0.1266605E+00
        -11   -1    0    0    0    0  0.00000000000E+00  0.00000000000E+00  0.45593999997E+02  0.45594000000E+02  0.51100000000E-03 0.  1.
         11   -1    0    0    0    0 -0.00000000000E+00 -0.00000000000E+00 -0.45593999997E+02  0.45594000000E+02  0.51100000000E-03 0. -1.
    9900012    2    1    2    0    0  0.20632715140E+02 -0.12320123345E+02  0.20957752823E+02  0.59301925035E+02  0.49999965362E+02 0.  0.
         12    1    1    2    0    0 -0.20632715140E+02  0.12320123345E+02 -0.20957752823E+02  0.31886074965E+02  0.00000000000E+00 0. -1.
         11    1    3    3    0    0 -0.65736190036E+01  0.11477771695E+01  0.16579580654E+02  0.17872111072E+02  0.51100000000E-03 0. -1.
        -11    1    3    3    0    0  0.30701918307E+02 -0.43024839929E+01  0.87695968598E+00  0.31014322736E+02  0.51100000000E-03 0.  1.
        -12    1    3    3    0    0 -0.34955841631E+01 -0.91654165216E+01  0.35012124829E+01  0.10415491227E+02  0.00000000000E+00 0.  1.
</event>
<event>
 7    1  0.4237994E-013  0.5930190E+02  0.7816164E-02  0.1266605E+00
        -11   -1    0    0    0    0  0.00000000000E+00  0.00000000000E+00  0.45593999997E+02  0.45594000000E+02  0.51100000000E-03 0. -1.
         11   -1    0    0    0    0 -0.00000000000E+00 -0.00000000000E+00 -0.45593999997E+02  0.45594000000E+02  0.51100000000E-03 0.  1.
    9900012    2    1    2    0    0  0.12525577388E+02 -0.19989864855E+02 -0.21453174698E+02  0.59301898162E+02  0.49999916351E+02 0.  0.
         12    1    1    2    0    0 -0.12525577388E+02  0.19989864855E+02  0.21453174698E+02  0.31886101838E+02  0.00000000000E+00 0. -1.
         11    1    3    3    0    0 -0.11609298456E+02 -0.60012835919E+01 -0.16859587116E+02  0.21331593784E+02  0.51100000000E-03 0. -1.
        -11    1    3    3    0    0  0.17757810423E+02 -0.70233713166E+01 -0.14729458958E+02  0.24116893190E+02  0.51100000000E-03 0.  1.
         12    1    3    3    0    0  0.63770654209E+01 -0.69652099466E+01  0.10135871376E+02  0.13853411188E+02  0.00000000000E+00 0. -1.
</event>
<event>
 7    1  0.4237994E-013  0.5930197E+02  0.7816164E-02  0.1266605E+00
        -11   -1    0    0    0    0  0.00000000000E+00  0.00000000000E+00  0.45593999997E+02  0.45594000000E+02  0.51100000000E-03 0.  1.
         11   -1    0    0    0    0 -0.00000000000E+00 -0.00000000000E+00 -0.45593999997E+02  0.45594000000E+02  0.51100000000E-03 0. -1.
    9900012    2    1    2    0    0 -0.20400039358E+02  0.16939209767E+02 -0.17709340887E+02  0.59301965628E+02  0.50000039393E+02 0.  0.
         12    1    1    2    0    0  0.20400039358E+02 -0.16939209767E+02  0.17709340887E+02  0.31886034372E+02  0.00000000000E+00 0. -1.
         11    1    3    3    0    0 -0.97976382007E+00 -0.87860592872E+01 -0.33644055282E+01  0.94590697090E+01  0.51100000000E-03 0. -1.
        -11    1    3    3    0    0 -0.11882749813E+02  0.12928814525E+02 -0.25715132182E+02  0.31138754175E+02  0.51100000000E-03 0.  1.
        -12    1    3    3    0    0 -0.75375257248E+01  0.12796454529E+02  0.11370196823E+02  0.18704141744E+02  0.00000000000E+00 0.  1.
</event>
<event>
 7    1  0.4237994E-013  0.5930197E+02  0.7816164E-02  0.1266605E+00
        -11   -1    0    0    0    0  0.00000000000E+00  0.00000000000E+00  0.45593999997E+02  0.45594000000E+02  0.51100000000E-03 0. -1.
         11   -1    0    0    0    0 -0.00000000000E+00 -0.00000000000E+00 -0.45593999997E+02  0.45594000000E+02  0.51100000000E-03 0.  1.
    9900012    2    1    2    0    0  0.13992109708E+02 -0.53323170229E+01 -0.28151491725E+02  0.59301965043E+02  0.50000038327E+02 0.  0.
         12    1    1    2    0    0 -0.13992109708E+02  0.53323170229E+01  0.28151491725E+02  0.31886034957E+02  0.00000000000E+00 0. -1.
         11    1    3    3    0    0  0.26916031262E+02 -0.78044783574E+01 -0.26762661611E+02  0.38750776484E+02  0.51100000000E-03 0. -1.
        -11    1    3    3    0    0 -0.55303229590E+00  0.16034397814E+01  0.59187213299E+01  0.61569575518E+01  0.51100000000E-03 0.  1.
         12    1    3    3    0    0 -0.12370889259E+02  0.86872155307E+00 -0.73075514446E+01  0.14394231008E+02  0.00000000000E+00 0. -1.
</event>
<event>
 7    1  0.4237994E-013  0.5930194E+02  0.7816164E-02  0.1266605E+00
        -11   -1    0    0    0    0  0.00000000000E+00  0.00000000000E+00  0.45593999997E+02  0.45594000000E+02  0.51100000000E-03 0. -1.
         11   -1    0    0    0    0 -0.00000000000E+00 -0.00000000000E+00 -0.45593999997E+02  0.45594000000E+02  0.51100000000E-03 0.  1.
    9900012    2    1    2    0    0 -0.14617387753E+02 -0.25696146078E+02 -0.11948260164E+02  0.59301939269E+02  0.49999991322E+02 0.  0.
         12    1    1    2    0    0  0.14617387753E+02  0.25696146078E+02  0.11948260164E+02  0.31886060731E+02  0.00000000000E+00 0. -1.
         11    1    3    3    0    0  0.61272769102E+01 -0.17218547480E+02 -0.12029808438E+02  0.21880086631E+02  0.51100000000E-03 0. -1.
        -11    1    3    3    0    0 -0.20019618002E+02  0.42280820556E+01 -0.84104977732E+01  0.22122347431E+02  0.51100000000E-03 0.  1.
         12    1    3    3    0    0 -0.72504666191E+00 -0.12705680653E+02  0.84920460474E+01  0.15299505207E+02  0.00000000000E+00 0. -1.
</event>
<event>
 7    1  0.4237994E-013  0.5930173E+02  0.7816164E-02  0.1266606E+00
        -11   -1    0    0    0    0  0.00000000000E+00  0.00000000000E+00  0.45593999997E+02  0.45594000000E+02  0.51100000000E-03 0.  1.
         11   -1    0    0    0    0 -0.00000000000E+00 -0.00000000000E+00 -0.45593999997E+02  0.45594000000E+02  0.51100000000E-03 0. -1.
    9900012    2    1    2    0    0  0.10445675291E+02 -0.71944626204E+01  0.29255120753E+02  0.59301725289E+02  0.49999601071E+02 0.  0.
         12    1    1    2    0    0 -0.10445675291E+02  0.71944626204E+01 -0.29255120753E+02  0.31886274711E+02  0.00000000000E+00 0. -1.
         11    1    3    3    0    0 -0.18601284887E+02 -0.39963025136E+01  0.52589545326E+01  0.19739170101E+02  0.51100000000E-03 0. -1.
        -11    1    3    3    0    0  0.30096918978E+02 -0.33087633768E+01  0.23741849526E+02  0.38476588547E+02  0.51100000000E-03 0.  1.
        -12    1    3    3    0    0 -0.10499587992E+01  0.11060326995E+00  0.25431669492E+00  0.10859666407E+01  0.00000000000E+00 0.  1.
</event>
<event>
 7    1  0.4237994E-013  0.5930194E+02  0.7816164E-02  0.1266605E+00
        -11   -1    0    0    0    0  0.00000000000E+00  0.00000000000E+00  0.45593999997E+02  0.45594000000E+02  0.51100000000E-03 0. -1.
         11   -1    0    0    0    0 -0.00000000000E+00 -0.00000000000E+00 -0.45593999997E+02  0.45594000000E+02  0.51100000000E-03 0.  1.
    9900012    2    1    2    0    0  0.37788156011E+01  0.12993997321E+02 -0.28872086361E+02  0.59301940592E+02  0.49999993734E+02 0.  0.
         12    1    1    2    0    0 -0.37788156011E+01 -0.12993997321E+02  0.28872086361E+02  0.31886059408E+02  0.00000000000E+00 0. -1.
         11    1    3    3    0    0 -0.96540884063E+01 -0.13711383092E+02 -0.12722560860E+01  0.16817315037E+02  0.51100000000E-03 0. -1.
        -11    1    3    3    0    0  0.12461970332E+02  0.21646975660E+02 -0.27744803074E+02  0.37331841070E+02  0.51100000000E-03 0.  1.
         12    1    3    3    0    0  0.97093367516E+00  0.50584047527E+01  0.14497279893E+00  0.51527844857E+01  0.00000000000E+00 0. -1.
</event>
<event>
 7    1  0.4237994E-013  0.5930193E+02  0.7816164E-02  0.1266605E+00
        -11   -1    0    0    0    0  0.00000000000E+00  0.00000000000E+00  0.45593999997E+02  0.45594000000E+02  0.51100000000E-03 0. -1.
         11   -1    0    0    0    0 -0.00000000000E+00 -0.00000000000E+00 -0.45593999997E+02  0.45594000000E+02  0.51100000000E-03 0.  1.
    9900012    2    1    2    0    0  0.19570519125E+02  0.11480100779E+02  0.22403656642E+02  0.59301925239E+02  0.49999965734E+02 0.  0.
         12    1    1    2    0    0 -0.19570519125E+02 -0.11480100779E+02 -0.22403656642E+02  0.31886074761E+02  0.00000000000E+00 0. -1.
         11    1    3    3    0    0 -0.99173733915E+01  0.86088600055E+01  0.88872217733E+01  0.15857158531E+02  0.51100000000E-03 0. -1.
        -11    1    3    3    0    0  0.12399055978E+02 -0.91915488913E+01 -0.42408827439E+01  0.16006443917E+02  0.51100000000E-03 0.  1.
        -12    1    3    3    0    0  0.17088836539E+02  0.12062789665E+02  0.17757317613E+02  0.27438322790E+02  0.00000000000E+00 0.  1.
</event>
<event>
 7    1  0.4237994E-013  0.5930193E+02  0.7816164E-02  0.1266605E+00
        -11   -1    0    0    0    0  0.00000000000E+00  0.00000000000E+00  0.45593999997E+02  0.45594000000E+02  0.51100000000E-03 0. -1.
         11   -1    0    0    0    0 -0.00000000000E+00 -0.00000000000E+00 -0.45593999997E+02  0.45594000000E+02  0.51100000000E-03 0.  1.
    9900012    2    1    2    0    0  0.74667672009E+01  0.64359365454E+01 -0.30324040168E+02  0.59301932451E+02  0.49999978886E+02 0.  0.
         12    1    1    2    0    0 -0.74667672009E+01 -0.64359365454E+01  0.30324040168E+02  0.31886067549E+02  0.00000000000E+00 0. -1.
         11    1    3    3    0    0 -0.12025870966E+02 -0.60974403339E+01 -0.14680076300E+02  0.19932510919E+02  0.51100000000E-03 0. -1.
        -11    1    3    3    0    0  0.11755241828E+02  0.23331614463E+01 -0.22017495523E+02  0.25067897042E+02  0.51100000000E-03 0.  1.
         12    1    3    3    0    0  0.77373963388E+01  0.10200215433E+02  0.63735316544E+01  0.14301524490E+02  0.00000000000E+00 0. -1.
</event>
<event>
 7    1  0.4237994E-013  0.5930193E+02  0.7816164E-02  0.1266605E+00
        -11   -1    0    0    0    0  0.00000000000E+00  0.00000000000E+00  0.45593999997E+02  0.45594000000E+02  0.51100000000E-03 0. -1.
         11   -1    0    0    0    0 -0.00000000000E+00 -0.00000000000E+00 -0.45593999997E+02  0.45594000000E+02  0.51100000000E-03 0.  1.
    9900012    2    1    2    0    0 -0.12561228618E+02  0.24803742778E+02  0.15611265944E+02  0.59301925539E+02  0.49999966281E+02 0.  0.
         12    1    1    2    0    0  0.12561228618E+02 -0.24803742778E+02 -0.15611265944E+02  0.31886074461E+02  0.00000000000E+00 0. -1.
         11    1    3    3    0    0  0.10626895334E+02  0.26081284124E+02  0.17890940510E+02  0.33365401820E+02  0.51100000000E-03 0. -1.
        -11    1    3    3    0    0 -0.23016662447E+02 -0.12810360086E+01  0.59185194054E+00  0.23059880582E+02  0.51100000000E-03 0.  1.
         12    1    3    3    0    0 -0.17146150462E+00  0.34946625905E-02 -0.28715265071E+01  0.28766431376E+01  0.00000000000E+00 0. -1.
</event>
<event>
 7    1  0.4237994E-013  0.5930186E+02  0.7816164E-02  0.1266605E+00
        -11   -1    0    0    0    0  0.00000000000E+00  0.00000000000E+00  0.45593999997E+02  0.45594000000E+02  0.51100000000E-03 0.  1.
         11   -1    0    0    0    0 -0.00000000000E+00 -0.00000000000E+00 -0.45593999997E+02  0.45594000000E+02  0.51100000000E-03 0. -1.
    9900012    2    1    2    0    0  0.11857840308E+02  0.24552439355E+02  0.16531641362E+02  0.59301861614E+02  0.49999849696E+02 0.  0.
         12    1    1    2    0    0 -0.11857840308E+02 -0.24552439355E+02 -0.16531641362E+02  0.31886138386E+02  0.00000000000E+00 0. -1.
         11    1    3    3    0    0  0.15296399505E+02  0.21581563677E+02 -0.67146313230E+01  0.27291573839E+02  0.51100000000E-03 0. -1.
        -11    1    3    3    0    0  0.43026240207E+01 -0.73755350786E+01  0.12835992058E+02  0.15416672258E+02  0.51100000000E-03 0.  1.
        -12    1    3    3    0    0 -0.77411832173E+01  0.10346410757E+02  0.10410280627E+02  0.16593615516E+02  0.00000000000E+00 0.  1.
</event>
<event>
 7    1  0.4237994E-013  0.5930196E+02  0.7816164E-02  0.1266605E+00
        -11   -1    0    0    0    0  0.00000000000E+00  0.00000000000E+00  0.45593999997E+02  0.45594000000E+02  0.51100000000E-03 0.  1.
         11   -1    0    0    0    0 -0.00000000000E+00 -0.00000000000E+00 -0.45593999997E+02  0.45594000000E+02  0.51100000000E-03 0. -1.
    9900012    2    1    2    0    0 -0.30146238036E+02  0.10387905099E+02 -0.12328828108E+00  0.59301961674E+02  0.50000032183E+02 0.  0.
         12    1    1    2    0    0  0.30146238036E+02 -0.10387905099E+02  0.12328828108E+00  0.31886038326E+02  0.00000000000E+00 0. -1.
         11    1    3    3    0    0  0.83985294500E+01 -0.21365854852E+01 -0.87445593028E+01  0.12311279873E+02  0.51100000000E-03 0. -1.
        -11    1    3    3    0    0 -0.17843200970E+02  0.61490658713E+01  0.15329923426E+02  0.24314550879E+02  0.51100000000E-03 0.  1.
         12    1    3    3    0    0 -0.20701566516E+02  0.63754247133E+01 -0.67086524042E+01  0.22676130922E+02  0.00000000000E+00 0. -1.
</event>
<event>
 7    1  0.4237994E-013  0.5930190E+02  0.7816164E-02  0.1266605E+00
        -11   -1    0    0    0    0  0.00000000000E+00  0.00000000000E+00  0.45593999997E+02  0.45594000000E+02  0.51100000000E-03 0.  1.
         11   -1    0    0    0    0 -0.00000000000E+00 -0.00000000000E+00 -0.45593999997E+02  0.45594000000E+02  0.51100000000E-03 0. -1.
    9900012    2    1    2    0    0 -0.56966091378E+01  0.10249448070E+02  0.29651658717E+02  0.59301899485E+02  0.49999918765E+02 0.  0.
         12    1    1    2    0    0  0.56966091378E+01 -0.10249448070E+02 -0.29651658717E+02  0.31886100515E+02  0.00000000000E+00 0. -1.
         11    1    3    3    0    0 -0.90275034408E+01 -0.33686159764E+01 -0.31273486843E+01  0.10130335731E+02  0.51100000000E-03 0. -1.
        -11    1    3    3    0    0 -0.65465210160E+01 -0.17588953727E+01  0.29913849010E+02  0.30672284121E+02  0.51100000000E-03 0.  1.
        -12    1    3    3    0    0  0.98774153190E+01  0.15376959419E+02  0.28651583913E+01  0.18499279634E+02  0.00000000000E+00 0.  1.
</event>
<event>
 7    1  0.4237994E-013  0.5930194E+02  0.7816164E-02  0.1266605E+00
        -11   -1    0    0    0    0  0.00000000000E+00  0.00000000000E+00  0.45593999997E+02  0.45594000000E+02  0.51100000000E-03 0.  1.
         11   -1    0    0    0    0 -0.00000000000E+00 -0.00000000000E+00 -0.45593999997E+02  0.45594000000E+02  0.51100000000E-03 0. -1.
    9900012    2    1    2    0    0  0.17085847802E+02 -0.15999755866E+02  0.21651848514E+02  0.59301938359E+02  0.49999989661E+02 0.  0.
         12    1    1    2    0    0 -0.17085847802E+02  0.15999755866E+02 -0.21651848514E+02  0.31886061641E+02  0.00000000000E+00 0. -1.
         11    1    3    3    0    0  0.95778489328E+01 -0.79345527310E+01 -0.44461829620E+01  0.13208363275E+02  0.51100000000E-03 0. -1.
        -11    1    3    3    0    0  0.65460165756E+01 -0.95359087584E+01  0.35081887872E+02  0.36939447015E+02  0.51100000000E-03 0.  1.
        -12    1    3    3    0    0  0.96198229354E+00  0.14707056229E+01 -0.89838563954E+01  0.91541280686E+01  0.00000000000E+00 0.  1.
</event>
<event>
 7    1  0.4237994E-013  0.5930194E+02  0.7816164E-02  0.1266605E+00
        -11   -1    0    0    0    0  0.00000000000E+00  0.00000000000E+00  0.45593999997E+02  0.45594000000E+02  0.51100000000E-03 0. -1.
         11   -1    0    0    0    0 -0.00000000000E+00 -0.00000000000E+00 -0.45593999997E+02  0.45594000000E+02  0.51100000000E-03 0.  1.
    9900012    2    1    2    0    0 -0.23332339811E+02 -0.23179707243E+01 -0.21609025759E+02  0.59301936217E+02  0.49999985755E+02 0.  0.
         12    1    1    2    0    0  0.23332339811E+02  0.23179707243E+01  0.21609025759E+02  0.31886063783E+02  0.00000000000E+00 0. -1.
         11    1    3    3    0    0 -0.26408012762E+02 -0.47181416187E+01  0.46397698331E+01  0.27224464416E+02  0.51100000000E-03 0. -1.
        -11    1    3    3    0    0  0.24921462111E+01 -0.69433055190E+01 -0.18528494146E+02  0.19943053423E+02  0.51100000000E-03 0.  1.
         12    1    3    3    0    0  0.58352674019E+00  0.93434764134E+01 -0.77203014458E+01  0.12134418377E+02  0.00000000000E+00 0. -1.
</event>
<event>
 7    1  0.4237994E-013  0.5930194E+02  0.7816164E-02  0.1266605E+00
        -11   -1    0    0    0    0  0.00000000000E+00  0.00000000000E+00  0.45593999997E+02  0.45594000000E+02  0.51100000000E-03 0.  1.
         11   -1    0    0    0    0 -0.00000000000E+00 -0.00000000000E+00 -0.45593999997E+02  0.45594000000E+02  0.51100000000E-03 0. -1.
    9900012    2    1    2    0    0  0.40115228286E+01  0.26904190014E+01  0.31518090918E+02  0.59301941527E+02  0.49999995440E+02 0.  0.
         12    1    1    2    0    0 -0.40115228286E+01 -0.26904190014E+01 -0.31518090918E+02  0.31886058473E+02  0.00000000000E+00 0. -1.
         11    1    3    3    0    0  0.85042970559E+01 -0.66097492732E+01  0.32828839075E+01  0.11260070199E+02  0.51100000000E-03 0. -1.
        -11    1    3    3    0    0 -0.67543880968E+01  0.22806448433E+02  0.11505991134E+02  0.26422408689E+02  0.51100000000E-03 0.  1.
        -12    1    3    3    0    0  0.22616138695E+01 -0.13506280158E+02  0.16729215876E+02  0.21619462640E+02  0.00000000000E+00 0.  1.
</event>
<event>
 7    1  0.4237994E-013  0.5930194E+02  0.7816164E-02  0.1266605E+00
        -11   -1    0    0    0    0  0.00000000000E+00  0.00000000000E+00  0.45593999997E+02  0.45594000000E+02  0.51100000000E-03 0. -1.
         11   -1    0    0    0    0 -0.00000000000E+00 -0.00000000000E+00 -0.45593999997E+02  0.45594000000E+02  0.51100000000E-03 0.  1.
    9900012    2    1    2    0    0 -0.94577574916E+01  0.27150546718E+02 -0.13788385623E+02  0.59301938124E+02  0.49999989233E+02 0.  0.
         12    1    1    2    0    0  0.94577574916E+01 -0.27150546718E+02  0.13788385623E+02  0.31886061876E+02  0.00000000000E+00 0. -1.
         11    1    3    3    0    0 -0.20198874614E+02  0.24409126607E+02 -0.71032559539E+01  0.32469312324E+02  0.51100000000E-03 0. -1.
        -11    1    3    3    0    0  0.13781325037E+02  0.18736957735E+01  0.49598904540E+01  0.14766047853E+02  0.51100000000E-03 0.  1.
        -12    1    3    3    0    0 -0.30402079144E+01  0.86772433784E+00 -0.11645020123E+02  0.12066577947E+02  0.00000000000E+00 0.  1.
</event>
<event>
 7    1  0.4237994E-013  0.5930195E+02  0.7816164E-02  0.1266605E+00
        -11   -1    0    0    0    0  0.00000000000E+00  0.00000000000E+00  0.45593999997E+02  0.45594000000E+02  0.51100000000E-03 0. -1.
         11   -1    0    0    0    0 -0.00000000000E+00 -0.00000000000E+00 -0.45593999997E+02  0.45594000000E+02  0.51100000000E-03 0.  1.
    9900012    2    1    2    0    0 -0.25502101417E+02  0.17425649815E+02 -0.79189326755E+01  0.59301953791E+02  0.50000017806E+02 0.  0.
         12    1    1    2    0    0  0.25502101417E+02 -0.17425649815E+02  0.79189326755E+01  0.31886046209E+02  0.00000000000E+00 0. -1.
         11    1    3    3    0    0 -0.23128314596E+02  0.56842794360E+01  0.15077165020E+02  0.28187778807E+02  0.51100000000E-03 0. -1.
        -11    1    3    3    0    0 -0.87187252200E+01  0.62015608820E+01 -0.63068323155E+01  0.12419809216E+02  0.51100000000E-03 0.  1.
         12    1    3    3    0    0  0.63449383996E+01  0.55398094969E+01 -0.16689265380E+02  0.18694365768E+02  0.00000000000E+00 0. -1.
</event>
<event>
 7    1  0.4237994E-013  0.5930193E+02  0.7816164E-02  0.1266605E+00
        -11   -1    0    0    0    0  0.00000000000E+00  0.00000000000E+00  0.45593999997E+02  0.45594000000E+02  0.51100000000E-03 0. -1.
         11   -1    0    0    0    0 -0.00000000000E+00 -0.00000000000E+00 -0.45593999997E+02  0.45594000000E+02  0.51100000000E-03 0.  1.
    9900012    2    1    2    0    0  0.26238698247E+00  0.21339068181E+02 -0.23691709316E+02  0.59301925169E+02  0.49999965606E+02 0.  0.
         12    1    1    2    0    0 -0.26238698247E+00 -0.21339068181E+02  0.23691709316E+02  0.31886074831E+02  0.00000000000E+00 0. -1.
         11    1    3    3    0    0 -0.15480309704E+02  0.14906094615E+02  0.50815122234E+01  0.22082875989E+02  0.51100000000E-03 0. -1.
        -11    1    3    3    0    0  0.89334759903E+01  0.11876538365E+02 -0.17228541993E+02  0.22752622184E+02  0.51100000000E-03 0.  1.
         12    1    3    3    0    0  0.68092206961E+01 -0.54435647978E+01 -0.11544679547E+02  0.14466426996E+02  0.00000000000E+00 0. -1.
</event>
<event>
 7    1  0.4237994E-013  0.5930194E+02  0.7816164E-02  0.1266605E+00
        -11   -1    0    0    0    0  0.00000000000E+00  0.00000000000E+00  0.45593999997E+02  0.45594000000E+02  0.51100000000E-03 0.  1.
         11   -1    0    0    0    0 -0.00000000000E+00 -0.00000000000E+00 -0.45593999997E+02  0.45594000000E+02  0.51100000000E-03 0. -1.
    9900012    2    1    2    0    0 -0.18448831230E+02 -0.25895285957E+02  0.24074217432E+01  0.59301938970E+02  0.49999990776E+02 0.  0.
         12    1    1    2    0    0  0.18448831230E+02  0.25895285957E+02 -0.24074217432E+01  0.31886061030E+02  0.00000000000E+00 0. -1.
         11    1    3    3    0    0 -0.16169343801E+02 -0.18450910851E+02 -0.15279055311E+02  0.28902133514E+02  0.51100000000E-03 0. -1.
        -11    1    3    3    0    0  0.98222311917E+01 -0.48161142444E+00  0.11492717448E+02  0.15125829886E+02  0.51100000000E-03 0.  1.
         12    1    3    3    0    0 -0.12101718621E+02 -0.69627636813E+01  0.61937596065E+01  0.15273975571E+02  0.00000000000E+00 0. -1.
</event>
<event>
 7    1  0.4237994E-013  0.5930198E+02  0.7816164E-02  0.1266605E+00
        -11   -1    0    0    0    0  0.00000000000E+00  0.00000000000E+00  0.45593999997E+02  0.45594000000E+02  0.51100000000E-03 0.  1.
         11   -1    0    0    0    0 -0.00000000000E+00 -0.00000000000E+00 -0.45593999997E+02  0.45594000000E+02  0.51100000000E-03 0. -1.
    9900012    2    1    2    0    0 -0.14141793181E+02  0.11394337922E+02  0.26208717690E+02  0.59301982155E+02  0.50000069535E+02 0.  0.
         12    1    1    2    0    0  0.14141793181E+02 -0.11394337922E+02 -0.26208717690E+02  0.31886017845E+02  0.00000000000E+00 0. -1.
         11    1    3    3    0    0 -0.13336295870E+02  0.22934255986E+02  0.15604838456E+02  0.30779016694E+02  0.51100000000E-03 0. -1.
        -11    1    3    3    0    0 -0.10902849906E+02 -0.90885580974E+01  0.11250677913E+02  0.18112199704E+02  0.51100000000E-03 0.  1.
         12    1    3    3    0    0  0.10097352595E+02 -0.24513599661E+01 -0.64679867907E+00  0.10410765757E+02  0.00000000000E+00 0. -1.
</event>
<event>
 7    1  0.4237994E-013  0.5930200E+02  0.7816164E-02  0.1266605E+00
        -11   -1    0    0    0    0  0.00000000000E+00  0.00000000000E+00  0.45593999997E+02  0.45594000000E+02  0.51100000000E-03 0. -1.
         11   -1    0    0    0    0 -0.00000000000E+00 -0.00000000000E+00 -0.45593999997E+02  0.45594000000E+02  0.51100000000E-03 0.  1.
    9900012    2    1    2    0    0 -0.19425734730E+02  0.32361993263E+01 -0.25077576672E+02  0.59301999818E+02  0.50000101748E+02 0.  0.
         12    1    1    2    0    0  0.19425734730E+02 -0.32361993263E+01  0.25077576672E+02  0.31886000182E+02  0.00000000000E+00 0. -1.
         11    1    3    3    0    0 -0.26091347248E+01  0.59627475790E+01 -0.31633172870E+02  0.32295813487E+02  0.51100000000E-03 0. -1.
        -11    1    3    3    0    0 -0.61021863999E+01 -0.10571609561E+02  0.21824601683E-01  0.12206395215E+02  0.51100000000E-03 0.  1.
         12    1    3    3    0    0 -0.10714413605E+02  0.78450613078E+01  0.65337715959E+01  0.14799791116E+02  0.00000000000E+00 0. -1.
</event>
<event>
 7    1  0.4237994E-013  0.5930195E+02  0.7816164E-02  0.1266605E+00
        -11   -1    0    0    0    0  0.00000000000E+00  0.00000000000E+00  0.45593999997E+02  0.45594000000E+02  0.51100000000E-03 0.  1.
         11   -1    0    0    0    0 -0.00000000000E+00 -0.00000000000E+00 -0.45593999997E+02  0.45594000000E+02  0.51100000000E-03 0. -1.
    9900012    2    1    2    0    0  0.17981690833E+02 -0.12206017147E+01  0.26303779934E+02  0.59301954266E+02  0.50000018672E+02 0.  0.
         12    1    1    2    0    0 -0.17981690833E+02  0.12206017147E+01 -0.26303779934E+02  0.31886045734E+02  0.00000000000E+00 0. -1.
         11    1    3    3    0    0  0.19810559531E+00  0.12567848603E+02 -0.74561206687E+01  0.14614506492E+02  0.51100000000E-03 0. -1.
        -11    1    3    3    0    0  0.71157815496E+01 -0.16679213764E+02  0.22670544559E+02  0.29030744216E+02  0.51100000000E-03 0.  1.
         12    1    3    3    0    0  0.10667803688E+02  0.28907634470E+01  0.11089356043E+02  0.15656703557E+02  0.00000000000E+00 0. -1.
</event>
<event>
 7    1  0.4237994E-013  0.5930193E+02  0.7816164E-02  0.1266605E+00
        -11   -1    0    0    0    0  0.00000000000E+00  0.00000000000E+00  0.45593999997E+02  0.45594000000E+02  0.51100000000E-03 0.  1.
         11   -1    0    0    0    0 -0.00000000000E+00 -0.00000000000E+00 -0.45593999997E+02  0.45594000000E+02  0.51100000000E-03 0. -1.
    9900012    2    1    2    0    0  0.19340170759E+02 -0.10341953650E+02  0.23145698146E+02  0.59301928543E+02  0.49999971760E+02 0.  0.
         12    1    1    2    0    0 -0.19340170759E+02  0.10341953650E+02 -0.23145698146E+02  0.31886071457E+02  0.00000000000E+00 0. -1.
         11    1    3    3    0    0  0.13444325750E+02 -0.65468026719E+01 -0.35895583939E+01  0.15378408560E+02  0.51100000000E-03 0. -1.
        -11    1    3    3    0    0  0.40435010014E+01 -0.85192703190E+01  0.33875660074E+02  0.35163734341E+02  0.51100000000E-03 0.  1.
        -12    1    3    3    0    0  0.18523440072E+01  0.47241193414E+01 -0.71404035336E+01  0.87597856421E+01  0.00000000000E+00 0.  1.
</event>
<event>
 7    1  0.4237994E-013  0.5930194E+02  0.7816164E-02  0.1266605E+00
        -11   -1    0    0    0    0  0.00000000000E+00  0.00000000000E+00  0.45593999997E+02  0.45594000000E+02  0.51100000000E-03 0.  1.
         11   -1    0    0    0    0 -0.00000000000E+00 -0.00000000000E+00 -0.45593999997E+02  0.45594000000E+02  0.51100000000E-03 0. -1.
    9900012    2    1    2    0    0 -0.14928090833E+02  0.37924941325E+01  0.27919352298E+02  0.59301935012E+02  0.49999983558E+02 0.  0.
         12    1    1    2    0    0  0.14928090833E+02 -0.37924941325E+01 -0.27919352298E+02  0.31886064988E+02  0.00000000000E+00 0. -1.
         11    1    3    3    0    0 -0.19756782111E+02  0.10182043786E+02  0.10700453398E+02  0.24667877052E+02  0.51100000000E-03 0. -1.
        -11    1    3    3    0    0  0.86562231233E+01 -0.10480164465E+00 -0.58313656030E+01  0.10437720403E+02  0.51100000000E-03 0.  1.
        -12    1    3    3    0    0 -0.38275318445E+01 -0.62847480087E+01  0.23050264503E+02  0.24196337558E+02  0.00000000000E+00 0.  1.
</event>
<event>
 7    1  0.4237994E-013  0.5930192E+02  0.7816164E-02  0.1266605E+00
        -11   -1    0    0    0    0  0.00000000000E+00  0.00000000000E+00  0.45593999997E+02  0.45594000000E+02  0.51100000000E-03 0.  1.
         11   -1    0    0    0    0 -0.00000000000E+00 -0.00000000000E+00 -0.45593999997E+02  0.45594000000E+02  0.51100000000E-03 0. -1.
    9900012    2    1    2    0    0  0.19136623491E+02  0.10645149844E+02  0.23177411647E+02  0.59301921776E+02  0.49999959417E+02 0.  0.
         12    1    1    2    0    0 -0.19136623491E+02 -0.10645149844E+02 -0.23177411647E+02  0.31886078224E+02  0.00000000000E+00 0. -1.
         11    1    3    3    0    0  0.17081647579E+02  0.13614926266E+01  0.23916462223E+02  0.29421650391E+02  0.51100000000E-03 0. -1.
        -11    1    3    3    0    0 -0.77177566177E+01 -0.71897060435E+01  0.12573317001E+01  0.10622453740E+02  0.51100000000E-03 0.  1.
         12    1    3    3    0    0  0.97727325301E+01  0.16473363261E+02 -0.19963822755E+01  0.19257817645E+02  0.00000000000E+00 0. -1.
</event>
<event>
 7    1  0.4237994E-013  0.5930194E+02  0.7816164E-02  0.1266605E+00
        -11   -1    0    0    0    0  0.00000000000E+00  0.00000000000E+00  0.45593999997E+02  0.45594000000E+02  0.51100000000E-03 0.  1.
         11   -1    0    0    0    0 -0.00000000000E+00 -0.00000000000E+00 -0.45593999997E+02  0.45594000000E+02  0.51100000000E-03 0. -1.
    9900012    2    1    2    0    0  0.99824455834E+01 -0.29633642794E+02  0.62385129329E+01  0.59301936450E+02  0.49999986180E+02 0.  0.
         12    1    1    2    0    0 -0.99824455834E+01  0.29633642794E+02 -0.62385129329E+01  0.31886063550E+02  0.00000000000E+00 0. -1.
         11    1    3    3    0    0 -0.50641784490E+01 -0.22128053316E+02 -0.13403329565E+02  0.26361826389E+02  0.51100000000E-03 0. -1.
        -11    1    3    3    0    0  0.49792897638E+01 -0.79042710073E+01  0.20797061456E+02  0.22798872608E+02  0.51100000000E-03 0.  1.
        -12    1    3    3    0    0  0.10067334269E+02  0.39868152850E+00 -0.11552189587E+01  0.10141237453E+02  0.00000000000E+00 0.  1.
</event>
<event>
 7    1  0.4237994E-013  0.5930194E+02  0.7816164E-02  0.1266605E+00
        -11   -1    0    0    0    0  0.00000000000E+00  0.00000000000E+00  0.45593999997E+02  0.45594000000E+02  0.51100000000E-03 0.  1.
         11   -1    0    0    0    0 -0.00000000000E+00 -0.00000000000E+00 -0.45593999997E+02  0.45594000000E+02  0.51100000000E-03 0. -1.
    9900012    2    1    2    0    0  0.95947866122E+01  0.27255205192E+02  0.13483864050E+02  0.59301941449E+02  0.49999995298E+02 0.  0.
         12    1    1    2    0    0 -0.95947866122E+01 -0.27255205192E+02 -0.13483864050E+02  0.31886058551E+02  0.00000000000E+00 0. -1.
         11    1    3    3    0    0 -0.17325823136E+02  0.98257400745E+01 -0.11955968214E+01  0.19953916091E+02  0.51100000000E-03 0. -1.
        -11    1    3    3    0    0  0.97692592256E+01  0.16649934410E+02  0.86140790262E+01  0.21139089370E+02  0.51100000000E-03 0.  1.
         12    1    3    3    0    0  0.17151350523E+02  0.77953070716E+00  0.60653818454E+01  0.18208935988E+02  0.00000000000E+00 0. -1.
</event>
<event>
 7    1  0.4237994E-013  0.5930193E+02  0.7816164E-02  0.1266605E+00
        -11   -1    0    0    0    0  0.00000000000E+00  0.00000000000E+00  0.45593999997E+02  0.45594000000E+02  0.51100000000E-03 0. -1.
         11   -1    0    0    0    0 -0.00000000000E+00 -0.00000000000E+00 -0.45593999997E+02  0.45594000000E+02  0.51100000000E-03 0.  1.
    9900012    2    1    2    0    0  0.15789119595E+01 -0.32205452202E+01 -0.31683698939E+02  0.59301926975E+02  0.49999968900E+02 0.  0.
         12    1    1    2    0    0 -0.15789119595E+01  0.32205452202E+01  0.31683698939E+02  0.31886073025E+02  0.00000000000E+00 0. -1.
         11    1    3    3    0    0  0.72943046169E+00  0.81152258776E+01  0.46393243883E+00  0.81611392226E+01  0.51100000000E-03 0. -1.
        -11    1    3    3    0    0 -0.76038415185E+01 -0.10755189756E+02 -0.38409249889E+02  0.40604962626E+02  0.51100000000E-03 0.  1.
        -12    1    3    3    0    0  0.84533230163E+01 -0.58058134136E+00  0.62616185114E+01  0.10535825126E+02  0.00000000000E+00 0.  1.
</event>
<event>
 7    1  0.4237994E-013  0.5930196E+02  0.7816164E-02  0.1266605E+00
        -11   -1    0    0    0    0  0.00000000000E+00  0.00000000000E+00  0.45593999997E+02  0.45594000000E+02  0.51100000000E-03 0.  1.
         11   -1    0    0    0    0 -0.00000000000E+00 -0.00000000000E+00 -0.45593999997E+02  0.45594000000E+02  0.51100000000E-03 0. -1.
    9900012    2    1    2    0    0  0.10414509799E+02  0.27413168168E+02  0.12521022611E+02  0.59301955865E+02  0.50000021588E+02 0.  0.
         12    1    1    2    0    0 -0.10414509799E+02 -0.27413168168E+02 -0.12521022611E+02  0.31886044135E+02  0.00000000000E+00 0. -1.
         11    1    3    3    0    0  0.14160377927E+02  0.15654402164E+02 -0.13045639733E+02  0.24814619208E+02  0.51100000000E-03 0. -1.
        -11    1    3    3    0    0 -0.19566595340E+01 -0.49986577355E+01  0.10884009940E+02  0.12135764019E+02  0.51100000000E-03 0.  1.
         12    1    3    3    0    0 -0.17892085945E+01  0.16757423739E+02  0.14682652404E+02  0.22351572638E+02  0.00000000000E+00 0. -1.
</event>
<event>
 7    1  0.4237994E-013  0.5930194E+02  0.7816164E-02  0.1266605E+00
        -11   -1    0    0    0    0  0.00000000000E+00  0.00000000000E+00  0.45593999997E+02  0.45594000000E+02  0.51100000000E-03 0.  1.
         11   -1    0    0    0    0 -0.00000000000E+00 -0.00000000000E+00 -0.45593999997E+02  0.45594000000E+02  0.51100000000E-03 0. -1.
    9900012    2    1    2    0    0  0.23151401811E+02  0.21181757166E+01  0.21823075810E+02  0.59301941730E+02  0.49999995810E+02 0.  0.
         12    1    1    2    0    0 -0.23151401811E+02 -0.21181757166E+01 -0.21823075810E+02  0.31886058270E+02  0.00000000000E+00 0. -1.
         11    1    3    3    0    0 -0.11814561230E+02 -0.54023639383E+01  0.26646584377E+01  0.13261591082E+02  0.51100000000E-03 0. -1.
        -11    1    3    3    0    0  0.19422010709E+02  0.11817999308E+02  0.25288796435E+01  0.22875201423E+02  0.51100000000E-03 0.  1.
        -12    1    3    3    0    0  0.15543952332E+02 -0.42974596533E+01  0.16629537729E+02  0.23165149225E+02  0.00000000000E+00 0.  1.
</event>
<event>
 7    1  0.4237994E-013  0.5930193E+02  0.7816164E-02  0.1266605E+00
        -11   -1    0    0    0    0  0.00000000000E+00  0.00000000000E+00  0.45593999997E+02  0.45594000000E+02  0.51100000000E-03 0.  1.
         11   -1    0    0    0    0 -0.00000000000E+00 -0.00000000000E+00 -0.45593999997E+02  0.45594000000E+02  0.51100000000E-03 0. -1.
    9900012    2    1    2    0    0  0.21973911745E+02  0.33651728071E+01  0.22859228576E+02  0.59301929115E+02  0.49999972802E+02 0.  0.
         12    1    1    2    0    0 -0.21973911745E+02 -0.33651728071E+01 -0.22859228576E+02  0.31886070885E+02  0.00000000000E+00 0. -1.
         11    1    3    3    0    0  0.12694206726E+02 -0.24617215917E+01  0.10895644210E+02  0.16909110580E+02  0.51100000000E-03 0. -1.
        -11    1    3    3    0    0 -0.11869905746E+02  0.13022764125E+02  0.92131685748E+01  0.19883901109E+02  0.51100000000E-03 0.  1.
        -12    1    3    3    0    0  0.21149610765E+02 -0.71958697261E+01  0.27504157910E+01  0.22508917425E+02  0.00000000000E+00 0.  1.
</event>
<event>
 7    1  0.4237994E-013  0.5930193E+02  0.7816164E-02  0.1266605E+00
        -11   -1    0    0    0    0  0.00000000000E+00  0.00000000000E+00  0.45593999997E+02  0.45594000000E+02  0.51100000000E-03 0.  1.
         11   -1    0    0    0    0 -0.00000000000E+00 -0.00000000000E+00 -0.45593999997E+02  0.45594000000E+02  0.51100000000E-03 0. -1.
    9900012    2    1    2    0    0 -0.12764634555E+02  0.28986539386E+02  0.36831944311E+01  0.59301932790E+02  0.49999979505E+02 0.  0.
         12    1    1    2    0    0  0.12764634555E+02 -0.28986539386E+02 -0.36831944311E+01  0.31886067210E+02  0.00000000000E+00 0. -1.
         11    1    3    3    0    0 -0.77041716470E+01 -0.51056626520E+01  0.39834730312E+01  0.10064298760E+02  0.51100000000E-03 0. -1.
        -11    1    3    3    0    0  0.11922796964E+02  0.18706738660E+02  0.97291789116E+01  0.24222965989E+02  0.51100000000E-03 0.  1.
        -12    1    3    3    0    0 -0.16983259872E+02  0.15385463378E+02 -0.10029457512E+02  0.25014668041E+02  0.00000000000E+00 0.  1.
</event>
<event>
 7    1  0.4237994E-013  0.5930198E+02  0.7816164E-02  0.1266605E+00
        -11   -1    0    0    0    0  0.00000000000E+00  0.00000000000E+00  0.45593999997E+02  0.45594000000E+02  0.51100000000E-03 0.  1.
         11   -1    0    0    0    0 -0.00000000000E+00 -0.00000000000E+00 -0.45593999997E+02  0.45594000000E+02  0.51100000000E-03 0. -1.
    9900012    2    1    2    0    0  0.29885944681E+01  0.31501951854E+02  0.39260509123E+01  0.59301975737E+02  0.50000057831E+02 0.  0.
         12    1    1    2    0    0 -0.29885944681E+01 -0.31501951854E+02 -0.39260509123E+01  0.31886024263E+02  0.00000000000E+00 0. -1.
         11    1    3    3    0    0  0.22684168580E+02  0.58669923571E+01  0.44296687376E+01  0.23845650942E+02  0.51100000000E-03 0. -1.
        -11    1    3    3    0    0 -0.11559185515E+02  0.22989257753E+02  0.35737537544E+01  0.25978692384E+02  0.51100000000E-03 0.  1.
         12    1    3    3    0    0 -0.81363885973E+01  0.26457017435E+01 -0.40773715798E+01  0.94776324111E+01  0.00000000000E+00 0. -1.
</event>
<event>
 7    1  0.4237994E-013  0.5930193E+02  0.7816164E-02  0.1266605E+00
        -11   -1    0    0    0    0  0.00000000000E+00  0.00000000000E+00  0.45593999997E+02  0.45594000000E+02  0.51100000000E-03 0.  1.
         11   -1    0    0    0    0 -0.00000000000E+00 -0.00000000000E+00 -0.45593999997E+02  0.45594000000E+02  0.51100000000E-03 0. -1.
    9900012    2    1    2    0    0  0.72903573635E+01  0.14315128201E+02  0.27543589006E+02  0.59301929354E+02  0.49999973239E+02 0.  0.
         12    1    1    2    0    0 -0.72903573635E+01 -0.14315128201E+02 -0.27543589006E+02  0.31886070646E+02  0.00000000000E+00 0. -1.
         11    1    3    3    0    0  0.85981846127E+01 -0.89558715428E+01 -0.60793859992E+01  0.13823724104E+02  0.51100000000E-03 0. -1.
        -11    1    3    3    0    0 -0.75124490667E+01  0.18729953961E+02  0.14448256378E+02  0.24819350897E+02  0.51100000000E-03 0.  1.
         12    1    3    3    0    0  0.62046218175E+01  0.45410457833E+01  0.19174718628E+02  0.20658854352E+02  0.00000000000E+00 0. -1.
</event>
<event>
 7    1  0.4237994E-013  0.5930188E+02  0.7816164E-02  0.1266605E+00
        -11   -1    0    0    0    0  0.00000000000E+00  0.00000000000E+00  0.45593999997E+02  0.45594000000E+02  0.51100000000E-03 0.  1.
         11   -1    0    0    0    0 -0.00000000000E+00 -0.00000000000E+00 -0.45593999997E+02  0.45594000000E+02  0.51100000000E-03 0. -1.
    9900012    2    1    2    0    0 -0.27193406184E+02  0.13331318995E+02  0.99759348821E+01  0.59301879464E+02  0.49999882252E+02 0.  0.
         12    1    1    2    0    0  0.27193406184E+02 -0.13331318995E+02 -0.99759348821E+01  0.31886120536E+02  0.00000000000E+00 0. -1.
         11    1    3    3    0    0 -0.14386990150E+02  0.14556607934E+02 -0.16524012947E+02  0.26304435448E+02  0.51100000000E-03 0. -1.
        -11    1    3    3    0    0 -0.93370262837E+01 -0.42464090873E+01  0.26479739413E+02  0.28396983108E+02  0.51100000000E-03 0.  1.
         12    1    3    3    0    0 -0.34693897509E+01  0.30211201478E+01  0.20208415407E-01  0.46004609085E+01  0.00000000000E+00 0. -1.
</event>
<event>
 7    1  0.4237994E-013  0.5930188E+02  0.7816164E-02  0.1266605E+00
        -11   -1    0    0    0    0  0.00000000000E+00  0.00000000000E+00  0.45593999997E+02  0.45594000000E+02  0.51100000000E-03 0. -1.
         11   -1    0    0    0    0 -0.00000000000E+00 -0.00000000000E+00 -0.45593999997E+02  0.45594000000E+02  0.51100000000E-03 0.  1.
    9900012    2    1    2    0    0  0.25347826552E+02  0.18803853276E+02 -0.45417107607E+01  0.59301884753E+02  0.49999891896E+02 0.  0.
         12    1    1    2    0    0 -0.25347826552E+02 -0.18803853276E+02  0.45417107607E+01  0.31886115247E+02  0.00000000000E+00 0. -1.
         11    1    3    3    0    0  0.97959092226E+01 -0.53779814907E+01  0.15802091240E+02  0.19354291778E+02  0.51100000000E-03 0. -1.
        -11    1    3    3    0    0  0.11803180139E+02  0.16486142222E+02 -0.28544837529E+01  0.20475742343E+02  0.51100000000E-03 0.  1.
        -12    1    3    3    0    0  0.37487371903E+01  0.76956925449E+01 -0.17489318247E+02  0.19471850632E+02  0.00000000000E+00 0.  1.
</event>
<event>
 7    1  0.4237994E-013  0.5930210E+02  0.7816164E-02  0.1266604E+00
        -11   -1    0    0    0    0  0.00000000000E+00  0.00000000000E+00  0.45593999997E+02  0.45594000000E+02  0.51100000000E-03 0.  1.
         11   -1    0    0    0    0 -0.00000000000E+00 -0.00000000000E+00 -0.45593999997E+02  0.45594000000E+02  0.51100000000E-03 0. -1.
    9900012    2    1    2    0    0  0.46903341710E+01 -0.14488781780E+02  0.28014041124E+02  0.59302101358E+02  0.50000286932E+02 0.  0.
         12    1    1    2    0    0 -0.46903341710E+01  0.14488781780E+02 -0.28014041124E+02  0.31885898642E+02  0.00000000000E+00 0. -1.
         11    1    3    3    0    0 -0.42156517615E+01 -0.24412557902E+01 -0.86709710374E+00  0.49480609592E+01  0.51100000000E-03 0. -1.
        -11    1    3    3    0    0  0.16604421048E+02  0.71833633286E+01  0.28352302717E+02  0.33632730734E+02  0.51100000000E-03 0.  1.
        -12    1    3    3    0    0 -0.76984351153E+01 -0.19230889319E+02  0.52883551083E+00  0.20721309665E+02  0.00000000000E+00 0.  1.
</event>
<event>
 7    1  0.4237994E-013  0.5930198E+02  0.7816164E-02  0.1266605E+00
        -11   -1    0    0    0    0  0.00000000000E+00  0.00000000000E+00  0.45593999997E+02  0.45594000000E+02  0.51100000000E-03 0.  1.
         11   -1    0    0    0    0 -0.00000000000E+00 -0.00000000000E+00 -0.45593999997E+02  0.45594000000E+02  0.51100000000E-03 0. -1.
    9900012    2    1    2    0    0 -0.42220144697E+01  0.24550178121E+02  0.19904319013E+02  0.59301975360E+02  0.50000057143E+02 0.  0.
         12    1    1    2    0    0  0.42220144697E+01 -0.24550178121E+02 -0.19904319013E+02  0.31886024640E+02  0.00000000000E+00 0. -1.
         11    1    3    3    0    0  0.96908646995E+01  0.42301579598E+01 -0.22100329501E+01  0.10802376632E+02  0.51100000000E-03 0. -1.
        -11    1    3    3    0    0 -0.20669684037E+02  0.32201861417E+01  0.16428954140E+01  0.20983434956E+02  0.51100000000E-03 0.  1.
        -12    1    3    3    0    0  0.67568048677E+01  0.17099834019E+02  0.20471456549E+02  0.27516163772E+02  0.00000000000E+00 0.  1.
</event>
<event>
 7    1  0.4237994E-013  0.5930194E+02  0.7816164E-02  0.1266605E+00
        -11   -1    0    0    0    0  0.00000000000E+00  0.00000000000E+00  0.45593999997E+02  0.45594000000E+02  0.51100000000E-03 0.  1.
         11   -1    0    0    0    0 -0.00000000000E+00 -0.00000000000E+00 -0.45593999997E+02  0.45594000000E+02  0.51100000000E-03 0. -1.
    9900012    2    1    2    0    0 -0.83735398358E+01  0.87275745421E+01  0.29503119303E+02  0.59301940736E+02  0.49999993996E+02 0.  0.
         12    1    1    2    0    0  0.83735398358E+01 -0.87275745421E+01 -0.29503119303E+02  0.31886059264E+02  0.00000000000E+00 0. -1.
         11    1    3    3    0    0  0.21099227426E+01  0.49016971031E+01 -0.10770649476E+02  0.12020203778E+02  0.51100000000E-03 0. -1.
        -11    1    3    3    0    0  0.32080849398E+01  0.42816800202E+01  0.29144789366E+02  0.29631796102E+02  0.51100000000E-03 0.  1.
         12    1    3    3    0    0 -0.13691547518E+02 -0.45580258116E+00  0.11128979413E+02  0.17649940856E+02  0.00000000000E+00 0. -1.
</event>
<event>
 7    1  0.4237994E-013  0.5930195E+02  0.7816164E-02  0.1266605E+00
        -11   -1    0    0    0    0  0.00000000000E+00  0.00000000000E+00  0.45593999997E+02  0.45594000000E+02  0.51100000000E-03 0. -1.
         11   -1    0    0    0    0 -0.00000000000E+00 -0.00000000000E+00 -0.45593999997E+02  0.45594000000E+02  0.51100000000E-03 0.  1.
    9900012    2    1    2    0    0  0.12587852149E+02 -0.12565735375E+02 -0.26464477231E+02  0.59301948467E+02  0.50000008097E+02 0.  0.
         12    1    1    2    0    0 -0.12587852149E+02  0.12565735375E+02  0.26464477231E+02  0.31886051533E+02  0.00000000000E+00 0. -1.
         11    1    3    3    0    0 -0.45822363434E+01 -0.22637748311E+01  0.11573728537E+02  0.12651986362E+02  0.51100000000E-03 0. -1.
        -11    1    3    3    0    0  0.61460848574E+01  0.39995584183E+01 -0.46247821832E+01  0.86694542573E+01  0.51100000000E-03 0.  1.
         12    1    3    3    0    0  0.11024003635E+02 -0.14301518962E+02 -0.33413423585E+02  0.37980507848E+02  0.00000000000E+00 0. -1.
</event>
<event>
 7    1  0.4237994E-013  0.5930197E+02  0.7816164E-02  0.1266605E+00
        -11   -1    0    0    0    0  0.00000000000E+00  0.00000000000E+00  0.45593999997E+02  0.45594000000E+02  0.51100000000E-03 0.  1.
         11   -1    0    0    0    0 -0.00000000000E+00 -0.00000000000E+00 -0.45593999997E+02  0.45594000000E+02  0.51100000000E-03 0. -1.
    9900012    2    1    2    0    0 -0.36925631630E+01 -0.29939196272E+02  0.10330937024E+02  0.59301972403E+02  0.50000051749E+02 0.  0.
         12    1    1    2    0    0  0.36925631630E+01  0.29939196272E+02 -0.10330937024E+02  0.31886027597E+02  0.00000000000E+00 0. -1.
         11    1    3    3    0    0 -0.13025138287E+02 -0.33607599183E+01 -0.18394643379E+01  0.13576912901E+02  0.51100000000E-03 0. -1.
        -11    1    3    3    0    0  0.18410269522E+02 -0.50654082923E+01 -0.61437595754E+00  0.19104288606E+02  0.51100000000E-03 0.  1.
        -12    1    3    3    0    0 -0.90776943987E+01 -0.21513028062E+02  0.12784777319E+02  0.26620770896E+02  0.00000000000E+00 0.  1.
</event>
<event>
 7    1  0.4237994E-013  0.5930189E+02  0.7816164E-02  0.1266605E+00
        -11   -1    0    0    0    0  0.00000000000E+00  0.00000000000E+00  0.45593999997E+02  0.45594000000E+02  0.51100000000E-03 0.  1.
         11   -1    0    0    0    0 -0.00000000000E+00 -0.00000000000E+00 -0.45593999997E+02  0.45594000000E+02  0.51100000000E-03 0. -1.
    9900012    2    1    2    0    0 -0.67758281453E+01  0.30105207072E+02 -0.80304890079E+01  0.59301888704E+02  0.49999899102E+02 0.  0.
         12    1    1    2    0    0  0.67758281453E+01 -0.30105207072E+02  0.80304890079E+01  0.31886111296E+02  0.00000000000E+00 0. -1.
         11    1    3    3    0    0 -0.72261968853E+01  0.79308402191E+01 -0.20384217254E+02  0.23035460953E+02  0.51100000000E-03 0. -1.
        -11    1    3    3    0    0  0.13078183892E+01  0.27765172950E+02  0.12782059638E+02  0.30594056069E+02  0.51100000000E-03 0.  1.
        -12    1    3    3    0    0 -0.85744964926E+00 -0.55908060976E+01 -0.42833139188E+00  0.56723716824E+01  0.00000000000E+00 0.  1.
</event>
<event>
 7    1  0.4237994E-013  0.5930193E+02  0.7816164E-02  0.1266605E+00
        -11   -1    0    0    0    0  0.00000000000E+00  0.00000000000E+00  0.45593999997E+02  0.45594000000E+02  0.51100000000E-03 0. -1.
         11   -1    0    0    0    0 -0.00000000000E+00 -0.00000000000E+00 -0.45593999997E+02  0.45594000000E+02  0.51100000000E-03 0.  1.
    9900012    2    1    2    0    0  0.15034094477E+02 -0.92250828656E+01 -0.26563043073E+02  0.59301930817E+02  0.49999975908E+02 0.  0.
         12    1    1    2    0    0 -0.15034094477E+02  0.92250828656E+01  0.26563043073E+02  0.31886069183E+02  0.00000000000E+00 0. -1.
         11    1    3    3    0    0  0.14929964398E+02  0.11125941967E+02  0.60926057076E+01  0.19591076186E+02  0.51100000000E-03 0. -1.
        -11    1    3    3    0    0  0.31627607111E+01 -0.59754482809E+01 -0.16705312223E+02  0.18021556375E+02  0.51100000000E-03 0.  1.
         12    1    3    3    0    0 -0.30586306321E+01 -0.14375576551E+02 -0.15950336558E+02  0.21689298256E+02  0.00000000000E+00 0. -1.
</event>
<event>
 7    1  0.4237994E-013  0.5930194E+02  0.7816164E-02  0.1266605E+00
        -11   -1    0    0    0    0  0.00000000000E+00  0.00000000000E+00  0.45593999997E+02  0.45594000000E+02  0.51100000000E-03 0.  1.
         11   -1    0    0    0    0 -0.00000000000E+00 -0.00000000000E+00 -0.45593999997E+02  0.45594000000E+02  0.51100000000E-03 0. -1.
    9900012    2    1    2    0    0 -0.25030929760E+02  0.19280465116E+02  0.42938563984E+01  0.59301937488E+02  0.49999988073E+02 0.  0.
         12    1    1    2    0    0  0.25030929760E+02 -0.19280465116E+02 -0.42938563984E+01  0.31886062512E+02  0.00000000000E+00 0. -1.
         11    1    3    3    0    0 -0.11787412316E+02  0.22342145547E+01 -0.14843049171E+02  0.19085358596E+02  0.51100000000E-03 0. -1.
        -11    1    3    3    0    0 -0.70762384470E+01  0.21979179343E+02  0.21925239594E+02  0.31841381985E+02  0.51100000000E-03 0.  1.
        -12    1    3    3    0    0 -0.61672789969E+01 -0.49329287820E+01 -0.27883340252E+01  0.83751969069E+01  0.00000000000E+00 0.  1.
</event>
<event>
 7    1  0.4237994E-013  0.5930205E+02  0.7816164E-02  0.1266604E+00
        -11   -1    0    0    0    0  0.00000000000E+00  0.00000000000E+00  0.45593999997E+02  0.45594000000E+02  0.51100000000E-03 0.  1.
         11   -1    0    0    0    0 -0.00000000000E+00 -0.00000000000E+00 -0.45593999997E+02  0.45594000000E+02  0.51100000000E-03 0. -1.
    9900012    2    1    2    0    0 -0.14930488226E+02 -0.17262625359E+02 -0.22266483290E+02  0.59302047120E+02  0.50000188016E+02 0.  0.
         12    1    1    2    0    0  0.14930488226E+02  0.17262625359E+02  0.22266483290E+02  0.31885952880E+02  0.00000000000E+00 0. -1.
         11    1    3    3    0    0  0.57499697268E+01  0.25899611506E+01 -0.21088986421E+02  0.22011710500E+02  0.51100000000E-03 0. -1.
        -11    1    3    3    0    0 -0.20289796761E+02 -0.33880072724E+01 -0.27167811158E+01  0.20749345670E+02  0.51100000000E-03 0.  1.
         12    1    3    3    0    0 -0.39066119262E+00 -0.16464579237E+02  0.15392842464E+01  0.16540990950E+02  0.00000000000E+00 0. -1.
</event>
<event>
 7    1  0.4237994E-013  0.5930195E+02  0.7816164E-02  0.1266605E+00
        -11   -1    0    0    0    0  0.00000000000E+00  0.00000000000E+00  0.45593999997E+02  0.45594000000E+02  0.51100000000E-03 0. -1.
         11   -1    0    0    0    0 -0.00000000000E+00 -0.00000000000E+00 -0.45593999997E+02  0.45594000000E+02  0.51100000000E-03 0.  1.
    9900012    2    1    2    0    0 -0.24069517519E+02 -0.19830513854E+02 -0.66429956665E+01  0.59301947489E+02  0.50000006313E+02 0.  0.
         12    1    1    2    0    0  0.24069517519E+02  0.19830513854E+02  0.66429956665E+01  0.31886052511E+02  0.00000000000E+00 0. -1.
         11    1    3    3    0    0 -0.27594903983E+01 -0.58069459538E+01  0.98985134190E+01  0.11803218914E+02  0.51100000000E-03 0. -1.
        -11    1    3    3    0    0 -0.34345938946E+01 -0.17689136761E+01 -0.24204697948E+02  0.24511076962E+02  0.51100000000E-03 0.  1.
        -12    1    3    3    0    0 -0.17875433226E+02 -0.12254654224E+02  0.76631888623E+01  0.22987651613E+02  0.00000000000E+00 0.  1.
</event>
<event>
 7    1  0.4237994E-013  0.5930189E+02  0.7816164E-02  0.1266605E+00
        -11   -1    0    0    0    0  0.00000000000E+00  0.00000000000E+00  0.45593999997E+02  0.45594000000E+02  0.51100000000E-03 0. -1.
         11   -1    0    0    0    0 -0.00000000000E+00 -0.00000000000E+00 -0.45593999997E+02  0.45594000000E+02  0.51100000000E-03 0.  1.
    9900012    2    1    2    0    0 -0.18450518290E+02 -0.25046932369E+02  0.69967044613E+01  0.59301885160E+02  0.49999892640E+02 0.  0.
         12    1    1    2    0    0  0.18450518290E+02  0.25046932369E+02 -0.69967044613E+01  0.31886114840E+02  0.00000000000E+00 0. -1.
         11    1    3    3    0    0  0.13025514104E+02  0.10853598726E+01  0.97634624704E+01  0.16314632187E+02  0.51100000000E-03 0. -1.
        -11    1    3    3    0    0 -0.19431181016E+02 -0.85919746620E+01  0.14511382956E+01  0.21295507199E+02  0.51100000000E-03 0.  1.
         12    1    3    3    0    0 -0.12044851378E+02 -0.17540317579E+02 -0.42178963048E+01  0.21691745774E+02  0.00000000000E+00 0. -1.
</event>
<event>
 7    1  0.4237994E-013  0.5930196E+02  0.7816164E-02  0.1266605E+00
        -11   -1    0    0    0    0  0.00000000000E+00  0.00000000000E+00  0.45593999997E+02  0.45594000000E+02  0.51100000000E-03 0. -1.
         11   -1    0    0    0    0 -0.00000000000E+00 -0.00000000000E+00 -0.45593999997E+02  0.45594000000E+02  0.51100000000E-03 0.  1.
    9900012    2    1    2    0    0 -0.28194251042E+02  0.12354421765E+02 -0.83169803304E+01  0.59301957743E+02  0.50000025014E+02 0.  0.
         12    1    1    2    0    0  0.28194251042E+02 -0.12354421765E+02  0.83169803304E+01  0.31886042257E+02  0.00000000000E+00 0. -1.
         11    1    3    3    0    0 -0.26894552468E+02  0.19931318264E+02 -0.14026923826E+02  0.36295027104E+02  0.51100000000E-03 0. -1.
        -11    1    3    3    0    0  0.25569815552E+01  0.22443781192E+01 -0.62142723282E+01  0.70846713859E+01  0.51100000000E-03 0.  1.
         12    1    3    3    0    0 -0.38566801296E+01 -0.98212746181E+01  0.11924215823E+02  0.15922259254E+02  0.00000000000E+00 0. -1.
</event>
<event>
 7    1  0.4237994E-013  0.5930194E+02  0.7816164E-02  0.1266605E+00
        -11   -1    0    0    0    0  0.00000000000E+00  0.00000000000E+00  0.45593999997E+02  0.45594000000E+02  0.51100000000E-03 0.  1.
         11   -1    0    0    0    0 -0.00000000000E+00 -0.00000000000E+00 -0.45593999997E+02  0.45594000000E+02  0.51100000000E-03 0. -1.
    9900012    2    1    2    0    0  0.11404840260E+02  0.22145875780E+02  0.19905035708E+02  0.59301942828E+02  0.49999997813E+02 0.  0.
         12    1    1    2    0    0 -0.11404840260E+02 -0.22145875780E+02 -0.19905035708E+02  0.31886057172E+02  0.00000000000E+00 0. -1.
         11    1    3    3    0    0  0.11186111402E+02 -0.54926084518E+01  0.11244809363E+02  0.16785218908E+02  0.51100000000E-03 0. -1.
        -11    1    3    3    0    0 -0.44707794002E+01  0.28361438251E+02 -0.40070626259E+01  0.28989922374E+02  0.51100000000E-03 0.  1.
        -12    1    3    3    0    0  0.46895082581E+01 -0.72295401933E+00  0.12667288970E+02  0.13526801546E+02  0.00000000000E+00 0.  1.
</event>
<event>
 7    1  0.4237994E-013  0.5930191E+02  0.7816164E-02  0.1266605E+00
        -11   -1    0    0    0    0  0.00000000000E+00  0.00000000000E+00  0.45593999997E+02  0.45594000000E+02  0.51100000000E-03 0.  1.
         11   -1    0    0    0    0 -0.00000000000E+00 -0.00000000000E+00 -0.45593999997E+02  0.45594000000E+02  0.51100000000E-03 0. -1.
    9900012    2    1    2    0    0 -0.15065742023E+02  0.20485655417E+02  0.19237569177E+02  0.59301910111E+02  0.49999938145E+02 0.  0.
         12    1    1    2    0    0  0.15065742023E+02 -0.20485655417E+02 -0.19237569177E+02  0.31886089889E+02  0.00000000000E+00 0. -1.
         11    1    3    3    0    0  0.13395401478E+02  0.16304703959E+02  0.16259776371E+02  0.26639453445E+02  0.51100000000E-03 0. -1.
        -11    1    3    3    0    0 -0.14291893034E+02 -0.53276177161E+01  0.32556358064E+01  0.15596181641E+02  0.51100000000E-03 0.  1.
        -12    1    3    3    0    0 -0.14169250466E+02  0.95085691740E+01 -0.27784300047E+00  0.17066275025E+02  0.00000000000E+00 0.  1.
</event>
<event>
 7    1  0.4237994E-013  0.5930195E+02  0.7816164E-02  0.1266605E+00
        -11   -1    0    0    0    0  0.00000000000E+00  0.00000000000E+00  0.45593999997E+02  0.45594000000E+02  0.51100000000E-03 0. -1.
         11   -1    0    0    0    0 -0.00000000000E+00 -0.00000000000E+00 -0.45593999997E+02  0.45594000000E+02  0.51100000000E-03 0.  1.
    9900012    2    1    2    0    0  0.29508586701E+02 -0.44110946667E+01  0.11247473613E+02  0.59301951202E+02  0.50000013085E+02 0.  0.
         12    1    1    2    0    0 -0.29508586701E+02  0.44110946667E+01 -0.11247473613E+02  0.31886048798E+02  0.00000000000E+00 0. -1.
         11    1    3    3    0    0 -0.33405115477E+01 -0.13205468738E+02  0.13437457767E+01  0.13687551825E+02  0.51100000000E-03 0. -1.
        -11    1    3    3    0    0  0.23837705176E+02  0.19303497126E+02  0.72514634829E+01  0.31518961154E+02  0.51100000000E-03 0.  1.
        -12    1    3    3    0    0  0.90113930731E+01 -0.10509123055E+02  0.26522643531E+01  0.14095438223E+02  0.00000000000E+00 0.  1.
</event>
<event>
 7    1  0.4237994E-013  0.5930194E+02  0.7816164E-02  0.1266605E+00
        -11   -1    0    0    0    0  0.00000000000E+00  0.00000000000E+00  0.45593999997E+02  0.45594000000E+02  0.51100000000E-03 0.  1.
         11   -1    0    0    0    0 -0.00000000000E+00 -0.00000000000E+00 -0.45593999997E+02  0.45594000000E+02  0.51100000000E-03 0. -1.
    9900012    2    1    2    0    0  0.24342373091E+02 -0.88051537907E+01  0.18618236958E+02  0.59301943354E+02  0.49999998772E+02 0.  0.
         12    1    1    2    0    0 -0.24342373091E+02  0.88051537907E+01 -0.18618236958E+02  0.31886056646E+02  0.00000000000E+00 0. -1.
         11    1    3    3    0    0 -0.65394795686E+01 -0.92054595898E+01  0.19907423424E+01  0.11465964182E+02  0.51100000000E-03 0. -1.
        -11    1    3    3    0    0  0.35422949070E+02  0.73189386789E+01  0.15952457908E+02  0.39532683918E+02  0.51100000000E-03 0.  1.
        -12    1    3    3    0    0 -0.45410964095E+01 -0.69186328798E+01  0.67503670711E+00  0.83032952544E+01  0.00000000000E+00 0.  1.
</event>
<event>
 7    1  0.4237994E-013  0.5930199E+02  0.7816164E-02  0.1266605E+00
        -11   -1    0    0    0    0  0.00000000000E+00  0.00000000000E+00  0.45593999997E+02  0.45594000000E+02  0.51100000000E-03 0. -1.
         11   -1    0    0    0    0 -0.00000000000E+00 -0.00000000000E+00 -0.45593999997E+02  0.45594000000E+02  0.51100000000E-03 0.  1.
    9900012    2    1    2    0    0  0.25622275443E+02 -0.17408759661E+02  0.75598855093E+01  0.59301987694E+02  0.50000079637E+02 0.  0.
         12    1    1    2    0    0 -0.25622275443E+02  0.17408759661E+02 -0.75598855093E+01  0.31886012306E+02  0.00000000000E+00 0. -1.
         11    1    3    3    0    0 -0.82446646384E+01 -0.14054335706E+02  0.10007075597E+01  0.16324835773E+02  0.51100000000E-03 0. -1.
        -11    1    3    3    0    0  0.16002438619E+02  0.10930945699E+02  0.51899135557E+01  0.20062373204E+02  0.51100000000E-03 0.  1.
        -12    1    3    3    0    0  0.17864501463E+02 -0.14285369654E+02  0.13692643939E+01  0.22914778717E+02  0.00000000000E+00 0.  1.
</event>
<event>
 7    1  0.4467189E-013  0.5930195E+02  0.7816164E-02  0.1266605E+00
        -11   -1    0    0    0    0  0.00000000000E+00  0.00000000000E+00  0.45593999997E+02  0.45594000000E+02  0.51100000000E-03 0. -1.
         11   -1    0    0    0    0 -0.00000000000E+00 -0.00000000000E+00 -0.45593999997E+02  0.45594000000E+02  0.51100000000E-03 0.  1.
    9900012    2    1    2    0    0 -0.11374823387E+02 -0.17011450114E+02 -0.24452896184E+02  0.59301950168E+02  0.50000011199E+02 0.  0.
         12    1    1    2    0    0  0.11374823387E+02  0.17011450114E+02  0.24452896184E+02  0.31886049832E+02  0.00000000000E+00 0. -1.
         11    1    3    3    0    0 -0.76153988792E+01  0.79983139683E+01  0.46015639660E+01  0.11964184787E+02  0.51100000000E-03 0. -1.
        -11    1    3    3    0    0 -0.77385996152E+01 -0.27347161738E+02 -0.14176391381E+02  0.31760403838E+02  0.51100000000E-03 0.  1.
        -12    1    3    3    0    0  0.39791751069E+01  0.23373976556E+01 -0.14878068769E+02  0.15577361543E+02  0.00000000000E+00 0.  1.
</event>
<event>
 7    1  0.4237994E-013  0.5930194E+02  0.7816164E-02  0.1266605E+00
        -11   -1    0    0    0    0  0.00000000000E+00  0.00000000000E+00  0.45593999997E+02  0.45594000000E+02  0.51100000000E-03 0. -1.
         11   -1    0    0    0    0 -0.00000000000E+00 -0.00000000000E+00 -0.45593999997E+02  0.45594000000E+02  0.51100000000E-03 0.  1.
    9900012    2    1    2    0    0  0.39125989108E+01  0.29161568288E+01 -0.31510444369E+02  0.59301944973E+02  0.50000001723E+02 0.  0.
         12    1    1    2    0    0 -0.39125989108E+01 -0.29161568288E+01  0.31510444369E+02  0.31886055027E+02  0.00000000000E+00 0. -1.
         11    1    3    3    0    0  0.15843844970E+02  0.14464448537E+02  0.41219795615E+00  0.21457343785E+02  0.51100000000E-03 0. -1.
        -11    1    3    3    0    0 -0.71959929421E+00 -0.53311419096E+01 -0.18571608331E+02  0.19335033837E+02  0.51100000000E-03 0.  1.
         12    1    3    3    0    0 -0.11211646765E+02 -0.62171497987E+01 -0.13351033994E+02  0.18509567350E+02  0.00000000000E+00 0. -1.
</event>
<event>
 7    1  0.4237994E-013  0.5930194E+02  0.7816164E-02  0.1266605E+00
        -11   -1    0    0    0    0  0.00000000000E+00  0.00000000000E+00  0.45593999997E+02  0.45594000000E+02  0.51100000000E-03 0.  1.
         11   -1    0    0    0    0 -0.00000000000E+00 -0.00000000000E+00 -0.45593999997E+02  0.45594000000E+02  0.51100000000E-03 0. -1.
    9900012    2    1    2    0    0 -0.29846891379E+02 -0.11194507081E+02 -0.75280692024E+00  0.59301942984E+02  0.49999998096E+02 0.  0.
         12    1    1    2    0    0  0.29846891379E+02  0.11194507081E+02  0.75280692024E+00  0.31886057016E+02  0.00000000000E+00 0. -1.
         11    1    3    3    0    0 -0.34027078862E+01  0.12531806369E+02 -0.34516250175E+01  0.13436454419E+02  0.51100000000E-03 0. -1.
        -11    1    3    3    0    0 -0.19316975402E+01 -0.19520058204E+02  0.65886600086E+01  0.20692379482E+02  0.51100000000E-03 0.  1.
         12    1    3    3    0    0 -0.24512485953E+02 -0.42062552462E+01 -0.38898419113E+01  0.25173109082E+02  0.00000000000E+00 0. -1.
</event>
<event>
 7    1  0.4237994E-013  0.5930184E+02  0.7816164E-02  0.1266605E+00
        -11   -1    0    0    0    0  0.00000000000E+00  0.00000000000E+00  0.45593999997E+02  0.45594000000E+02  0.51100000000E-03 0.  1.
         11   -1    0    0    0    0 -0.00000000000E+00 -0.00000000000E+00 -0.45593999997E+02  0.45594000000E+02  0.51100000000E-03 0. -1.
    9900012    2    1    2    0    0 -0.36207516598E+01  0.41349986311E+01  0.31408905317E+02  0.59301837022E+02  0.49999804846E+02 0.  0.
         12    1    1    2    0    0  0.36207516598E+01 -0.41349986311E+01 -0.31408905317E+02  0.31886162978E+02  0.00000000000E+00 0. -1.
         11    1    3    3    0    0  0.20965573236E+00 -0.85486041663E+01 -0.76503264740E+01  0.11473887054E+02  0.51100000000E-03 0. -1.
        -11    1    3    3    0    0 -0.55806532066E+01 -0.25266144246E+00  0.32940744436E+02  0.33411078586E+02  0.51100000000E-03 0.  1.
        -12    1    3    3    0    0  0.17502458143E+01  0.12936264240E+02  0.61184873548E+01  0.14416871381E+02  0.00000000000E+00 0.  1.
</event>
<event>
 7    1  0.4237994E-013  0.5930190E+02  0.7816164E-02  0.1266605E+00
        -11   -1    0    0    0    0  0.00000000000E+00  0.00000000000E+00  0.45593999997E+02  0.45594000000E+02  0.51100000000E-03 0. -1.
         11   -1    0    0    0    0 -0.00000000000E+00 -0.00000000000E+00 -0.45593999997E+02  0.45594000000E+02  0.51100000000E-03 0.  1.
    9900012    2    1    2    0    0 -0.18688321554E+02  0.10916782413E+02 -0.23415670099E+02  0.59301904175E+02  0.49999927319E+02 0.  0.
         12    1    1    2    0    0  0.18688321554E+02 -0.10916782413E+02  0.23415670099E+02  0.31886095825E+02  0.00000000000E+00 0. -1.
         11    1    3    3    0    0 -0.11224941749E+02  0.51315176351E+01  0.38123305817E+01  0.12917648982E+02  0.51100000000E-03 0. -1.
        -11    1    3    3    0    0  0.87398606851E+01 -0.47164094360E+00 -0.27657719906E+02  0.29009603248E+02  0.51100000000E-03 0.  1.
        -12    1    3    3    0    0 -0.16203240490E+02  0.62569057211E+01  0.42971922501E+00  0.17374651945E+02  0.00000000000E+00 0.  1.
</event>
<event>
 7    1  0.4237994E-013  0.5930195E+02  0.7816164E-02  0.1266605E+00
        -11   -1    0    0    0    0  0.00000000000E+00  0.00000000000E+00  0.45593999997E+02  0.45594000000E+02  0.51100000000E-03 0.  1.
         11   -1    0    0    0    0 -0.00000000000E+00 -0.00000000000E+00 -0.45593999997E+02  0.45594000000E+02  0.51100000000E-03 0. -1.
    9900012    2    1    2    0    0  0.91883447174E+00  0.31864069943E+02 -0.74613471506E+00  0.59301954037E+02  0.50000018254E+02 0.  0.
         12    1    1    2    0    0 -0.91883447174E+00 -0.31864069943E+02  0.74613471506E+00  0.31886045963E+02  0.00000000000E+00 0. -1.
         11    1    3    3    0    0 -0.24051428045E+01  0.11901257679E+02 -0.12125896724E+02  0.17159895625E+02  0.51100000000E-03 0. -1.
        -11    1    3    3    0    0  0.92594828105E+01  0.25658386260E+02  0.17034309275E+02  0.32159889616E+02  0.51100000000E-03 0.  1.
        -12    1    3    3    0    0 -0.59355055343E+01 -0.56955739955E+01 -0.56545472657E+01  0.99821687957E+01  0.00000000000E+00 0.  1.
</event>
<event>
 7    1  0.4237994E-013  0.5930198E+02  0.7816164E-02  0.1266605E+00
        -11   -1    0    0    0    0  0.00000000000E+00  0.00000000000E+00  0.45593999997E+02  0.45594000000E+02  0.51100000000E-03 0.  1.
         11   -1    0    0    0    0 -0.00000000000E+00 -0.00000000000E+00 -0.45593999997E+02  0.45594000000E+02  0.51100000000E-03 0. -1.
    9900012    2    1    2    0    0 -0.64028580045E+01  0.31236539542E+02 -0.16663668240E-02  0.59301984319E+02  0.50000073482E+02 0.  0.
         12    1    1    2    0    0  0.64028580045E+01 -0.31236539542E+02  0.16663668240E-02  0.31886015681E+02  0.00000000000E+00 0. -1.
         11    1    3    3    0    0  0.92343241756E+01  0.22770376543E+02  0.14834236756E+02  0.28702218926E+02  0.51100000000E-03 0.  1.
        -11    1    3    3    0    0 -0.53731540141E+01  0.10031723608E+01 -0.16882570760E+02  0.17745375019E+02  0.51100000000E-03 0. -1.
        -12    1    3    3    0    0 -0.10264028166E+02  0.74629906387E+01  0.20466676376E+01  0.12854390374E+02  0.00000000000E+00 0.  1.
</event>
<event>
 7    1  0.4237994E-013  0.5930210E+02  0.7816164E-02  0.1266604E+00
        -11   -1    0    0    0    0  0.00000000000E+00  0.00000000000E+00  0.45593999997E+02  0.45594000000E+02  0.51100000000E-03 0. -1.
         11   -1    0    0    0    0 -0.00000000000E+00 -0.00000000000E+00 -0.45593999997E+02  0.45594000000E+02  0.51100000000E-03 0.  1.
    9900012    2    1    2    0    0 -0.13601189981E+02 -0.13029373221E+02  0.25728458713E+02  0.59302101500E+02  0.50000287190E+02 0.  0.
         12    1    1    2    0    0  0.13601189981E+02  0.13029373221E+02 -0.25728458713E+02  0.31885898500E+02  0.00000000000E+00 0. -1.
         11    1    3    3    0    0 -0.88711363389E+01  0.64444921180E+01  0.32608094729E+02  0.34402272900E+02  0.51100000000E-03 0. -1.
        -11    1    3    3    0    0 -0.29318018552E+01 -0.20534172638E+02 -0.36603036163E+01  0.21062894647E+02  0.51100000000E-03 0.  1.
         12    1    3    3    0    0 -0.17982517872E+01  0.10603072998E+01 -0.32193323995E+01  0.38369339528E+01  0.00000000000E+00 0. -1.
</event>
<event>
 7    1  0.4237994E-013  0.5930231E+02  0.7816164E-02  0.1266603E+00
        -11   -1    0    0    0    0  0.00000000000E+00  0.00000000000E+00  0.45593999997E+02  0.45594000000E+02  0.51100000000E-03 0.  1.
         11   -1    0    0    0    0 -0.00000000000E+00 -0.00000000000E+00 -0.45593999997E+02  0.45594000000E+02  0.51100000000E-03 0. -1.
    9900012    2    1    2    0    0  0.15708818053E+02 -0.27487152150E+02 -0.37929812578E+01  0.59302310345E+02  0.50000668071E+02 0.  0.
         12    1    1    2    0    0 -0.15708818053E+02  0.27487152150E+02  0.37929812578E+01  0.31885689655E+02  0.00000000000E+00 0. -1.
         11    1    3    3    0    0 -0.20708194555E+01 -0.24842865673E+02 -0.12258990222E+02  0.27780192756E+02  0.51100000000E-03 0. -1.
        -11    1    3    3    0    0  0.11062595826E+02 -0.12812610644E+02  0.92870951401E+01  0.19307878038E+02  0.51100000000E-03 0.  1.
         12    1    3    3    0    0  0.67170416822E+01  0.10168324167E+02 -0.82108617588E+00  0.12214239552E+02  0.00000000000E+00 0. -1.
</event>
<event>
 7    1  0.4237994E-013  0.5930195E+02  0.7816164E-02  0.1266605E+00
        -11   -1    0    0    0    0  0.00000000000E+00  0.00000000000E+00  0.45593999997E+02  0.45594000000E+02  0.51100000000E-03 0. -1.
         11   -1    0    0    0    0 -0.00000000000E+00 -0.00000000000E+00 -0.45593999997E+02  0.45594000000E+02  0.51100000000E-03 0.  1.
    9900012    2    1    2    0    0  0.15996127837E+02  0.27156142790E+02  0.48361007192E+01  0.59301951841E+02  0.50000014249E+02 0.  0.
         12    1    1    2    0    0 -0.15996127837E+02 -0.27156142790E+02 -0.48361007192E+01  0.31886048159E+02  0.00000000000E+00 0. -1.
         11    1    3    3    0    0  0.61635341883E+01  0.26739002409E+02  0.13636133295E+02  0.30641598114E+02  0.51100000000E-03 0. -1.
        -11    1    3    3    0    0  0.18079302792E+02 -0.20262537050E+01 -0.84315845284E+01  0.20051396745E+02  0.51100000000E-03 0.  1.
         12    1    3    3    0    0 -0.82467091425E+01  0.24433940867E+01 -0.36844804744E+00  0.86089569814E+01  0.00000000000E+00 0. -1.
</event>
<event>
 7    1  0.4237994E-013  0.5930195E+02  0.7816164E-02  0.1266605E+00
        -11   -1    0    0    0    0  0.00000000000E+00  0.00000000000E+00  0.45593999997E+02  0.45594000000E+02  0.51100000000E-03 0. -1.
         11   -1    0    0    0    0 -0.00000000000E+00 -0.00000000000E+00 -0.45593999997E+02  0.45594000000E+02  0.51100000000E-03 0.  1.
    9900012    2    1    2    0    0  0.13955519091E+02 -0.36266757563E+01 -0.28439600459E+02  0.59301950317E+02  0.50000011470E+02 0.  0.
         12    1    1    2    0    0 -0.13955519091E+02  0.36266757563E+01  0.28439600459E+02  0.31886049683E+02  0.00000000000E+00 0. -1.
         11    1    3    3    0    0  0.14496651313E+02 -0.93751799483E+01  0.12500870669E+01  0.17309235000E+02  0.51100000000E-03 0. -1.
        -11    1    3    3    0    0 -0.94435285037E+01  0.84314483250E+01 -0.20419108784E+01  0.12823375209E+02  0.51100000000E-03 0.  1.
        -12    1    3    3    0    0  0.89023962821E+01 -0.26829441330E+01 -0.27647776647E+02  0.29169340108E+02  0.00000000000E+00 0.  1.
</event>
<event>
 7    1  0.4237994E-013  0.5930198E+02  0.7816164E-02  0.1266605E+00
        -11   -1    0    0    0    0  0.00000000000E+00  0.00000000000E+00  0.45593999997E+02  0.45594000000E+02  0.51100000000E-03 0. -1.
         11   -1    0    0    0    0 -0.00000000000E+00 -0.00000000000E+00 -0.45593999997E+02  0.45594000000E+02  0.51100000000E-03 0.  1.
    9900012    2    1    2    0    0 -0.25087963479E+02 -0.74238560560E+01 -0.18226322060E+02  0.59301978516E+02  0.50000062898E+02 0.  0.
         12    1    1    2    0    0  0.25087963479E+02  0.74238560560E+01  0.18226322060E+02  0.31886021484E+02  0.00000000000E+00 0. -1.
         11    1    3    3    0    0 -0.79499751551E+01  0.11027721325E+02  0.57564933389E+01  0.14763128341E+02  0.51100000000E-03 0. -1.
        -11    1    3    3    0    0 -0.21537175568E+02 -0.16105227738E+02 -0.27479322297E+02  0.38449206053E+02  0.51100000000E-03 0.  1.
        -12    1    3    3    0    0  0.43991872441E+01 -0.23463496428E+01  0.34965068979E+01  0.60896441228E+01  0.00000000000E+00 0.  1.
</event>
<event>
 7    1  0.4237994E-013  0.5930196E+02  0.7816164E-02  0.1266605E+00
        -11   -1    0    0    0    0  0.00000000000E+00  0.00000000000E+00  0.45593999997E+02  0.45594000000E+02  0.51100000000E-03 0. -1.
         11   -1    0    0    0    0 -0.00000000000E+00 -0.00000000000E+00 -0.45593999997E+02  0.45594000000E+02  0.51100000000E-03 0.  1.
    9900012    2    1    2    0    0  0.22343565981E+02 -0.19828581198E+02 -0.11149534669E+02  0.59301957655E+02  0.50000024854E+02 0.  0.
         12    1    1    2    0    0 -0.22343565981E+02  0.19828581198E+02  0.11149534669E+02  0.31886042345E+02  0.00000000000E+00 0. -1.
         11    1    3    3    0    0  0.12367065724E+02 -0.17242552397E+02 -0.12662069124E+01  0.21256839088E+02  0.51100000000E-03 0. -1.
        -11    1    3    3    0    0 -0.41066362380E+01  0.11799879558E+02  0.45253104472E+01  0.13288342774E+02  0.51100000000E-03 0.  1.
        -12    1    3    3    0    0  0.14083136495E+02 -0.14385908358E+02 -0.14408638203E+02  0.24756775794E+02  0.00000000000E+00 0.  1.
</event>
<event>
 7    1  0.4237994E-013  0.5930195E+02  0.7816164E-02  0.1266605E+00
        -11   -1    0    0    0    0  0.00000000000E+00  0.00000000000E+00  0.45593999997E+02  0.45594000000E+02  0.51100000000E-03 0. -1.
         11   -1    0    0    0    0 -0.00000000000E+00 -0.00000000000E+00 -0.45593999997E+02  0.45594000000E+02  0.51100000000E-03 0.  1.
    9900012    2    1    2    0    0  0.85739349414E+00  0.20626933747E+02 -0.24300502850E+02  0.59301953550E+02  0.50000017367E+02 0.  0.
         12    1    1    2    0    0 -0.85739349414E+00 -0.20626933747E+02  0.24300502850E+02  0.31886046450E+02  0.00000000000E+00 0. -1.
         11    1    3    3    0    0 -0.63170823543E+01  0.16498461681E+00  0.99872414472E+01  0.11818533808E+02  0.51100000000E-03 0. -1.
        -11    1    3    3    0    0  0.13422347003E+02  0.11036198310E+02 -0.31278729609E+02  0.35781503579E+02  0.51100000000E-03 0.  1.
         12    1    3    3    0    0 -0.62478711544E+01  0.94257508201E+01 -0.30090146888E+01  0.11701916163E+02  0.00000000000E+00 0. -1.
</event>
<event>
 7    1  0.4237994E-013  0.5930193E+02  0.7816164E-02  0.1266605E+00
        -11   -1    0    0    0    0  0.00000000000E+00  0.00000000000E+00  0.45593999997E+02  0.45594000000E+02  0.51100000000E-03 0.  1.
         11   -1    0    0    0    0 -0.00000000000E+00 -0.00000000000E+00 -0.45593999997E+02  0.45594000000E+02  0.51100000000E-03 0. -1.
    9900012    2    1    2    0    0  0.27968689904E+01 -0.92362962571E+01  0.30390618058E+02  0.59301932343E+02  0.49999978690E+02 0.  0.
         12    1    1    2    0    0 -0.27968689904E+01  0.92362962571E+01 -0.30390618058E+02  0.31886067657E+02  0.00000000000E+00 0. -1.
         11    1    3    3    0    0  0.15710365602E+02 -0.16144763537E+02  0.25204428029E+02  0.33804321758E+02  0.51100000000E-03 0.  1.
        -11    1    3    3    0    0 -0.15556661577E+02  0.49069637955E+01  0.10380758420E+02  0.19335153445E+02  0.51100000000E-03 0. -1.
        -12    1    3    3    0    0  0.26431649663E+01  0.20015034842E+01 -0.51945683904E+01  0.61624571397E+01  0.00000000000E+00 0.  1.
</event>
<event>
 7    1  0.4237994E-013  0.5930193E+02  0.7816164E-02  0.1266605E+00
        -11   -1    0    0    0    0  0.00000000000E+00  0.00000000000E+00  0.45593999997E+02  0.45594000000E+02  0.51100000000E-03 0.  1.
         11   -1    0    0    0    0 -0.00000000000E+00 -0.00000000000E+00 -0.45593999997E+02  0.45594000000E+02  0.51100000000E-03 0. -1.
    9900012    2    1    2    0    0  0.20175711699E+02  0.18915142771E+02  0.15870710726E+02  0.59301930509E+02  0.49999975345E+02 0.  0.
         12    1    1    2    0    0 -0.20175711699E+02 -0.18915142771E+02 -0.15870710726E+02  0.31886069491E+02  0.00000000000E+00 0. -1.
         11    1    3    3    0    0  0.14370535489E+02 -0.10477417969E+02 -0.60106269797E+01  0.18772751915E+02  0.51100000000E-03 0. -1.
        -11    1    3    3    0    0  0.49420750597E+01  0.20613939651E+02  0.23404869132E+02  0.31577626782E+02  0.51100000000E-03 0.  1.
         12    1    3    3    0    0  0.86310115099E+00  0.87786210892E+01 -0.15235314264E+01  0.89515518114E+01  0.00000000000E+00 0. -1.
</event>
<event>
 7    1  0.4237994E-013  0.5930194E+02  0.7816164E-02  0.1266605E+00
        -11   -1    0    0    0    0  0.00000000000E+00  0.00000000000E+00  0.45593999997E+02  0.45594000000E+02  0.51100000000E-03 0.  1.
         11   -1    0    0    0    0 -0.00000000000E+00 -0.00000000000E+00 -0.45593999997E+02  0.45594000000E+02  0.51100000000E-03 0. -1.
    9900012    2    1    2    0    0 -0.21850904455E+01  0.71863371288E+01  0.30988754276E+02  0.59301937948E+02  0.49999988913E+02 0.  0.
         12    1    1    2    0    0  0.21850904455E+01 -0.71863371288E+01 -0.30988754276E+02  0.31886062052E+02  0.00000000000E+00 0. -1.
         11    1    3    3    0    0  0.19222508848E+02 -0.53342308049E+01  0.75135415277E+01  0.21316945636E+02  0.51100000000E-03 0. -1.
        -11    1    3    3    0    0 -0.12143752337E+02 -0.22333208650E+01  0.11233817501E+02  0.16693025454E+02  0.51100000000E-03 0.  1.
         12    1    3    3    0    0 -0.92638469562E+01  0.14753888799E+02  0.12241395248E+02  0.21291966859E+02  0.00000000000E+00 0. -1.
</event>
<event>
 7    1  0.4237994E-013  0.5930196E+02  0.7816164E-02  0.1266605E+00
        -11   -1    0    0    0    0  0.00000000000E+00  0.00000000000E+00  0.45593999997E+02  0.45594000000E+02  0.51100000000E-03 0.  1.
         11   -1    0    0    0    0 -0.00000000000E+00 -0.00000000000E+00 -0.45593999997E+02  0.45594000000E+02  0.51100000000E-03 0. -1.
    9900012    2    1    2    0    0  0.14211061994E+02  0.11298205666E+02  0.26212890718E+02  0.59301962710E+02  0.50000034072E+02 0.  0.
         12    1    1    2    0    0 -0.14211061994E+02 -0.11298205666E+02 -0.26212890718E+02  0.31886037290E+02  0.00000000000E+00 0. -1.
         11    1    3    3    0    0  0.17127422309E+02 -0.11971458910E+02  0.13969659839E+02  0.25135946763E+02  0.51100000000E-03 0. -1.
        -11    1    3    3    0    0 -0.11401567048E+02  0.67337512820E+01  0.62098709349E+01  0.14625376398E+02  0.51100000000E-03 0.  1.
        -12    1    3    3    0    0  0.84852067332E+01  0.16535913294E+02  0.60333599443E+01  0.19540639549E+02  0.00000000000E+00 0.  1.
</event>
<event>
 7    1  0.4237994E-013  0.5930193E+02  0.7816164E-02  0.1266605E+00
        -11   -1    0    0    0    0  0.00000000000E+00  0.00000000000E+00  0.45593999997E+02  0.45594000000E+02  0.51100000000E-03 0.  1.
         11   -1    0    0    0    0 -0.00000000000E+00 -0.00000000000E+00 -0.45593999997E+02  0.45594000000E+02  0.51100000000E-03 0. -1.
    9900012    2    1    2    0    0 -0.12981937632E+02  0.84192556985E+01  0.27880226898E+02  0.59301927443E+02  0.49999969754E+02 0.  0.
         12    1    1    2    0    0  0.12981937632E+02 -0.84192556985E+01 -0.27880226898E+02  0.31886072557E+02  0.00000000000E+00 0. -1.
         11    1    3    3    0    0  0.46804396711E+01 -0.44672687192E+01  0.35211584493E+02  0.35801098979E+02  0.51100000000E-03 0.  1.
        -11    1    3    3    0    0 -0.15756070766E+02  0.10994000377E+02 -0.47848038001E+01  0.19799397919E+02  0.51100000000E-03 0. -1.
        -12    1    3    3    0    0 -0.19063065364E+01  0.18925240407E+01 -0.25465537943E+01  0.37014305454E+01  0.00000000000E+00 0.  1.
</event>
<event>
 7    1  0.4237994E-013  0.5930200E+02  0.7816164E-02  0.1266605E+00
        -11   -1    0    0    0    0  0.00000000000E+00  0.00000000000E+00  0.45593999997E+02  0.45594000000E+02  0.51100000000E-03 0.  1.
         11   -1    0    0    0    0 -0.00000000000E+00 -0.00000000000E+00 -0.45593999997E+02  0.45594000000E+02  0.51100000000E-03 0. -1.
    9900012    2    1    2    0    0  0.14795175778E+02 -0.20880379205E+02  0.19021812682E+02  0.59302002764E+02  0.50000107120E+02 0.  0.
         12    1    1    2    0    0 -0.14795175778E+02  0.20880379205E+02 -0.19021812682E+02  0.31885997236E+02  0.00000000000E+00 0. -1.
         11    1    3    3    0    0  0.83698147483E+01 -0.56014286498E+01  0.32878103120E+02  0.34386035929E+02  0.51100000000E-03 0. -1.
        -11    1    3    3    0    0 -0.30168610742E+01 -0.83072481094E+01 -0.45713541702E+01  0.99503317082E+01  0.51100000000E-03 0.  1.
         12    1    3    3    0    0  0.94422221038E+01 -0.69717024456E+01 -0.92849362679E+01  0.14965635127E+02  0.00000000000E+00 0. -1.
</event>
<event>
 7    1  0.4237994E-013  0.5930189E+02  0.7816164E-02  0.1266605E+00
        -11   -1    0    0    0    0  0.00000000000E+00  0.00000000000E+00  0.45593999997E+02  0.45594000000E+02  0.51100000000E-03 0.  1.
         11   -1    0    0    0    0 -0.00000000000E+00 -0.00000000000E+00 -0.45593999997E+02  0.45594000000E+02  0.51100000000E-03 0. -1.
    9900012    2    1    2    0    0  0.23973104300E+02 -0.51848632047E+01  0.20374776221E+02  0.59301889508E+02  0.49999900570E+02 0.  0.
         12    1    1    2    0    0 -0.23973104300E+02  0.51848632047E+01 -0.20374776221E+02  0.31886110492E+02  0.00000000000E+00 0. -1.
         11    1    3    3    0    0  0.55456150233E+01 -0.13304887556E+02  0.59971242592E+01  0.15612154832E+02  0.51100000000E-03 0. -1.
        -11    1    3    3    0    0  0.23038363929E+02  0.10203562531E+02 -0.31992164714E+01  0.25399092251E+02  0.51100000000E-03 0.  1.
        -12    1    3    3    0    0 -0.46108746527E+01 -0.20835381801E+01  0.17576868433E+02  0.18290642425E+02  0.00000000000E+00 0.  1.
</event>
<event>
 7    1  0.4237994E-013  0.5930199E+02  0.7816164E-02  0.1266605E+00
        -11   -1    0    0    0    0  0.00000000000E+00  0.00000000000E+00  0.45593999997E+02  0.45594000000E+02  0.51100000000E-03 0.  1.
         11   -1    0    0    0    0 -0.00000000000E+00 -0.00000000000E+00 -0.45593999997E+02  0.45594000000E+02  0.51100000000E-03 0. -1.
    9900012    2    1    2    0    0 -0.15308755492E+02  0.27735857779E+02  0.36169115176E+01  0.59301986603E+02  0.50000077647E+02 0.  0.
         12    1    1    2    0    0  0.15308755492E+02 -0.27735857779E+02 -0.36169115176E+01  0.31886013397E+02  0.00000000000E+00 0. -1.
         11    1    3    3    0    0 -0.13180516836E+02  0.40407418360E+02  0.20298782180E+01  0.42551214888E+02  0.51100000000E-03 0. -1.
        -11    1    3    3    0    0 -0.36353538866E+00  0.56674150840E+00  0.32256913114E+01  0.32952145019E+01  0.51100000000E-03 0.  1.
         12    1    3    3    0    0 -0.17647032669E+01 -0.13238302090E+02 -0.16386580117E+01  0.13455557213E+02  0.00000000000E+00 0. -1.
</event>
<event>
 7    1  0.4237994E-013  0.5930195E+02  0.7816164E-02  0.1266605E+00
        -11   -1    0    0    0    0  0.00000000000E+00  0.00000000000E+00  0.45593999997E+02  0.45594000000E+02  0.51100000000E-03 0.  1.
         11   -1    0    0    0    0 -0.00000000000E+00 -0.00000000000E+00 -0.45593999997E+02  0.45594000000E+02  0.51100000000E-03 0. -1.
    9900012    2    1    2    0    0  0.24609044293E+02 -0.17534872034E+02  0.10180540557E+02  0.59301949691E+02  0.50000010329E+02 0.  0.
         12    1    1    2    0    0 -0.24609044293E+02  0.17534872034E+02 -0.10180540557E+02  0.31886050309E+02  0.00000000000E+00 0. -1.
         11    1    3    3    0    0  0.25246621670E+02 -0.67131901101E+01 -0.15269602076E+02  0.30259206451E+02  0.51100000000E-03 0. -1.
        -11    1    3    3    0    0  0.23725541993E+01 -0.72712871064E+01  0.21874712703E+02  0.23173339978E+02  0.51100000000E-03 0.  1.
         12    1    3    3    0    0 -0.30101315770E+01 -0.35503948179E+01  0.35754299296E+01  0.58694032623E+01  0.00000000000E+00 0. -1.
</event>
<event>
 7    1  0.4237994E-013  0.5930194E+02  0.7816164E-02  0.1266605E+00
        -11   -1    0    0    0    0  0.00000000000E+00  0.00000000000E+00  0.45593999997E+02  0.45594000000E+02  0.51100000000E-03 0.  1.
         11   -1    0    0    0    0 -0.00000000000E+00 -0.00000000000E+00 -0.45593999997E+02  0.45594000000E+02  0.51100000000E-03 0. -1.
    9900012    2    1    2    0    0 -0.82687598950E+01 -0.20536318847E+02  0.22947935756E+02  0.59301944468E+02  0.50000000802E+02 0.  0.
         12    1    1    2    0    0  0.82687598950E+01  0.20536318847E+02 -0.22947935756E+02  0.31886055532E+02  0.00000000000E+00 0. -1.
         11    1    3    3    0    0 -0.10173665188E+02 -0.13614108111E+02 -0.82895383785E+01  0.18909358789E+02  0.51100000000E-03 0. -1.
        -11    1    3    3    0    0  0.12088519439E+02  0.10831597374E+01  0.11091942643E+02  0.16441919873E+02  0.51100000000E-03 0.  1.
        -12    1    3    3    0    0 -0.10183614146E+02 -0.80053704733E+01  0.20145531491E+02  0.23950665806E+02  0.00000000000E+00 0.  1.
</event>
<event>
 7    1  0.4237994E-013  0.5930194E+02  0.7816164E-02  0.1266605E+00
        -11   -1    0    0    0    0  0.00000000000E+00  0.00000000000E+00  0.45593999997E+02  0.45594000000E+02  0.51100000000E-03 0. -1.
         11   -1    0    0    0    0 -0.00000000000E+00 -0.00000000000E+00 -0.45593999997E+02  0.45594000000E+02  0.51100000000E-03 0.  1.
    9900012    2    1    2    0    0 -0.43012727047E+01 -0.73876839548E+01 -0.30718751504E+02  0.59301944818E+02  0.50000001442E+02 0.  0.
         12    1    1    2    0    0  0.43012727047E+01  0.73876839548E+01  0.30718751504E+02  0.31886055182E+02  0.00000000000E+00 0. -1.
         11    1    3    3    0    0 -0.17322011320E+02 -0.13362231444E+01 -0.37420118349E+02  0.41256548886E+02  0.51100000000E-03 0. -1.
        -11    1    3    3    0    0  0.48471584587E+01 -0.66782016948E+01  0.16462292407E+01  0.84144752643E+01  0.51100000000E-03 0.  1.
         12    1    3    3    0    0  0.81735801567E+01  0.62674088437E+00  0.50551376043E+01  0.96309206679E+01  0.00000000000E+00 0. -1.
</event>
<event>
 7    1  0.4237994E-013  0.5930191E+02  0.7816164E-02  0.1266605E+00
        -11   -1    0    0    0    0  0.00000000000E+00  0.00000000000E+00  0.45593999997E+02  0.45594000000E+02  0.51100000000E-03 0. -1.
         11   -1    0    0    0    0 -0.00000000000E+00 -0.00000000000E+00 -0.45593999997E+02  0.45594000000E+02  0.51100000000E-03 0.  1.
    9900012    2    1    2    0    0 -0.28823286050E+02  0.91071279826E+01 -0.10148955684E+02  0.59301907416E+02  0.49999933229E+02 0.  0.
         12    1    1    2    0    0  0.28823286050E+02 -0.91071279826E+01  0.10148955684E+02  0.31886092584E+02  0.00000000000E+00 0. -1.
         11    1    3    3    0    0 -0.20669373228E+02 -0.39318764627E+01  0.33480442442E+01  0.21304742258E+02  0.51100000000E-03 0. -1.
        -11    1    3    3    0    0 -0.12629401278E+01  0.17513336732E+02  0.45750952369E+01  0.18145067592E+02  0.51100000000E-03 0.  1.
        -12    1    3    3    0    0 -0.68909726940E+01 -0.44743322865E+01 -0.18072095165E+02  0.19852097565E+02  0.00000000000E+00 0.  1.
</event>
<event>
 7    1  0.4237994E-013  0.5930195E+02  0.7816164E-02  0.1266605E+00
        -11   -1    0    0    0    0  0.00000000000E+00  0.00000000000E+00  0.45593999997E+02  0.45594000000E+02  0.51100000000E-03 0. -1.
         11   -1    0    0    0    0 -0.00000000000E+00 -0.00000000000E+00 -0.45593999997E+02  0.45594000000E+02  0.51100000000E-03 0.  1.
    9900012    2    1    2    0    0 -0.26931449121E+02  0.36390779280E+01 -0.16678568460E+02  0.59301945277E+02  0.50000002278E+02 0.  0.
         12    1    1    2    0    0  0.26931449121E+02 -0.36390779280E+01  0.16678568460E+02  0.31886054723E+02  0.00000000000E+00 0. -1.
         11    1    3    3    0    0 -0.11690821020E+02 -0.19381186401E+02 -0.85662987325E+01  0.24200974291E+02  0.51100000000E-03 0. -1.
        -11    1    3    3    0    0 -0.69111208433E+01  0.42437760712E+00  0.41541484236E+01  0.80746911427E+01  0.51100000000E-03 0.  1.
         12    1    3    3    0    0 -0.83295072578E+01  0.22595886721E+02 -0.12266418151E+02  0.27026279843E+02  0.00000000000E+00 0. -1.
</event>
<event>
 7    1  0.4237994E-013  0.5930191E+02  0.7816164E-02  0.1266605E+00
        -11   -1    0    0    0    0  0.00000000000E+00  0.00000000000E+00  0.45593999997E+02  0.45594000000E+02  0.51100000000E-03 0.  1.
         11   -1    0    0    0    0 -0.00000000000E+00 -0.00000000000E+00 -0.45593999997E+02  0.45594000000E+02  0.51100000000E-03 0. -1.
    9900012    2    1    2    0    0  0.12214135564E+02  0.66652567828E+00  0.29446446014E+02  0.59301912957E+02  0.49999943334E+02 0.  0.
         12    1    1    2    0    0 -0.12214135564E+02 -0.66652567828E+00 -0.29446446014E+02  0.31886087043E+02  0.00000000000E+00 0. -1.
         11    1    3    3    0    0 -0.11633612654E+02 -0.47200100474E+01  0.61651938343E+01  0.13986745637E+02  0.51100000000E-03 0. -1.
        -11    1    3    3    0    0  0.20319040227E+02  0.15791234261E+02  0.89255878257E+01  0.27237705365E+02  0.51100000000E-03 0.  1.
        -12    1    3    3    0    0  0.35287079910E+01 -0.10404698536E+02  0.14355664354E+02  0.18077461956E+02  0.00000000000E+00 0.  1.
</event>
<event>
 7    1  0.4237994E-013  0.5930196E+02  0.7816164E-02  0.1266605E+00
        -11   -1    0    0    0    0  0.00000000000E+00  0.00000000000E+00  0.45593999997E+02  0.45594000000E+02  0.51100000000E-03 0.  1.
         11   -1    0    0    0    0 -0.00000000000E+00 -0.00000000000E+00 -0.45593999997E+02  0.45594000000E+02  0.51100000000E-03 0. -1.
    9900012    2    1    2    0    0 -0.40525649448E+01  0.30408774918E+02  0.86949969807E+01  0.59301955292E+02  0.50000020543E+02 0.  0.
         12    1    1    2    0    0  0.40525649448E+01 -0.30408774918E+02 -0.86949969807E+01  0.31886044708E+02  0.00000000000E+00 0. -1.
         11    1    3    3    0    0  0.37721092548E+01  0.35617334410E+02  0.15861923507E+02  0.39171723684E+02  0.51100000000E-03 0.  1.
        -11    1    3    3    0    0 -0.54484474102E+00 -0.16663092661E+01 -0.11023970458E+02  0.11162498255E+02  0.51100000000E-03 0. -1.
        -12    1    3    3    0    0 -0.72798294586E+01 -0.35422502265E+01  0.38570439317E+01  0.89677333537E+01  0.00000000000E+00 0.  1.
</event>
<event>
 7    1  0.4237994E-013  0.5930195E+02  0.7816164E-02  0.1266605E+00
        -11   -1    0    0    0    0  0.00000000000E+00  0.00000000000E+00  0.45593999997E+02  0.45594000000E+02  0.51100000000E-03 0.  1.
         11   -1    0    0    0    0 -0.00000000000E+00 -0.00000000000E+00 -0.45593999997E+02  0.45594000000E+02  0.51100000000E-03 0. -1.
    9900012    2    1    2    0    0 -0.22402064662E+02  0.71927949405E+01  0.21520491416E+02  0.59301947391E+02  0.50000006133E+02 0.  0.
         12    1    1    2    0    0  0.22402064662E+02 -0.71927949405E+01 -0.21520491416E+02  0.31886052609E+02  0.00000000000E+00 0. -1.
         11    1    3    3    0    0  0.16120683833E+02  0.25379476402E+01  0.78270097242E+01  0.18099163156E+02  0.51100000000E-03 0. -1.
        -11    1    3    3    0    0 -0.22256005883E+02  0.37301928575E+01  0.81190232884E+01  0.23982549407E+02  0.51100000000E-03 0.  1.
         12    1    3    3    0    0 -0.16266742612E+02  0.92465444277E+00  0.55744584039E+01  0.17220234828E+02  0.00000000000E+00 0. -1.
</event>
<event>
 7    1  0.4237994E-013  0.5930193E+02  0.7816164E-02  0.1266605E+00
        -11   -1    0    0    0    0  0.00000000000E+00  0.00000000000E+00  0.45593999997E+02  0.45594000000E+02  0.51100000000E-03 0.  1.
         11   -1    0    0    0    0 -0.00000000000E+00 -0.00000000000E+00 -0.45593999997E+02  0.45594000000E+02  0.51100000000E-03 0. -1.
    9900012    2    1    2    0    0 -0.34227280809E+01 -0.28655212129E+02  0.13560427686E+02  0.59301930178E+02  0.49999974741E+02 0.  0.
         12    1    1    2    0    0  0.34227280809E+01  0.28655212129E+02 -0.13560427686E+02  0.31886069822E+02  0.00000000000E+00 0. -1.
         11    1    3    3    0    0 -0.16030646372E+02  0.71472113904E+01  0.11879293016E+02  0.21193910838E+02  0.51100000000E-03 0. -1.
        -11    1    3    3    0    0  0.18277278998E+01 -0.50463317933E+01  0.12674707183E+01  0.55147562164E+01  0.51100000000E-03 0.  1.
         12    1    3    3    0    0  0.10780190392E+02 -0.30756091727E+02  0.41366395184E+00  0.32593263124E+02  0.00000000000E+00 0. -1.
</event>
<event>
 7    1  0.4237994E-013  0.5930194E+02  0.7816164E-02  0.1266605E+00
        -11   -1    0    0    0    0  0.00000000000E+00  0.00000000000E+00  0.45593999997E+02  0.45594000000E+02  0.51100000000E-03 0.  1.
         11   -1    0    0    0    0 -0.00000000000E+00 -0.00000000000E+00 -0.45593999997E+02  0.45594000000E+02  0.51100000000E-03 0. -1.
    9900012    2    1    2    0    0 -0.26331552953E+02 -0.17290670508E+02  0.49399114543E+01  0.59301942033E+02  0.49999996362E+02 0.  0.
         12    1    1    2    0    0  0.26331552953E+02  0.17290670508E+02 -0.49399114543E+01  0.31886057967E+02  0.00000000000E+00 0. -1.
         11    1    3    3    0    0 -0.60502664617E+00 -0.16115555799E+02 -0.24751523222E+00  0.16128808388E+02  0.51100000000E-03 0. -1.
        -11    1    3    3    0    0 -0.41355389878E+01  0.82557035221E+01  0.15029480516E+02  0.17639291602E+02  0.51100000000E-03 0.  1.
        -12    1    3    3    0    0 -0.21590987319E+02 -0.94308182305E+01 -0.98420538296E+01  0.25533842043E+02  0.00000000000E+00 0.  1.
</event>
<event>
 7    1  0.4237994E-013  0.5930187E+02  0.7816164E-02  0.1266605E+00
        -11   -1    0    0    0    0  0.00000000000E+00  0.00000000000E+00  0.45593999997E+02  0.45594000000E+02  0.51100000000E-03 0.  1.
         11   -1    0    0    0    0 -0.00000000000E+00 -0.00000000000E+00 -0.45593999997E+02  0.45594000000E+02  0.51100000000E-03 0. -1.
    9900012    2    1    2    0    0 -0.24905567406E+02  0.11840891528E+02  0.16007229160E+02  0.59301868448E+02  0.49999862160E+02 0.  0.
         12    1    1    2    0    0  0.24905567406E+02 -0.11840891528E+02 -0.16007229160E+02  0.31886131552E+02  0.00000000000E+00 0. -1.
         11    1    3    3    0    0 -0.85674557417E+01  0.12410605542E+02  0.10851542642E+02  0.18579031346E+02  0.51100000000E-03 0. -1.
        -11    1    3    3    0    0 -0.27405661701E+02 -0.49020551206E+01  0.18828018798E+00  0.27841262317E+02  0.51100000000E-03 0.  1.
        -12    1    3    3    0    0  0.11067550037E+02  0.43323411069E+01  0.49674063300E+01  0.12881574785E+02  0.00000000000E+00 0.  1.
</event>
<event>
 7    1  0.4237994E-013  0.5930197E+02  0.7816164E-02  0.1266605E+00
        -11   -1    0    0    0    0  0.00000000000E+00  0.00000000000E+00  0.45593999997E+02  0.45594000000E+02  0.51100000000E-03 0. -1.
         11   -1    0    0    0    0 -0.00000000000E+00 -0.00000000000E+00 -0.45593999997E+02  0.45594000000E+02  0.51100000000E-03 0.  1.
    9900012    2    1    2    0    0 -0.78259305119E+01  0.28660527491E+02  0.11577916420E+02  0.59301965862E+02  0.50000039820E+02 0.  0.
         12    1    1    2    0    0  0.78259305119E+01 -0.28660527491E+02 -0.11577916420E+02  0.31886034138E+02  0.00000000000E+00 0. -1.
         11    1    3    3    0    0  0.79489735520E+01 -0.53931444209E+01  0.16381749100E+02  0.18990363112E+02  0.51100000000E-03 0. -1.
        -11    1    3    3    0    0 -0.23965060066E+01  0.21587253728E+02 -0.20046771711E+01  0.21812186854E+02  0.51100000000E-03 0.  1.
         12    1    3    3    0    0 -0.13378398057E+02  0.12466418185E+02 -0.27991555091E+01  0.18499415896E+02  0.00000000000E+00 0. -1.
</event>
<event>
 7    1  0.4237994E-013  0.5930195E+02  0.7816164E-02  0.1266605E+00
        -11   -1    0    0    0    0  0.00000000000E+00  0.00000000000E+00  0.45593999997E+02  0.45594000000E+02  0.51100000000E-03 0.  1.
         11   -1    0    0    0    0 -0.00000000000E+00 -0.00000000000E+00 -0.45593999997E+02  0.45594000000E+02  0.51100000000E-03 0. -1.
    9900012    2    1    2    0    0  0.17139160001E+02 -0.15367571243E+02  0.22063701336E+02  0.59301953394E+02  0.50000017083E+02 0.  0.
         12    1    1    2    0    0 -0.17139160001E+02  0.15367571243E+02 -0.22063701336E+02  0.31886046606E+02  0.00000000000E+00 0. -1.
         11    1    3    3    0    0  0.16664285050E+02 -0.76043923624E+01  0.34349647977E+02  0.38928440706E+02  0.51100000000E-03 0. -1.
        -11    1    3    3    0    0 -0.13955179326E+01 -0.62968928963E+01  0.13015814395E+01  0.65796994576E+01  0.51100000000E-03 0.  1.
         12    1    3    3    0    0  0.18703928835E+01 -0.14662859846E+01 -0.13587528080E+02  0.13793813231E+02  0.00000000000E+00 0. -1.
</event>
<event>
 7    1  0.4237994E-013  0.5930195E+02  0.7816164E-02  0.1266605E+00
        -11   -1    0    0    0    0  0.00000000000E+00  0.00000000000E+00  0.45593999997E+02  0.45594000000E+02  0.51100000000E-03 0.  1.
         11   -1    0    0    0    0 -0.00000000000E+00 -0.00000000000E+00 -0.45593999997E+02  0.45594000000E+02  0.51100000000E-03 0. -1.
    9900012    2    1    2    0    0  0.28683884415E+02 -0.79734881805E+01 -0.11418336982E+02  0.59301950412E+02  0.50000011644E+02 0.  0.
         12    1    1    2    0    0 -0.28683884415E+02  0.79734881805E+01  0.11418336982E+02  0.31886049588E+02  0.00000000000E+00 0. -1.
         11    1    3    3    0    0  0.25515189709E+01  0.54349504718E+01 -0.20830289009E+02  0.21678327337E+02  0.51100000000E-03 0. -1.
        -11    1    3    3    0    0  0.10814935775E+02 -0.15492479554E+02  0.11354899591E+02  0.22043445818E+02  0.51100000000E-03 0.  1.
         12    1    3    3    0    0  0.15317429669E+02  0.20840409016E+01 -0.19429475644E+01  0.15580177258E+02  0.00000000000E+00 0. -1.
</event>
<event>
 7    1  0.4237994E-013  0.5930196E+02  0.7816164E-02  0.1266605E+00
        -11   -1    0    0    0    0  0.00000000000E+00  0.00000000000E+00  0.45593999997E+02  0.45594000000E+02  0.51100000000E-03 0.  1.
         11   -1    0    0    0    0 -0.00000000000E+00 -0.00000000000E+00 -0.45593999997E+02  0.45594000000E+02  0.51100000000E-03 0. -1.
    9900012    2    1    2    0    0  0.24124713159E+02 -0.11248997432E+02  0.17554997198E+02  0.59301958307E+02  0.50000026042E+02 0.  0.
         12    1    1    2    0    0 -0.24124713159E+02  0.11248997432E+02 -0.17554997198E+02  0.31886041693E+02  0.00000000000E+00 0. -1.
         11    1    3    3    0    0  0.25464644973E+02  0.67239034363E+01  0.48396717356E+01  0.26778376421E+02  0.51100000000E-03 0.  1.
        -11    1    3    3    0    0 -0.94695357397E+01 -0.15066428484E+02  0.15345859918E+02  0.23498186979E+02  0.51100000000E-03 0. -1.
        -12    1    3    3    0    0  0.81296039258E+01 -0.29064723837E+01 -0.26305344550E+01  0.90253949069E+01  0.00000000000E+00 0.  1.
</event>
<event>
 7    1  0.4237994E-013  0.5930195E+02  0.7816164E-02  0.1266605E+00
        -11   -1    0    0    0    0  0.00000000000E+00  0.00000000000E+00  0.45593999997E+02  0.45594000000E+02  0.51100000000E-03 0.  1.
         11   -1    0    0    0    0 -0.00000000000E+00 -0.00000000000E+00 -0.45593999997E+02  0.45594000000E+02  0.51100000000E-03 0. -1.
    9900012    2    1    2    0    0  0.21598225426E+02 -0.22049949067E+02 -0.80022922608E+01  0.59301948554E+02  0.50000008254E+02 0.  0.
         12    1    1    2    0    0 -0.21598225426E+02  0.22049949067E+02  0.80022922608E+01  0.31886051446E+02  0.00000000000E+00 0. -1.
         11    1    3    3    0    0  0.39523106307E+00  0.16888022138E+01 -0.10478446237E+01  0.20263857300E+01  0.51100000000E-03 0. -1.
        -11    1    3    3    0    0  0.30588014736E+02 -0.31505693254E+02 -0.15246276761E+01  0.43938136541E+02  0.51100000000E-03 0.  1.
        -12    1    3    3    0    0 -0.93850203727E+01  0.77669419737E+01 -0.54298199610E+01  0.13337426282E+02  0.00000000000E+00 0.  1.
</event>
<event>
 7    1  0.4237994E-013  0.5930194E+02  0.7816164E-02  0.1266605E+00
        -11   -1    0    0    0    0  0.00000000000E+00  0.00000000000E+00  0.45593999997E+02  0.45594000000E+02  0.51100000000E-03 0.  1.
         11   -1    0    0    0    0 -0.00000000000E+00 -0.00000000000E+00 -0.45593999997E+02  0.45594000000E+02  0.51100000000E-03 0. -1.
    9900012    2    1    2    0    0 -0.25852364263E+02  0.18124395566E+02  0.44589568254E+01  0.59301941156E+02  0.49999994763E+02 0.  0.
         12    1    1    2    0    0  0.25852364263E+02 -0.18124395566E+02 -0.44589568254E+01  0.31886058844E+02  0.00000000000E+00 0. -1.
         11    1    3    3    0    0  0.32448616057E+01  0.98273280807E+01 -0.68759507420E+01  0.12425143980E+02  0.51100000000E-03 0. -1.
        -11    1    3    3    0    0 -0.27388091702E+02 -0.73970538313E+01  0.12595115179E+02  0.31039666543E+02  0.51100000000E-03 0.  1.
        -12    1    3    3    0    0 -0.17091341671E+01  0.15694121316E+02 -0.12602076112E+01  0.15837130634E+02  0.00000000000E+00 0.  1.
</event>
<event>
 7    1  0.4237994E-013  0.5930189E+02  0.7816164E-02  0.1266605E+00
        -11   -1    0    0    0    0  0.00000000000E+00  0.00000000000E+00  0.45593999997E+02  0.45594000000E+02  0.51100000000E-03 0.  1.
         11   -1    0    0    0    0 -0.00000000000E+00 -0.00000000000E+00 -0.45593999997E+02  0.45594000000E+02  0.51100000000E-03 0. -1.
    9900012    2    1    2    0    0  0.96208536790E+00  0.89372728459E+01  0.30592864050E+02  0.59301893544E+02  0.49999907929E+02 0.  0.
         12    1    1    2    0    0 -0.96208536790E+00 -0.89372728459E+01 -0.30592864050E+02  0.31886106456E+02  0.00000000000E+00 0. -1.
         11    1    3    3    0    0  0.21015068160E+02 -0.58438036781E+01  0.14863393335E+02  0.26395143358E+02  0.51100000000E-03 0.  1.
        -11    1    3    3    0    0 -0.16106951868E+02  0.12337860028E+02  0.45373577149E+01  0.20790485897E+02  0.51100000000E-03 0. -1.
        -12    1    3    3    0    0 -0.39460309245E+01  0.24432164962E+01  0.11192113000E+02  0.12116264289E+02  0.00000000000E+00 0.  1.
</event>
<event>
 7    1  0.4237994E-013  0.5930195E+02  0.7816164E-02  0.1266605E+00
        -11   -1    0    0    0    0  0.00000000000E+00  0.00000000000E+00  0.45593999997E+02  0.45594000000E+02  0.51100000000E-03 0.  1.
         11   -1    0    0    0    0 -0.00000000000E+00 -0.00000000000E+00 -0.45593999997E+02  0.45594000000E+02  0.51100000000E-03 0. -1.
    9900012    2    1    2    0    0  0.10430355852E+02  0.28740184227E+02  0.90515002119E+01  0.59301950250E+02  0.50000011347E+02 0.  0.
         12    1    1    2    0    0 -0.10430355852E+02 -0.28740184227E+02 -0.90515002119E+01  0.31886049750E+02  0.00000000000E+00 0. -1.
         11    1    3    3    0    0  0.10762370762E+02  0.25930661579E+01 -0.22457486414E+01  0.11295840107E+02  0.51100000000E-03 0. -1.
        -11    1    3    3    0    0  0.59968768775E+01  0.34784691046E+02  0.11982276193E+02  0.37276161370E+02  0.51100000000E-03 0.  1.
        -12    1    3    3    0    0 -0.63288917869E+01 -0.86375729774E+01 -0.68502734001E+00  0.10729948772E+02  0.00000000000E+00 0.  1.
</event>
<event>
 7    1  0.4237994E-013  0.5930190E+02  0.7816164E-02  0.1266605E+00
        -11   -1    0    0    0    0  0.00000000000E+00  0.00000000000E+00  0.45593999997E+02  0.45594000000E+02  0.51100000000E-03 0. -1.
         11   -1    0    0    0    0 -0.00000000000E+00 -0.00000000000E+00 -0.45593999997E+02  0.45594000000E+02  0.51100000000E-03 0.  1.
    9900012    2    1    2    0    0 -0.15244101227E+02  0.26907254861E+02 -0.77679196407E+01  0.59301897041E+02  0.49999914308E+02 0.  0.
         12    1    1    2    0    0  0.15244101227E+02 -0.26907254861E+02  0.77679196407E+01  0.31886102959E+02  0.00000000000E+00 0. -1.
         11    1    3    3    0    0  0.70030423017E+01  0.23911076012E+02  0.68675210368E+01  0.25844631995E+02  0.51100000000E-03 0. -1.
        -11    1    3    3    0    0 -0.12976849973E+02  0.10000345593E+02 -0.14437415648E+02  0.21836769863E+02  0.51100000000E-03 0.  1.
         12    1    3    3    0    0 -0.92702935559E+01 -0.70041667438E+01 -0.19802502944E+00  0.11620495183E+02  0.00000000000E+00 0. -1.
</event>
<event>
 7    1  0.4237994E-013  0.5930193E+02  0.7816164E-02  0.1266605E+00
        -11   -1    0    0    0    0  0.00000000000E+00  0.00000000000E+00  0.45593999997E+02  0.45594000000E+02  0.51100000000E-03 0. -1.
         11   -1    0    0    0    0 -0.00000000000E+00 -0.00000000000E+00 -0.45593999997E+02  0.45594000000E+02  0.51100000000E-03 0.  1.
    9900012    2    1    2    0    0 -0.18858879058E+02 -0.11875816506E+02 -0.22804142769E+02  0.59301933067E+02  0.49999980011E+02 0.  0.
         12    1    1    2    0    0  0.18858879058E+02  0.11875816506E+02  0.22804142769E+02  0.31886066933E+02  0.00000000000E+00 0. -1.
         11    1    3    3    0    0  0.13977187190E+01  0.68897858452E+01 -0.24601206652E+02  0.25585975370E+02  0.51100000000E-03 0. -1.
        -11    1    3    3    0    0 -0.68980973473E+01 -0.87914370714E+01 -0.85713769949E+01  0.14083380867E+02  0.51100000000E-03 0.  1.
         12    1    3    3    0    0 -0.13358500430E+02 -0.99741652799E+01  0.10368440879E+02  0.19632576831E+02  0.00000000000E+00 0. -1.
</event>
<event>
 7    1  0.4237994E-013  0.5930193E+02  0.7816164E-02  0.1266605E+00
        -11   -1    0    0    0    0  0.00000000000E+00  0.00000000000E+00  0.45593999997E+02  0.45594000000E+02  0.51100000000E-03 0.  1.
         11   -1    0    0    0    0 -0.00000000000E+00 -0.00000000000E+00 -0.45593999997E+02  0.45594000000E+02  0.51100000000E-03 0. -1.
    9900012    2    1    2    0    0  0.16224176725E+02 -0.23287827624E+02  0.14531845334E+02  0.59301931653E+02  0.49999977431E+02 0.  0.
         12    1    1    2    0    0 -0.16224176725E+02  0.23287827624E+02 -0.14531845334E+02  0.31886068347E+02  0.00000000000E+00 0. -1.
         11    1    3    3    0    0  0.16268999031E+01 -0.83889830396E+01 -0.19023132030E+01  0.87544637481E+01  0.51100000000E-03 0. -1.
        -11    1    3    3    0    0  0.56071613500E+00  0.13064446399E+02 -0.33882631372E+01  0.13508311873E+02  0.51100000000E-03 0.  1.
        -12    1    3    3    0    0  0.14036560687E+02 -0.27963290984E+02  0.19822421674E+02  0.37039156032E+02  0.00000000000E+00 0.  1.
</event>
<event>
 7    1  0.4237994E-013  0.5930194E+02  0.7816164E-02  0.1266605E+00
        -11   -1    0    0    0    0  0.00000000000E+00  0.00000000000E+00  0.45593999997E+02  0.45594000000E+02  0.51100000000E-03 0. -1.
         11   -1    0    0    0    0 -0.00000000000E+00 -0.00000000000E+00 -0.45593999997E+02  0.45594000000E+02  0.51100000000E-03 0.  1.
    9900012    2    1    2    0    0 -0.21669975966E+02 -0.22161040715E+02 -0.74847373500E+01  0.59301939141E+02  0.49999991087E+02 0.  0.
         12    1    1    2    0    0  0.21669975966E+02  0.22161040715E+02  0.74847373500E+01  0.31886060859E+02  0.00000000000E+00 0. -1.
         11    1    3    3    0    0 -0.24342474639E+02  0.79909422875E+01 -0.99407506418E+01  0.27481443808E+02  0.51100000000E-03 0. -1.
        -11    1    3    3    0    0 -0.23166982859E+01 -0.57470933002E+01 -0.20086499673E+01  0.65138964761E+01  0.51100000000E-03 0.  1.
         12    1    3    3    0    0  0.49891969585E+01 -0.24404889702E+02  0.44646632592E+01  0.25306598856E+02  0.00000000000E+00 0. -1.
</event>
<event>
 7    1  0.4237994E-013  0.5930193E+02  0.7816164E-02  0.1266605E+00
        -11   -1    0    0    0    0  0.00000000000E+00  0.00000000000E+00  0.45593999997E+02  0.45594000000E+02  0.51100000000E-03 0.  1.
         11   -1    0    0    0    0 -0.00000000000E+00 -0.00000000000E+00 -0.45593999997E+02  0.45594000000E+02  0.51100000000E-03 0. -1.
    9900012    2    1    2    0    0 -0.51629175959E+01  0.30344362892E+02  0.83237772057E+01  0.59301931814E+02  0.49999977725E+02 0.  0.
         12    1    1    2    0    0  0.51629175959E+01 -0.30344362892E+02 -0.83237772057E+01  0.31886068186E+02  0.00000000000E+00 0. -1.
         11    1    3    3    0    0 -0.13686036120E+02  0.24363003090E+02 -0.80950854068E+01  0.29092849848E+02  0.51100000000E-03 0. -1.
        -11    1    3    3    0    0  0.11517082406E+02  0.92446588472E+01  0.19754552127E+02  0.24664736656E+02  0.51100000000E-03 0.  1.
        -12    1    3    3    0    0 -0.29939638813E+01 -0.32632990455E+01 -0.33356895140E+01  0.55443453100E+01  0.00000000000E+00 0.  1.
</event>
<event>
 7    1  0.4237994E-013  0.5930195E+02  0.7816164E-02  0.1266605E+00
        -11   -1    0    0    0    0  0.00000000000E+00  0.00000000000E+00  0.45593999997E+02  0.45594000000E+02  0.51100000000E-03 0.  1.
         11   -1    0    0    0    0 -0.00000000000E+00 -0.00000000000E+00 -0.45593999997E+02  0.45594000000E+02  0.51100000000E-03 0. -1.
    9900012    2    1    2    0    0 -0.25308965223E+02 -0.55150687736E+01  0.18594636283E+02  0.59301949716E+02  0.50000010373E+02 0.  0.
         12    1    1    2    0    0  0.25308965223E+02  0.55150687736E+01 -0.18594636283E+02  0.31886050284E+02  0.00000000000E+00 0. -1.
         11    1    3    3    0    0  0.46840990107E+01  0.17767452130E+01  0.17605168318E+02  0.18304085851E+02  0.51100000000E-03 0. -1.
        -11    1    3    3    0    0 -0.30519314036E+02 -0.14594142836E+01 -0.67516169628E+01  0.31291256784E+02  0.51100000000E-03 0.  1.
        -12    1    3    3    0    0  0.52624980180E+00 -0.58323997031E+01  0.77410849279E+01  0.97066070803E+01  0.00000000000E+00 0.  1.
</event>
<event>
 7    1  0.4237994E-013  0.5930195E+02  0.7816164E-02  0.1266605E+00
        -11   -1    0    0    0    0  0.00000000000E+00  0.00000000000E+00  0.45593999997E+02  0.45594000000E+02  0.51100000000E-03 0.  1.
         11   -1    0    0    0    0 -0.00000000000E+00 -0.00000000000E+00 -0.45593999997E+02  0.45594000000E+02  0.51100000000E-03 0. -1.
    9900012    2    1    2    0    0  0.30430085939E+02  0.95022688377E+01 -0.66122055402E+00  0.59301945746E+02  0.50000003133E+02 0.  0.
         12    1    1    2    0    0 -0.30430085939E+02 -0.95022688377E+01  0.66122055402E+00  0.31886054254E+02  0.00000000000E+00 0. -1.
         11    1    3    3    0    0 -0.59751968472E+01  0.13236550810E+02  0.38093186123E+01  0.15013998910E+02  0.51100000000E-03 0. -1.
        -11    1    3    3    0    0  0.15001603699E+02 -0.24376898336E+01  0.10202583298E+02  0.18305276602E+02  0.51100000000E-03 0.  1.
         12    1    3    3    0    0  0.21403679087E+02 -0.12965921385E+01 -0.14673122464E+02  0.25982670234E+02  0.00000000000E+00 0. -1.
</event>
<event>
 7    1  0.4237994E-013  0.5930193E+02  0.7816164E-02  0.1266605E+00
        -11   -1    0    0    0    0  0.00000000000E+00  0.00000000000E+00  0.45593999997E+02  0.45594000000E+02  0.51100000000E-03 0.  1.
         11   -1    0    0    0    0 -0.00000000000E+00 -0.00000000000E+00 -0.45593999997E+02  0.45594000000E+02  0.51100000000E-03 0. -1.
    9900012    2    1    2    0    0 -0.29633830507E+02 -0.32232779045E+01  0.11321129130E+02  0.59301931008E+02  0.49999976256E+02 0.  0.
         12    1    1    2    0    0  0.29633830507E+02  0.32232779045E+01 -0.11321129130E+02  0.31886068992E+02  0.00000000000E+00 0. -1.
         11    1    3    3    0    0 -0.19612939158E+02 -0.22041682639E+02 -0.17879973219E+01  0.29558418271E+02  0.51100000000E-03 0. -1.
        -11    1    3    3    0    0 -0.10865699538E+02  0.38510889193E+01  0.74181228764E+01  0.13708495890E+02  0.51100000000E-03 0.  1.
         12    1    3    3    0    0  0.84480818886E+00  0.14967315815E+02  0.56910035755E+01  0.16035016847E+02  0.00000000000E+00 0. -1.
</event>
<event>
 7    1  0.4237994E-013  0.5930191E+02  0.7816164E-02  0.1266605E+00
        -11   -1    0    0    0    0  0.00000000000E+00  0.00000000000E+00  0.45593999997E+02  0.45594000000E+02  0.51100000000E-03 0. -1.
         11   -1    0    0    0    0 -0.00000000000E+00 -0.00000000000E+00 -0.45593999997E+02  0.45594000000E+02  0.51100000000E-03 0.  1.
    9900012    2    1    2    0    0 -0.17170222815E+02  0.26361330411E+02 -0.51948665972E+01  0.59301906926E+02  0.49999932336E+02 0.  0.
         12    1    1    2    0    0  0.17170222815E+02 -0.26361330411E+02  0.51948665972E+01  0.31886093074E+02  0.00000000000E+00 0. -1.
         11    1    3    3    0    0  0.90691198068E+01 -0.64760361206E+01  0.23776808098E+01  0.11394794610E+02  0.51100000000E-03 0. -1.
        -11    1    3    3    0    0 -0.21786747228E+02  0.35686302664E+02 -0.52722622048E+01  0.42142274519E+02  0.51100000000E-03 0.  1.
        -12    1    3    3    0    0 -0.44525953938E+01 -0.28489361324E+01 -0.23002852022E+01  0.57648377981E+01  0.00000000000E+00 0.  1.
</event>
<event>
 7    1  0.4237994E-013  0.5930193E+02  0.7816164E-02  0.1266605E+00
        -11   -1    0    0    0    0  0.00000000000E+00  0.00000000000E+00  0.45593999997E+02  0.45594000000E+02  0.51100000000E-03 0. -1.
         11   -1    0    0    0    0 -0.00000000000E+00 -0.00000000000E+00 -0.45593999997E+02  0.45594000000E+02  0.51100000000E-03 0.  1.
    9900012    2    1    2    0    0 -0.90950226299E+01  0.13045385581E+02 -0.27637294242E+02  0.59301928517E+02  0.49999971712E+02 0.  0.
         12    1    1    2    0    0  0.90950226299E+01 -0.13045385581E+02  0.27637294242E+02  0.31886071483E+02  0.00000000000E+00 0. -1.
         11    1    3    3    0    0 -0.17636806371E+02 -0.36602973719E+01 -0.81102392524E+00  0.18030875628E+02  0.51100000000E-03 0. -1.
        -11    1    3    3    0    0 -0.14263228211E+01  0.20584586321E+02 -0.16760409413E+02  0.26583282618E+02  0.51100000000E-03 0.  1.
        -12    1    3    3    0    0  0.99681065626E+01 -0.38789033683E+01 -0.10065860904E+02  0.14687770271E+02  0.00000000000E+00 0.  1.
</event>
<event>
 7    1  0.4237994E-013  0.5930173E+02  0.7816164E-02  0.1266606E+00
        -11   -1    0    0    0    0  0.00000000000E+00  0.00000000000E+00  0.45593999997E+02  0.45594000000E+02  0.51100000000E-03 0.  1.
         11   -1    0    0    0    0 -0.00000000000E+00 -0.00000000000E+00 -0.45593999997E+02  0.45594000000E+02  0.51100000000E-03 0. -1.
    9900012    2    1    2    0    0 -0.63865608843E+01 -0.55910814261E+01  0.30735744314E+02  0.59301728189E+02  0.49999606361E+02 0.  0.
         12    1    1    2    0    0  0.63865608843E+01  0.55910814261E+01 -0.30735744314E+02  0.31886271811E+02  0.00000000000E+00 0. -1.
         11    1    3    3    0    0  0.11803591894E+01  0.16630155992E+01 -0.23178325639E+01  0.30872668746E+01  0.51100000000E-03 0. -1.
        -11    1    3    3    0    0 -0.24763352024E+02 -0.11240263985E+02  0.15415230756E+02  0.31260141993E+02  0.51100000000E-03 0.  1.
        -12    1    3    3    0    0  0.17196431950E+02  0.39861669598E+01  0.17638346122E+02  0.24954319321E+02  0.00000000000E+00 0.  1.
</event>
<event>
 7    1  0.4237994E-013  0.5930191E+02  0.7816164E-02  0.1266605E+00
        -11   -1    0    0    0    0  0.00000000000E+00  0.00000000000E+00  0.45593999997E+02  0.45594000000E+02  0.51100000000E-03 0.  1.
         11   -1    0    0    0    0 -0.00000000000E+00 -0.00000000000E+00 -0.45593999997E+02  0.45594000000E+02  0.51100000000E-03 0. -1.
    9900012    2    1    2    0    0 -0.54260252237E+01 -0.33866731014E+01  0.31237983907E+02  0.59301906746E+02  0.49999932007E+02 0.  0.
         12    1    1    2    0    0  0.54260252237E+01  0.33866731014E+01 -0.31237983907E+02  0.31886093254E+02  0.00000000000E+00 0. -1.
         11    1    3    3    0    0 -0.16588765364E+02  0.81600974879E+01  0.34759785674E-01  0.18487172196E+02  0.51100000000E-03 0. -1.
        -11    1    3    3    0    0  0.13897477096E+02 -0.13347902447E+02  0.15375499867E+02  0.24651822768E+02  0.51100000000E-03 0.  1.
         12    1    3    3    0    0 -0.27347369565E+01  0.18011318577E+01  0.15827724254E+02  0.16162911782E+02  0.00000000000E+00 0. -1.
</event>
<event>
 7    1  0.4237994E-013  0.5930182E+02  0.7816164E-02  0.1266605E+00
        -11   -1    0    0    0    0  0.00000000000E+00  0.00000000000E+00  0.45593999997E+02  0.45594000000E+02  0.51100000000E-03 0.  1.
         11   -1    0    0    0    0 -0.00000000000E+00 -0.00000000000E+00 -0.45593999997E+02  0.45594000000E+02  0.51100000000E-03 0. -1.
    9900012    2    1    2    0    0  0.12410192374E+02 -0.15937454796E+02  0.24672109614E+02  0.59301822228E+02  0.49999777865E+02 0.  0.
         12    1    1    2    0    0 -0.12410192374E+02  0.15937454796E+02 -0.24672109614E+02  0.31886177772E+02  0.00000000000E+00 0. -1.
         11    1    3    3    0    0  0.50083418037E+01  0.97098447114E+00 -0.13017084352E+02  0.13981086645E+02  0.51100000000E-03 0. -1.
        -11    1    3    3    0    0  0.33750619609E+00  0.69866473773E+00  0.17863626259E+02  0.17880469407E+02  0.51100000000E-03 0.  1.
         12    1    3    3    0    0  0.70643443745E+01 -0.17607104005E+02  0.19825567707E+02  0.27440266176E+02  0.00000000000E+00 0. -1.
</event>
<event>
 7    1  0.4237994E-013  0.5930192E+02  0.7816164E-02  0.1266605E+00
        -11   -1    0    0    0    0  0.00000000000E+00  0.00000000000E+00  0.45593999997E+02  0.45594000000E+02  0.51100000000E-03 0.  1.
         11   -1    0    0    0    0 -0.00000000000E+00 -0.00000000000E+00 -0.45593999997E+02  0.45594000000E+02  0.51100000000E-03 0. -1.
    9900012    2    1    2    0    0 -0.22565317528E+02  0.79790646471E+01  0.21068063320E+02  0.59301916518E+02  0.49999949829E+02 0.  0.
         12    1    1    2    0    0  0.22565317528E+02 -0.79790646471E+01 -0.21068063320E+02  0.31886083482E+02  0.00000000000E+00 0. -1.
         11    1    3    3    0    0  0.17128007562E+01  0.96358632907E+01  0.70145225438E+01  0.12041057867E+02  0.51100000000E-03 0. -1.
        -11    1    3    3    0    0 -0.20380299424E+02 -0.49893955394E+01 -0.95883360069E+01  0.23069175540E+02  0.51100000000E-03 0.  1.
        -12    1    3    3    0    0 -0.38978188601E+01  0.33325968958E+01  0.23641876783E+02  0.24191683111E+02  0.00000000000E+00 0.  1.
</event>
<event>
 7    1  0.4237994E-013  0.5930197E+02  0.7816164E-02  0.1266605E+00
        -11   -1    0    0    0    0  0.00000000000E+00  0.00000000000E+00  0.45593999997E+02  0.45594000000E+02  0.51100000000E-03 0.  1.
         11   -1    0    0    0    0 -0.00000000000E+00 -0.00000000000E+00 -0.45593999997E+02  0.45594000000E+02  0.51100000000E-03 0. -1.
    9900012    2    1    2    0    0 -0.11923254519E+02  0.20906993740E+02  0.20915367804E+02  0.59301968639E+02  0.50000044885E+02 0.  0.
         12    1    1    2    0    0  0.11923254519E+02 -0.20906993740E+02 -0.20915367804E+02  0.31886031361E+02  0.00000000000E+00 0. -1.
         11    1    3    3    0    0  0.47312725865E+00 -0.34777845733E+01  0.10921938033E+02  0.11472034065E+02  0.51100000000E-03 0. -1.
        -11    1    3    3    0    0 -0.13775306787E+02  0.12213839970E+02 -0.12475604775E+02  0.22239102470E+02  0.51100000000E-03 0.  1.
        -12    1    3    3    0    0  0.13789250090E+01  0.12170938344E+02  0.22469034546E+02  0.25590832104E+02  0.00000000000E+00 0.  1.
</event>
<event>
 7    1  0.4237994E-013  0.5930194E+02  0.7816164E-02  0.1266605E+00
        -11   -1    0    0    0    0  0.00000000000E+00  0.00000000000E+00  0.45593999997E+02  0.45594000000E+02  0.51100000000E-03 0. -1.
         11   -1    0    0    0    0 -0.00000000000E+00 -0.00000000000E+00 -0.45593999997E+02  0.45594000000E+02  0.51100000000E-03 0.  1.
    9900012    2    1    2    0    0 -0.12023580387E+02 -0.28011464481E+02  0.93548051563E+01  0.59301937101E+02  0.49999987368E+02 0.  0.
         12    1    1    2    0    0  0.12023580387E+02  0.28011464481E+02 -0.93548051563E+01  0.31886062899E+02  0.00000000000E+00 0. -1.
         11    1    3    3    0    0  0.17617661854E+02 -0.10406565561E+02  0.13408399482E+02  0.24463519634E+02  0.51100000000E-03 0. -1.
        -11    1    3    3    0    0 -0.17192208749E+02 -0.99944796273E+01 -0.87641295581E+00  0.19905520958E+02  0.51100000000E-03 0.  1.
         12    1    3    3    0    0 -0.12449033492E+02 -0.76104192920E+01 -0.31771813699E+01  0.14932896508E+02  0.00000000000E+00 0. -1.
</event>
<event>
 7    1  0.4237994E-013  0.5930192E+02  0.7816164E-02  0.1266605E+00
        -11   -1    0    0    0    0  0.00000000000E+00  0.00000000000E+00  0.45593999997E+02  0.45594000000E+02  0.51100000000E-03 0. -1.
         11   -1    0    0    0    0 -0.00000000000E+00 -0.00000000000E+00 -0.45593999997E+02  0.45594000000E+02  0.51100000000E-03 0.  1.
    9900012    2    1    2    0    0  0.19355470419E+02  0.22226385116E+02 -0.12168637560E+02  0.59301918859E+02  0.49999954098E+02 0.  0.
         12    1    1    2    0    0 -0.19355470419E+02 -0.22226385116E+02  0.12168637560E+02  0.31886081141E+02  0.00000000000E+00 0. -1.
         11    1    3    3    0    0  0.13140315577E+02  0.32669845554E+02 -0.26938620705E+01  0.35316336094E+02  0.51100000000E-03 0. -1.
        -11    1    3    3    0    0 -0.22013363398E+01 -0.45739600588E+01 -0.12330601386E+02  0.13334568726E+02  0.51100000000E-03 0.  1.
         12    1    3    3    0    0  0.84164911815E+01 -0.58695003790E+01  0.28558258960E+01  0.10651014039E+02  0.00000000000E+00 0. -1.
</event>
<event>
 7    1  0.4237994E-013  0.5930192E+02  0.7816164E-02  0.1266605E+00
        -11   -1    0    0    0    0  0.00000000000E+00  0.00000000000E+00  0.45593999997E+02  0.45594000000E+02  0.51100000000E-03 0.  1.
         11   -1    0    0    0    0 -0.00000000000E+00 -0.00000000000E+00 -0.45593999997E+02  0.45594000000E+02  0.51100000000E-03 0. -1.
    9900012    2    1    2    0    0 -0.38111455799E+00  0.28924902531E+02  0.13413677734E+02  0.59301921767E+02  0.49999959402E+02 0.  0.
         12    1    1    2    0    0  0.38111455799E+00 -0.28924902531E+02 -0.13413677734E+02  0.31886078233E+02  0.00000000000E+00 0. -1.
         11    1    3    3    0    0 -0.90405413215E+01  0.30180488493E+01  0.25872010547E+02  0.27571741625E+02  0.51100000000E-03 0. -1.
        -11    1    3    3    0    0  0.22649382128E+01  0.20134279367E+02 -0.65874840649E+01  0.21305259851E+02  0.51100000000E-03 0.  1.
         12    1    3    3    0    0  0.63944885507E+01  0.57725743143E+01 -0.58708487483E+01  0.10424920291E+02  0.00000000000E+00 0. -1.
</event>
<event>
 7    1  0.4237994E-013  0.5930195E+02  0.7816164E-02  0.1266605E+00
        -11   -1    0    0    0    0  0.00000000000E+00  0.00000000000E+00  0.45593999997E+02  0.45594000000E+02  0.51100000000E-03 0.  1.
         11   -1    0    0    0    0 -0.00000000000E+00 -0.00000000000E+00 -0.45593999997E+02  0.45594000000E+02  0.51100000000E-03 0. -1.
    9900012    2    1    2    0    0  0.31863999803E+02  0.81266943987E+00 -0.86331123268E+00  0.59301949424E+02  0.50000009841E+02 0.  0.
         12    1    1    2    0    0 -0.31863999803E+02 -0.81266943987E+00  0.86331123268E+00  0.31886050576E+02  0.00000000000E+00 0. -1.
         11    1    3    3    0    0 -0.35107165979E+01  0.10561633549E+01 -0.65081304777E+01  0.74696970915E+01  0.51100000000E-03 0. -1.
        -11    1    3    3    0    0  0.79783477916E+01  0.24329828853E+01  0.19358165091E+02  0.21078709523E+02  0.51100000000E-03 0.  1.
        -12    1    3    3    0    0  0.27396368609E+02 -0.26764768003E+01 -0.13713345846E+02  0.30753542809E+02  0.00000000000E+00 0.  1.
</event>
<event>
 7    1  0.4237994E-013  0.5930195E+02  0.7816164E-02  0.1266605E+00
        -11   -1    0    0    0    0  0.00000000000E+00  0.00000000000E+00  0.45593999997E+02  0.45594000000E+02  0.51100000000E-03 0.  1.
         11   -1    0    0    0    0 -0.00000000000E+00 -0.00000000000E+00 -0.45593999997E+02  0.45594000000E+02  0.51100000000E-03 0. -1.
    9900012    2    1    2    0    0  0.15253169002E+01  0.27988947689E+02  0.15199088172E+02  0.59301951865E+02  0.50000014293E+02 0.  0.
         12    1    1    2    0    0 -0.15253169002E+01 -0.27988947689E+02 -0.15199088172E+02  0.31886048135E+02  0.00000000000E+00 0. -1.
         11    1    3    3    0    0  0.11928344553E+02  0.59311004307E+01  0.63145543222E+01  0.14742352344E+02  0.51100000000E-03 0. -1.
        -11    1    3    3    0    0 -0.51255098189E+01  0.28377745456E+02  0.16602015903E+02  0.33274528101E+02  0.51100000000E-03 0.  1.
        -12    1    3    3    0    0 -0.52775178336E+01 -0.63198981972E+01 -0.77174820530E+01  0.11285071420E+02  0.00000000000E+00 0.  1.
</event>
<event>
 7    1  0.4237994E-013  0.5930193E+02  0.7816164E-02  0.1266605E+00
        -11   -1    0    0    0    0  0.00000000000E+00  0.00000000000E+00  0.45593999997E+02  0.45594000000E+02  0.51100000000E-03 0. -1.
         11   -1    0    0    0    0 -0.00000000000E+00 -0.00000000000E+00 -0.45593999997E+02  0.45594000000E+02  0.51100000000E-03 0.  1.
    9900012    2    1    2    0    0 -0.25264514422E+02 -0.19452939743E+02  0.93093692201E-01  0.59301933763E+02  0.49999981280E+02 0.  0.
         12    1    1    2    0    0  0.25264514422E+02  0.19452939743E+02 -0.93093692201E-01  0.31886066237E+02  0.00000000000E+00 0. -1.
         11    1    3    3    0    0 -0.13248567671E+02 -0.68361347910E+01  0.17955602518E+02  0.23337972197E+02  0.51100000000E-03 0. -1.
        -11    1    3    3    0    0 -0.15549495116E+02 -0.35111397818E+01 -0.20383451388E+02  0.25876630222E+02  0.51100000000E-03 0.  1.
         12    1    3    3    0    0  0.35335483652E+01 -0.91056651703E+01  0.25209425615E+01  0.10087331344E+02  0.00000000000E+00 0. -1.
</event>
<event>
 7    1  0.4237994E-013  0.5930194E+02  0.7816164E-02  0.1266605E+00
        -11   -1    0    0    0    0  0.00000000000E+00  0.00000000000E+00  0.45593999997E+02  0.45594000000E+02  0.51100000000E-03 0. -1.
         11   -1    0    0    0    0 -0.00000000000E+00 -0.00000000000E+00 -0.45593999997E+02  0.45594000000E+02  0.51100000000E-03 0.  1.
    9900012    2    1    2    0    0  0.13320428500E+02 -0.28761420046E+02 -0.34738178872E+01  0.59301944911E+02  0.50000001610E+02 0.  0.
         12    1    1    2    0    0 -0.13320428500E+02  0.28761420046E+02  0.34738178872E+01  0.31886055089E+02  0.00000000000E+00 0. -1.
         11    1    3    3    0    0  0.47457907133E+01 -0.36523057569E+00 -0.16078974330E+02  0.16768701161E+02  0.51100000000E-03 0. -1.
        -11    1    3    3    0    0  0.15192129524E+02 -0.50630610185E+01  0.22862919099E+01  0.16175985822E+02  0.51100000000E-03 0.  1.
         12    1    3    3    0    0 -0.66174917378E+01 -0.23333128451E+02  0.10318864533E+02  0.26357257928E+02  0.00000000000E+00 0. -1.
</event>
<event>
 7    1  0.4237994E-013  0.5930193E+02  0.7816164E-02  0.1266605E+00
        -11   -1    0    0    0    0  0.00000000000E+00  0.00000000000E+00  0.45593999997E+02  0.45594000000E+02  0.51100000000E-03 0.  1.
         11   -1    0    0    0    0 -0.00000000000E+00 -0.00000000000E+00 -0.45593999997E+02  0.45594000000E+02  0.51100000000E-03 0. -1.
    9900012    2    1    2    0    0  0.31677341206E+02  0.36408404135E+01  0.10738802639E+00  0.59301934125E+02  0.49999981940E+02 0.  0.
         12    1    1    2    0    0 -0.31677341206E+02 -0.36408404135E+01 -0.10738802639E+00  0.31886065875E+02  0.00000000000E+00 0. -1.
         11    1    3    3    0    0  0.19658047994E+02 -0.17909105317E+02 -0.10489256313E+02  0.28586699748E+02  0.51100000000E-03 0. -1.
        -11    1    3    3    0    0  0.80971685654E+01  0.74156157749E+01 -0.22600079130E+01  0.11209956830E+02  0.51100000000E-03 0.  1.
         12    1    3    3    0    0  0.39221246465E+01  0.14134329956E+02  0.12856652253E+02  0.19505277547E+02  0.00000000000E+00 0. -1.
</event>
<event>
 7    1  0.4237994E-013  0.5930192E+02  0.7816164E-02  0.1266605E+00
        -11   -1    0    0    0    0  0.00000000000E+00  0.00000000000E+00  0.45593999997E+02  0.45594000000E+02  0.51100000000E-03 0.  1.
         11   -1    0    0    0    0 -0.00000000000E+00 -0.00000000000E+00 -0.45593999997E+02  0.45594000000E+02  0.51100000000E-03 0. -1.
    9900012    2    1    2    0    0 -0.41809122039E+01  0.83080043421E+01  0.30499495349E+02  0.59301918718E+02  0.49999953841E+02 0.  0.
         12    1    1    2    0    0  0.41809122039E+01 -0.83080043421E+01 -0.30499495349E+02  0.31886081282E+02  0.00000000000E+00 0. -1.
         11    1    3    3    0    0 -0.16480394848E+01  0.27403288226E+01  0.17180083590E+00  0.32023353959E+01  0.51100000000E-03 0. -1.
        -11    1    3    3    0    0 -0.13538652365E+02 -0.24957390921E+01  0.38020902320E+02  0.40436528474E+02  0.51100000000E-03 0.  1.
        -12    1    3    3    0    0  0.11005779646E+02  0.80634146117E+01 -0.76932078077E+01  0.15663054849E+02  0.00000000000E+00 0.  1.
</event>
<event>
 7    1  0.4237994E-013  0.5930195E+02  0.7816164E-02  0.1266605E+00
        -11   -1    0    0    0    0  0.00000000000E+00  0.00000000000E+00  0.45593999997E+02  0.45594000000E+02  0.51100000000E-03 0. -1.
         11   -1    0    0    0    0 -0.00000000000E+00 -0.00000000000E+00 -0.45593999997E+02  0.45594000000E+02  0.51100000000E-03 0.  1.
    9900012    2    1    2    0    0  0.21558561761E+02  0.16525944299E+02 -0.16698546473E+02  0.59301954862E+02  0.50000019760E+02 0.  0.
         12    1    1    2    0    0 -0.21558561761E+02 -0.16525944299E+02  0.16698546473E+02  0.31886045138E+02  0.00000000000E+00 0. -1.
         11    1    3    3    0    0  0.76918510806E+01 -0.10741518890E+01 -0.10271768019E+02  0.12877406332E+02  0.51100000000E-03 0. -1.
        -11    1    3    3    0    0  0.41052349047E+01  0.24810531237E+02  0.90769930664E+01  0.26735878838E+02  0.51100000000E-03 0.  1.
        -12    1    3    3    0    0  0.97614757760E+01 -0.72104350483E+01 -0.15503771520E+02  0.19688669693E+02  0.00000000000E+00 0.  1.
</event>
<event>
 7    1  0.4237994E-013  0.5930193E+02  0.7816164E-02  0.1266605E+00
        -11   -1    0    0    0    0  0.00000000000E+00  0.00000000000E+00  0.45593999997E+02  0.45594000000E+02  0.51100000000E-03 0.  1.
         11   -1    0    0    0    0 -0.00000000000E+00 -0.00000000000E+00 -0.45593999997E+02  0.45594000000E+02  0.51100000000E-03 0. -1.
    9900012    2    1    2    0    0  0.14488780711E+02  0.26005366730E+02  0.11424439162E+02  0.59301926623E+02  0.49999968258E+02 0.  0.
         12    1    1    2    0    0 -0.14488780711E+02 -0.26005366730E+02 -0.11424439162E+02  0.31886073377E+02  0.00000000000E+00 0. -1.
         11    1    3    3    0    0  0.88179332547E+01  0.34711560620E+01 -0.21376102701E+01  0.97146409722E+01  0.51100000000E-03 0. -1.
        -11    1    3    3    0    0 -0.17187466080E+02  0.16728789126E+02  0.86531597804E+01  0.25497814619E+02  0.51100000000E-03 0.  1.
        -12    1    3    3    0    0  0.22858313536E+02  0.58054215417E+01  0.49088896522E+01  0.24089471032E+02  0.00000000000E+00 0.  1.
</event>
<event>
 7    1  0.4237994E-013  0.5930194E+02  0.7816164E-02  0.1266605E+00
        -11   -1    0    0    0    0  0.00000000000E+00  0.00000000000E+00  0.45593999997E+02  0.45594000000E+02  0.51100000000E-03 0. -1.
         11   -1    0    0    0    0 -0.00000000000E+00 -0.00000000000E+00 -0.45593999997E+02  0.45594000000E+02  0.51100000000E-03 0.  1.
    9900012    2    1    2    0    0  0.26514075805E+02  0.17475390426E+02 -0.28871187791E+01  0.59301938136E+02  0.49999989255E+02 0.  0.
         12    1    1    2    0    0 -0.26514075805E+02 -0.17475390426E+02  0.28871187791E+01  0.31886061864E+02  0.00000000000E+00 0. -1.
         11    1    3    3    0    0 -0.14554249789E+01  0.55613134916E+01 -0.51468366920E+01  0.77159832696E+01  0.51100000000E-03 0. -1.
        -11    1    3    3    0    0  0.32091415828E+02  0.22794189793E+02  0.48671792687E+01  0.39662620846E+02  0.51100000000E-03 0.  1.
        -12    1    3    3    0    0 -0.41219150434E+01 -0.10880112858E+02 -0.26074613558E+01  0.11923334020E+02  0.00000000000E+00 0.  1.
</event>
<event>
 7    1  0.4237994E-013  0.5930195E+02  0.7816164E-02  0.1266605E+00
        -11   -1    0    0    0    0  0.00000000000E+00  0.00000000000E+00  0.45593999997E+02  0.45594000000E+02  0.51100000000E-03 0.  1.
         11   -1    0    0    0    0 -0.00000000000E+00 -0.00000000000E+00 -0.45593999997E+02  0.45594000000E+02  0.51100000000E-03 0. -1.
    9900012    2    1    2    0    0 -0.26980905572E+02 -0.15848944464E+02 -0.61287713804E+01  0.59301950625E+02  0.50000012032E+02 0.  0.
         12    1    1    2    0    0  0.26980905572E+02  0.15848944464E+02  0.61287713804E+01  0.31886049375E+02  0.00000000000E+00 0. -1.
         11    1    3    3    0    0 -0.24386563771E+02 -0.14592932981E+02 -0.62607552582E+01  0.29100777347E+02  0.51100000000E-03 0.  1.
        -11    1    3    3    0    0  0.16270404944E+01  0.10855043497E+02  0.93400708911E+01  0.14412361174E+02  0.51100000000E-03 0. -1.
         12    1    3    3    0    0 -0.42213822960E+01 -0.12111054980E+02 -0.92080870133E+01  0.15788812105E+02  0.00000000000E+00 0. -1.
</event>
<event>
 7    1  0.4237994E-013  0.5930195E+02  0.7816164E-02  0.1266605E+00
        -11   -1    0    0    0    0  0.00000000000E+00  0.00000000000E+00  0.45593999997E+02  0.45594000000E+02  0.51100000000E-03 0.  1.
         11   -1    0    0    0    0 -0.00000000000E+00 -0.00000000000E+00 -0.45593999997E+02  0.45594000000E+02  0.51100000000E-03 0. -1.
    9900012    2    1    2    0    0 -0.27107266961E+02 -0.16787974182E+02 -0.28282831415E+00  0.59301953034E+02  0.50000016426E+02 0.  0.
         12    1    1    2    0    0  0.27107266961E+02  0.16787974182E+02  0.28282831415E+00  0.31886046966E+02  0.00000000000E+00 0. -1.
         11    1    3    3    0    0 -0.17615676100E+02 -0.31969360079E+02  0.59786620177E+00  0.36506293602E+02  0.51100000000E-03 0. -1.
        -11    1    3    3    0    0 -0.60938838144E+01 -0.69337929158E+00 -0.21807926841E+01  0.65093818276E+01  0.51100000000E-03 0.  1.
         12    1    3    3    0    0 -0.33977070464E+01  0.15874765188E+02  0.13000981682E+01  0.16286277604E+02  0.00000000000E+00 0. -1.
</event>
<event>
 7    1  0.4237994E-013  0.5930193E+02  0.7816164E-02  0.1266605E+00
        -11   -1    0    0    0    0  0.00000000000E+00  0.00000000000E+00  0.45593999997E+02  0.45594000000E+02  0.51100000000E-03 0.  1.
         11   -1    0    0    0    0 -0.00000000000E+00 -0.00000000000E+00 -0.45593999997E+02  0.45594000000E+02  0.51100000000E-03 0. -1.
    9900012    2    1    2    0    0 -0.23208032253E+02  0.11270627568E+02  0.18737168064E+02  0.59301932919E+02  0.49999979740E+02 0.  0.
         12    1    1    2    0    0  0.23208032253E+02 -0.11270627568E+02 -0.18737168064E+02  0.31886067081E+02  0.00000000000E+00 0. -1.
         11    1    3    3    0    0  0.78311671656E+01  0.10285657596E+02 -0.10121046681E+02  0.16418206892E+02  0.51100000000E-03 0. -1.
        -11    1    3    3    0    0 -0.23847438675E+02  0.30724006856E+01  0.23902750383E+02  0.33904003503E+02  0.51100000000E-03 0.  1.
         12    1    3    3    0    0 -0.71917607435E+01 -0.20874307133E+01  0.49554643618E+01  0.89797225244E+01  0.00000000000E+00 0. -1.
</event>
<event>
 7    1  0.4237994E-013  0.5930197E+02  0.7816164E-02  0.1266605E+00
        -11   -1    0    0    0    0  0.00000000000E+00  0.00000000000E+00  0.45593999997E+02  0.45594000000E+02  0.51100000000E-03 0.  1.
         11   -1    0    0    0    0 -0.00000000000E+00 -0.00000000000E+00 -0.45593999997E+02  0.45594000000E+02  0.51100000000E-03 0. -1.
    9900012    2    1    2    0    0 -0.17744998538E+02 -0.14899174175E+02  0.21905450305E+02  0.59301966737E+02  0.50000041416E+02 0.  0.
         12    1    1    2    0    0  0.17744998538E+02  0.14899174175E+02 -0.21905450305E+02  0.31886033263E+02  0.00000000000E+00 0. -1.
         11    1    3    3    0    0 -0.24492117544E+01 -0.22480245560E+02  0.58714186865E+01  0.23363082766E+02  0.51100000000E-03 0. -1.
        -11    1    3    3    0    0 -0.11351601248E+00  0.15179070514E+02  0.79429840126E+01  0.17132077015E+02  0.51100000000E-03 0.  1.
        -12    1    3    3    0    0 -0.15182270771E+02 -0.75979991290E+01  0.80910476062E+01  0.18806806956E+02  0.00000000000E+00 0.  1.
</event>
<event>
 7    1  0.4237994E-013  0.5930195E+02  0.7816164E-02  0.1266605E+00
        -11   -1    0    0    0    0  0.00000000000E+00  0.00000000000E+00  0.45593999997E+02  0.45594000000E+02  0.51100000000E-03 0.  1.
         11   -1    0    0    0    0 -0.00000000000E+00 -0.00000000000E+00 -0.45593999997E+02  0.45594000000E+02  0.51100000000E-03 0. -1.
    9900012    2    1    2    0    0  0.10211053750E+02  0.24069005056E+02  0.18252055238E+02  0.59301950645E+02  0.50000012069E+02 0.  0.
         12    1    1    2    0    0 -0.10211053750E+02 -0.24069005056E+02 -0.18252055238E+02  0.31886049355E+02  0.00000000000E+00 0. -1.
         11    1    3    3    0    0  0.10569302833E+01 -0.66670044385E+01  0.44634277884E+01  0.80924803175E+01  0.51100000000E-03 0. -1.
        -11    1    3    3    0    0 -0.83408412380E+00  0.36394863786E+02  0.15566259893E+02  0.39592805580E+02  0.51100000000E-03 0.  1.
        -12    1    3    3    0    0  0.99882075902E+01 -0.56588542921E+01 -0.17776324442E+01  0.11616664748E+02  0.00000000000E+00 0.  1.
</event>
<event>
 7    1  0.4237994E-013  0.5930193E+02  0.7816164E-02  0.1266605E+00
        -11   -1    0    0    0    0  0.00000000000E+00  0.00000000000E+00  0.45593999997E+02  0.45594000000E+02  0.51100000000E-03 0.  1.
         11   -1    0    0    0    0 -0.00000000000E+00 -0.00000000000E+00 -0.45593999997E+02  0.45594000000E+02  0.51100000000E-03 0. -1.
    9900012    2    1    2    0    0 -0.95522158832E+01  0.25530153379E+02  0.16543509694E+02  0.59301932936E+02  0.49999979771E+02 0.  0.
         12    1    1    2    0    0  0.95522158832E+01 -0.25530153379E+02 -0.16543509694E+02  0.31886067064E+02  0.00000000000E+00 0. -1.
         11    1    3    3    0    0  0.79954534817E+01 -0.19327234406E+00  0.19767341772E+02  0.21323987235E+02  0.51100000000E-03 0. -1.
        -11    1    3    3    0    0 -0.84407876307E+01  0.13438261772E+02  0.91394869755E+01  0.18312946178E+02  0.51100000000E-03 0.  1.
         12    1    3    3    0    0 -0.91068817343E+01  0.12285163950E+02 -0.12363319054E+02  0.19664999523E+02  0.00000000000E+00 0. -1.
</event>
<event>
 7    1  0.4237994E-013  0.5930195E+02  0.7816164E-02  0.1266605E+00
        -11   -1    0    0    0    0  0.00000000000E+00  0.00000000000E+00  0.45593999997E+02  0.45594000000E+02  0.51100000000E-03 0.  1.
         11   -1    0    0    0    0 -0.00000000000E+00 -0.00000000000E+00 -0.45593999997E+02  0.45594000000E+02  0.51100000000E-03 0. -1.
    9900012    2    1    2    0    0  0.26377049011E+02  0.13382704606E+02  0.11911126366E+02  0.59301946177E+02  0.50000003920E+02 0.  0.
         12    1    1    2    0    0 -0.26377049011E+02 -0.13382704606E+02 -0.11911126366E+02  0.31886053823E+02  0.00000000000E+00 0. -1.
         11    1    3    3    0    0  0.13435533794E+01  0.51689725468E+01 -0.17535578540E+02  0.18330846349E+02  0.51100000000E-03 0. -1.
        -11    1    3    3    0    0  0.36200616674E+01 -0.24163243331E+01  0.65790475481E+01  0.78884305575E+01  0.51100000000E-03 0.  1.
         12    1    3    3    0    0  0.21413433964E+02  0.10630056392E+02  0.22867657357E+02  0.33082669271E+02  0.00000000000E+00 0. -1.
</event>
<event>
 7    1  0.4237994E-013  0.5930192E+02  0.7816164E-02  0.1266605E+00
        -11   -1    0    0    0    0  0.00000000000E+00  0.00000000000E+00  0.45593999997E+02  0.45594000000E+02  0.51100000000E-03 0.  1.
         11   -1    0    0    0    0 -0.00000000000E+00 -0.00000000000E+00 -0.45593999997E+02  0.45594000000E+02  0.51100000000E-03 0. -1.
    9900012    2    1    2    0    0 -0.12961802049E+02 -0.15187750690E+02  0.24860530662E+02  0.59301920464E+02  0.49999957026E+02 0.  0.
         12    1    1    2    0    0  0.12961802049E+02  0.15187750690E+02 -0.24860530662E+02  0.31886079536E+02  0.00000000000E+00 0. -1.
         11    1    3    3    0    0  0.53964258903E+01  0.13161541764E+02  0.24367029137E+01  0.14432086313E+02  0.51100000000E-03 0. -1.
        -11    1    3    3    0    0 -0.85939919555E+01 -0.22333869737E+02  0.57139960191E+01  0.24603011725E+02  0.51100000000E-03 0.  1.
        -12    1    3    3    0    0 -0.97642359838E+01 -0.60154227169E+01  0.16709831729E+02  0.20266822426E+02  0.00000000000E+00 0.  1.
</event>
<event>
 7    1  0.4237994E-013  0.5930194E+02  0.7816164E-02  0.1266605E+00
        -11   -1    0    0    0    0  0.00000000000E+00  0.00000000000E+00  0.45593999997E+02  0.45594000000E+02  0.51100000000E-03 0.  1.
         11   -1    0    0    0    0 -0.00000000000E+00 -0.00000000000E+00 -0.45593999997E+02  0.45594000000E+02  0.51100000000E-03 0. -1.
    9900012    2    1    2    0    0 -0.23476642938E+02 -0.20197206512E+02  0.75921717716E+01  0.59301937422E+02  0.49999987953E+02 0.  0.
         12    1    1    2    0    0  0.23476642938E+02  0.20197206512E+02 -0.75921717716E+01  0.31886062578E+02  0.00000000000E+00 0. -1.
         11    1    3    3    0    0 -0.35151915116E+02 -0.21761212424E+02 -0.30262988359E+01  0.41453178255E+02  0.51100000000E-03 0. -1.
        -11    1    3    3    0    0  0.97245219594E+00 -0.48084042257E+00  0.58584154281E+01  0.59580116125E+01  0.51100000000E-03 0.  1.
         12    1    3    3    0    0  0.10702819982E+02  0.20448463354E+01  0.47600551793E+01  0.11890747555E+02  0.00000000000E+00 0. -1.
</event>
<event>
 7    1  0.4237994E-013  0.5930193E+02  0.7816164E-02  0.1266605E+00
        -11   -1    0    0    0    0  0.00000000000E+00  0.00000000000E+00  0.45593999997E+02  0.45594000000E+02  0.51100000000E-03 0.  1.
         11   -1    0    0    0    0 -0.00000000000E+00 -0.00000000000E+00 -0.45593999997E+02  0.45594000000E+02  0.51100000000E-03 0. -1.
    9900012    2    1    2    0    0  0.69736089511E+01 -0.28468954406E+02  0.12554231710E+02  0.59301932187E+02  0.49999978405E+02 0.  0.
         12    1    1    2    0    0 -0.69736089511E+01  0.28468954406E+02 -0.12554231710E+02  0.31886067813E+02  0.00000000000E+00 0. -1.
         11    1    3    3    0    0 -0.10831154319E+02 -0.50853726436E+01  0.99465283223E+01  0.15559831128E+02  0.51100000000E-03 0. -1.
        -11    1    3    3    0    0  0.24508498546E+02 -0.24973781156E+02 -0.26270374127E+01  0.35089280016E+02  0.51100000000E-03 0.  1.
        -12    1    3    3    0    0 -0.67037352754E+01  0.15901993939E+01  0.52347408004E+01  0.86528210430E+01  0.00000000000E+00 0.  1.
</event>
<event>
 7    1  0.4237994E-013  0.5930193E+02  0.7816164E-02  0.1266605E+00
        -11   -1    0    0    0    0  0.00000000000E+00  0.00000000000E+00  0.45593999997E+02  0.45594000000E+02  0.51100000000E-03 0. -1.
         11   -1    0    0    0    0 -0.00000000000E+00 -0.00000000000E+00 -0.45593999997E+02  0.45594000000E+02  0.51100000000E-03 0.  1.
    9900012    2    1    2    0    0 -0.21056387068E+02 -0.78640267741E+01 -0.22616523895E+02  0.59301929271E+02  0.49999973087E+02 0.  0.
         12    1    1    2    0    0  0.21056387068E+02  0.78640267741E+01  0.22616523895E+02  0.31886070729E+02  0.00000000000E+00 0. -1.
         11    1    3    3    0    0 -0.30373149641E+02 -0.85824400145E+01 -0.22849675299E+02  0.38965294266E+02  0.51100000000E-03 0.  1.
        -11    1    3    3    0    0  0.10484950178E+02 -0.57330705372E+01  0.42082514717E+01  0.12669319584E+02  0.51100000000E-03 0. -1.
        -12    1    3    3    0    0 -0.11681876048E+01  0.64514837776E+01 -0.39751000677E+01  0.76673154207E+01  0.00000000000E+00 0.  1.
</event>
<event>
 7    1  0.4237994E-013  0.5930194E+02  0.7816164E-02  0.1266605E+00
        -11   -1    0    0    0    0  0.00000000000E+00  0.00000000000E+00  0.45593999997E+02  0.45594000000E+02  0.51100000000E-03 0. -1.
         11   -1    0    0    0    0 -0.00000000000E+00 -0.00000000000E+00 -0.45593999997E+02  0.45594000000E+02  0.51100000000E-03 0.  1.
    9900012    2    1    2    0    0  0.94626303693E+01 -0.92741678444E+01 -0.29002919750E+02  0.59301938519E+02  0.49999989954E+02 0.  0.
         12    1    1    2    0    0 -0.94626303693E+01  0.92741678444E+01  0.29002919750E+02  0.31886061481E+02  0.00000000000E+00 0. -1.
         11    1    3    3    0    0  0.72837028879E+01 -0.18872971233E+02 -0.34027684127E+02  0.39586925344E+02  0.51100000000E-03 0.  1.
        -11    1    3    3    0    0  0.36944116348E+01  0.12335955475E+02 -0.10106227284E+01  0.12916881720E+02  0.51100000000E-03 0. -1.
         12    1    3    3    0    0 -0.15154841533E+01 -0.27371520871E+01  0.60353871054E+01  0.67981314549E+01  0.00000000000E+00 0. -1.
</event>
<event>
 7    1  0.4237994E-013  0.5930195E+02  0.7816164E-02  0.1266605E+00
        -11   -1    0    0    0    0  0.00000000000E+00  0.00000000000E+00  0.45593999997E+02  0.45594000000E+02  0.51100000000E-03 0.  1.
         11   -1    0    0    0    0 -0.00000000000E+00 -0.00000000000E+00 -0.45593999997E+02  0.45594000000E+02  0.51100000000E-03 0. -1.
    9900012    2    1    2    0    0 -0.21547192030E+02  0.22450925728E+02  0.69566251262E+01  0.59301950016E+02  0.50000010921E+02 0.  0.
         12    1    1    2    0    0  0.21547192030E+02 -0.22450925728E+02 -0.69566251262E+01  0.31886049984E+02  0.00000000000E+00 0. -1.
         11    1    3    3    0    0 -0.13173846438E+02 -0.12332202447E+02  0.11886612174E+02  0.21608447338E+02  0.51100000000E-03 0. -1.
        -11    1    3    3    0    0 -0.10719432024E+02  0.23478376597E+02 -0.38888683944E+01  0.26101028489E+02  0.51100000000E-03 0.  1.
         12    1    3    3    0    0  0.23460864309E+01  0.11304751577E+02 -0.10411186531E+01  0.11592474189E+02  0.00000000000E+00 0. -1.
</event>
<event>
 7    1  0.4237994E-013  0.5930194E+02  0.7816164E-02  0.1266605E+00
        -11   -1    0    0    0    0  0.00000000000E+00  0.00000000000E+00  0.45593999997E+02  0.45594000000E+02  0.51100000000E-03 0. -1.
         11   -1    0    0    0    0 -0.00000000000E+00 -0.00000000000E+00 -0.45593999997E+02  0.45594000000E+02  0.51100000000E-03 0.  1.
    9900012    2    1    2    0    0 -0.25738769892E+01 -0.28172633232E+02 -0.14710497974E+02  0.59301939462E+02  0.49999991673E+02 0.  0.
         12    1    1    2    0    0  0.25738769892E+01  0.28172633232E+02  0.14710497974E+02  0.31886060538E+02  0.00000000000E+00 0. -1.
         11    1    3    3    0    0 -0.23999483305E+02 -0.12748527326E+02 -0.16155875516E+02  0.31615067007E+02  0.51100000000E-03 0. -1.
        -11    1    3    3    0    0  0.43416008831E+01  0.19948117126E+00 -0.82928029805E+00  0.44245900420E+01  0.51100000000E-03 0.  1.
         12    1    3    3    0    0  0.17084005433E+02 -0.15623587078E+02  0.22746578401E+01  0.23262282413E+02  0.00000000000E+00 0. -1.
</event>
<event>
 7    1  0.4237994E-013  0.5930193E+02  0.7816164E-02  0.1266605E+00
        -11   -1    0    0    0    0  0.00000000000E+00  0.00000000000E+00  0.45593999997E+02  0.45594000000E+02  0.51100000000E-03 0.  1.
         11   -1    0    0    0    0 -0.00000000000E+00 -0.00000000000E+00 -0.45593999997E+02  0.45594000000E+02  0.51100000000E-03 0. -1.
    9900012    2    1    2    0    0 -0.21108709004E+02 -0.21134891123E+02 -0.11156189246E+02  0.59301925029E+02  0.49999965350E+02 0.  0.
         12    1    1    2    0    0  0.21108709004E+02  0.21134891123E+02  0.11156189246E+02  0.31886074971E+02  0.00000000000E+00 0. -1.
         11    1    3    3    0    0 -0.93369073491E+01 -0.10154171686E+02  0.87870307712E+00  0.13822342813E+02  0.51100000000E-03 0.  1.
        -11    1    3    3    0    0  0.13960522867E+02 -0.55531522315E+01  0.28034705284E+01  0.15283754306E+02  0.51100000000E-03 0. -1.
        -12    1    3    3    0    0 -0.25732324521E+02 -0.54275672058E+01 -0.14838362851E+02  0.30195827910E+02  0.00000000000E+00 0.  1.
</event>
<event>
 7    1  0.4237994E-013  0.5930195E+02  0.7816164E-02  0.1266605E+00
        -11   -1    0    0    0    0  0.00000000000E+00  0.00000000000E+00  0.45593999997E+02  0.45594000000E+02  0.51100000000E-03 0.  1.
         11   -1    0    0    0    0 -0.00000000000E+00 -0.00000000000E+00 -0.45593999997E+02  0.45594000000E+02  0.51100000000E-03 0. -1.
    9900012    2    1    2    0    0  0.31488717843E+02 -0.35085012336E+01 -0.35876821470E+01  0.59301946693E+02  0.50000004860E+02 0.  0.
         12    1    1    2    0    0 -0.31488717843E+02  0.35085012336E+01  0.35876821470E+01  0.31886053307E+02  0.00000000000E+00 0. -1.
         11    1    3    3    0    0  0.51269651249E+00  0.75148888532E+01 -0.18158920973E+01  0.77481531064E+01  0.51100000000E-03 0. -1.
        -11    1    3    3    0    0  0.40202274554E+02 -0.83739681970E+01  0.22938853769E+01  0.41129164021E+02  0.51100000000E-03 0.  1.
        -12    1    3    3    0    0 -0.92262532235E+01 -0.26494218898E+01 -0.40656754266E+01  0.10424629565E+02  0.00000000000E+00 0.  1.
</event>
<event>
 7    1  0.4237994E-013  0.5930195E+02  0.7816164E-02  0.1266605E+00
        -11   -1    0    0    0    0  0.00000000000E+00  0.00000000000E+00  0.45593999997E+02  0.45594000000E+02  0.51100000000E-03 0. -1.
         11   -1    0    0    0    0 -0.00000000000E+00 -0.00000000000E+00 -0.45593999997E+02  0.45594000000E+02  0.51100000000E-03 0.  1.
    9900012    2    1    2    0    0 -0.22754772246E+02 -0.68715495538E+01  0.21253764577E+02  0.59301947219E+02  0.50000005820E+02 0.  0.
         12    1    1    2    0    0  0.22754772246E+02  0.68715495538E+01 -0.21253764577E+02  0.31886052781E+02  0.00000000000E+00 0. -1.
         11    1    3    3    0    0  0.37328243603E+00  0.50029797097E+01  0.14482811338E+02  0.15327131834E+02  0.51100000000E-03 0. -1.
        -11    1    3    3    0    0 -0.27794772874E+02 -0.13405938421E+02  0.15061747890E+02  0.34338387176E+02  0.51100000000E-03 0.  1.
        -12    1    3    3    0    0  0.46667181925E+01  0.15314091573E+01 -0.82907946503E+01  0.96364282091E+01  0.00000000000E+00 0.  1.
</event>
<event>
 7    1  0.4237994E-013  0.5930201E+02  0.7816164E-02  0.1266605E+00
        -11   -1    0    0    0    0  0.00000000000E+00  0.00000000000E+00  0.45593999997E+02  0.45594000000E+02  0.51100000000E-03 0.  1.
         11   -1    0    0    0    0 -0.00000000000E+00 -0.00000000000E+00 -0.45593999997E+02  0.45594000000E+02  0.51100000000E-03 0. -1.
    9900012    2    1    2    0    0 -0.11987522393E+02 -0.25861303017E+02  0.14290167405E+02  0.59302006660E+02  0.50000114225E+02 0.  0.
         12    1    1    2    0    0  0.11987522393E+02  0.25861303017E+02 -0.14290167405E+02  0.31885993340E+02  0.00000000000E+00 0. -1.
         11    1    3    3    0    0  0.49101635668E+00  0.56056260734E+01  0.56714595192E+01  0.79893425309E+01  0.51100000000E-03 0. -1.
        -11    1    3    3    0    0 -0.19922872908E+02 -0.33345381329E+02  0.14685751594E+02  0.41527179305E+02  0.51100000000E-03 0.  1.
        -12    1    3    3    0    0  0.74443341585E+01  0.18784522389E+01 -0.60670437080E+01  0.97854848236E+01  0.00000000000E+00 0.  1.
</event>
<event>
 7    1  0.4237994E-013  0.5930196E+02  0.7816164E-02  0.1266605E+00
        -11   -1    0    0    0    0  0.00000000000E+00  0.00000000000E+00  0.45593999997E+02  0.45594000000E+02  0.51100000000E-03 0. -1.
         11   -1    0    0    0    0 -0.00000000000E+00 -0.00000000000E+00 -0.45593999997E+02  0.45594000000E+02  0.51100000000E-03 0.  1.
    9900012    2    1    2    0    0  0.70355339886E+01 -0.29888779884E+02 -0.85954556036E+01  0.59301956681E+02  0.50000023077E+02 0.  0.
         12    1    1    2    0    0 -0.70355339886E+01  0.29888779884E+02  0.85954556036E+01  0.31886043319E+02  0.00000000000E+00 0. -1.
         11    1    3    3    0    0  0.11841113141E+02  0.71614850952E+00 -0.38023018756E+01  0.12457219952E+02  0.51100000000E-03 0. -1.
        -11    1    3    3    0    0 -0.18721572379E+02 -0.88285361812E+01 -0.32830690703E+01  0.20957549147E+02  0.51100000000E-03 0.  1.
        -12    1    3    3    0    0  0.13915993227E+02 -0.21776392213E+02 -0.15100846577E+01  0.25887187583E+02  0.00000000000E+00 0.  1.
</event>
<event>
 7    1  0.4237994E-013  0.5930193E+02  0.7816164E-02  0.1266605E+00
        -11   -1    0    0    0    0  0.00000000000E+00  0.00000000000E+00  0.45593999997E+02  0.45594000000E+02  0.51100000000E-03 0. -1.
         11   -1    0    0    0    0 -0.00000000000E+00 -0.00000000000E+00 -0.45593999997E+02  0.45594000000E+02  0.51100000000E-03 0.  1.
    9900012    2    1    2    0    0  0.13679505724E+02 -0.28060925280E+02  0.64944002185E+01  0.59301927200E+02  0.49999969310E+02 0.  0.
         12    1    1    2    0    0 -0.13679505724E+02  0.28060925280E+02 -0.64944002185E+01  0.31886072800E+02  0.00000000000E+00 0. -1.
         11    1    3    3    0    0  0.21018891696E+02 -0.20502293179E+02  0.10129943108E+02  0.31060482632E+02  0.51100000000E-03 0. -1.
        -11    1    3    3    0    0 -0.69009386918E+01 -0.31608438767E+01  0.10768416704E+02  0.13174698760E+02  0.51100000000E-03 0.  1.
         12    1    3    3    0    0 -0.43844727979E+00 -0.43977882235E+01 -0.14403959593E+02  0.15066745808E+02  0.00000000000E+00 0. -1.
</event>
<event>
 7    1  0.4237994E-013  0.5930194E+02  0.7816164E-02  0.1266605E+00
        -11   -1    0    0    0    0  0.00000000000E+00  0.00000000000E+00  0.45593999997E+02  0.45594000000E+02  0.51100000000E-03 0.  1.
         11   -1    0    0    0    0 -0.00000000000E+00 -0.00000000000E+00 -0.45593999997E+02  0.45594000000E+02  0.51100000000E-03 0. -1.
    9900012    2    1    2    0    0 -0.11032436945E+02 -0.26163993005E+02  0.14506945376E+02  0.59301942560E+02  0.49999997323E+02 0.  0.
         12    1    1    2    0    0  0.11032436945E+02  0.26163993005E+02 -0.14506945376E+02  0.31886057440E+02  0.00000000000E+00 0. -1.
         11    1    3    3    0    0  0.79314491683E+01 -0.34378248805E+01 -0.49085807613E+01  0.99408596796E+01  0.51100000000E-03 0. -1.
        -11    1    3    3    0    0 -0.80099470242E+01 -0.28415850118E+02  0.21913835384E+02  0.36767322050E+02  0.51100000000E-03 0.  1.
        -12    1    3    3    0    0 -0.10953939089E+02  0.56896819932E+01 -0.24983092461E+01  0.12593760830E+02  0.00000000000E+00 0.  1.
</event>
<event>
 7    1  0.4237994E-013  0.5930194E+02  0.7816164E-02  0.1266605E+00
        -11   -1    0    0    0    0  0.00000000000E+00  0.00000000000E+00  0.45593999997E+02  0.45594000000E+02  0.51100000000E-03 0.  1.
         11   -1    0    0    0    0 -0.00000000000E+00 -0.00000000000E+00 -0.45593999997E+02  0.45594000000E+02  0.51100000000E-03 0. -1.
    9900012    2    1    2    0    0 -0.98139405469E+01 -0.24738965433E+02  0.17561062791E+02  0.59301940882E+02  0.49999994263E+02 0.  0.
         12    1    1    2    0    0  0.98139405469E+01  0.24738965433E+02 -0.17561062791E+02  0.31886059118E+02  0.00000000000E+00 0. -1.
         11    1    3    3    0    0 -0.39641195415E+01  0.11368114073E+00  0.16672098826E+02  0.17137270689E+02  0.51100000000E-03 0.  1.
        -11    1    3    3    0    0  0.33214290966E+00 -0.31767647444E+02 -0.33901272642E+01  0.31949752834E+02  0.51100000000E-03 0. -1.
         12    1    3    3    0    0 -0.61819639151E+01  0.69150008707E+01  0.42790912288E+01  0.10214917358E+02  0.00000000000E+00 0. -1.
</event>
<event>
 7    1  0.4237994E-013  0.5930195E+02  0.7816164E-02  0.1266605E+00
        -11   -1    0    0    0    0  0.00000000000E+00  0.00000000000E+00  0.45593999997E+02  0.45594000000E+02  0.51100000000E-03 0. -1.
         11   -1    0    0    0    0 -0.00000000000E+00 -0.00000000000E+00 -0.45593999997E+02  0.45594000000E+02  0.51100000000E-03 0.  1.
    9900012    2    1    2    0    0  0.12331085561E+02  0.24091917591E+02 -0.16859544412E+02  0.59301946590E+02  0.50000004672E+02 0.  0.
         12    1    1    2    0    0 -0.12331085561E+02 -0.24091917591E+02  0.16859544412E+02  0.31886053410E+02  0.00000000000E+00 0. -1.
         11    1    3    3    0    0 -0.17889191709E+01 -0.35469869541E+01  0.55524863746E+01  0.68272581213E+01  0.51100000000E-03 0. -1.
        -11    1    3    3    0    0 -0.16713316741E+01  0.15011262318E+02 -0.27722055861E+02  0.31569664670E+02  0.51100000000E-03 0.  1.
        -12    1    3    3    0    0  0.15791336406E+02  0.12627642227E+02  0.53100250749E+01  0.20905023798E+02  0.00000000000E+00 0.  1.
</event>
<event>
 7    1  0.4237994E-013  0.5930194E+02  0.7816164E-02  0.1266605E+00
        -11   -1    0    0    0    0  0.00000000000E+00  0.00000000000E+00  0.45593999997E+02  0.45594000000E+02  0.51100000000E-03 0.  1.
         11   -1    0    0    0    0 -0.00000000000E+00 -0.00000000000E+00 -0.45593999997E+02  0.45594000000E+02  0.51100000000E-03 0. -1.
    9900012    2    1    2    0    0 -0.16601162443E+02  0.61334313651E+01  0.26523636197E+02  0.59301939537E+02  0.49999991809E+02 0.  0.
         12    1    1    2    0    0  0.16601162443E+02 -0.61334313651E+01 -0.26523636197E+02  0.31886060463E+02  0.00000000000E+00 0. -1.
         11    1    3    3    0    0  0.56473572119E+01  0.22581220781E+01 -0.91498787665E+01  0.10986903135E+02  0.51100000000E-03 0. -1.
        -11    1    3    3    0    0 -0.14334923576E+02  0.13344410028E+02  0.26435296953E+02  0.32899669271E+02  0.51100000000E-03 0.  1.
        -12    1    3    3    0    0 -0.79135960793E+01 -0.94691007408E+01  0.92382180105E+01  0.15415367130E+02  0.00000000000E+00 0.  1.
</event>
<event>
 7    1  0.4237994E-013  0.5930195E+02  0.7816164E-02  0.1266605E+00
        -11   -1    0    0    0    0  0.00000000000E+00  0.00000000000E+00  0.45593999997E+02  0.45594000000E+02  0.51100000000E-03 0.  1.
         11   -1    0    0    0    0 -0.00000000000E+00 -0.00000000000E+00 -0.45593999997E+02  0.45594000000E+02  0.51100000000E-03 0. -1.
    9900012    2    1    2    0    0  0.46223375695E+01 -0.17970041867E+02  0.25931288371E+02  0.59301950920E+02  0.50000012570E+02 0.  0.
         12    1    1    2    0    0 -0.46223375695E+01  0.17970041867E+02 -0.25931288371E+02  0.31886049080E+02  0.00000000000E+00 0. -1.
         11    1    3    3    0    0  0.18606333784E+02 -0.20171984530E+01 -0.41112658274E+00  0.18719876383E+02  0.51100000000E-03 0. -1.
        -11    1    3    3    0    0 -0.25281674737E+01 -0.83064188536E+01  0.25324054068E+02  0.26771177405E+02  0.51100000000E-03 0.  1.
         12    1    3    3    0    0 -0.11455828741E+02 -0.76464245604E+01  0.10183608858E+01  0.13810897132E+02  0.00000000000E+00 0. -1.
</event>
<event>
 7    1  0.4237994E-013  0.5930194E+02  0.7816164E-02  0.1266605E+00
        -11   -1    0    0    0    0  0.00000000000E+00  0.00000000000E+00  0.45593999997E+02  0.45594000000E+02  0.51100000000E-03 0.  1.
         11   -1    0    0    0    0 -0.00000000000E+00 -0.00000000000E+00 -0.45593999997E+02  0.45594000000E+02  0.51100000000E-03 0. -1.
    9900012    2    1    2    0    0 -0.58256922399E+00 -0.23188454770E+02  0.21878689185E+02  0.59301939378E+02  0.49999991520E+02 0.  0.
         12    1    1    2    0    0  0.58256922399E+00  0.23188454770E+02 -0.21878689185E+02  0.31886060622E+02  0.00000000000E+00 0. -1.
         11    1    3    3    0    0 -0.64476066007E+01  0.98244672596E+01  0.29604974797E+01  0.12118429494E+02  0.51100000000E-03 0. -1.
        -11    1    3    3    0    0 -0.22235089410E+01 -0.32941648041E+02  0.20607699614E+02  0.38920090587E+02  0.51100000000E-03 0.  1.
        -12    1    3    3    0    0  0.80885463177E+01 -0.71273988842E-01 -0.16895079081E+01  0.82634192975E+01  0.00000000000E+00 0.  1.
</event>
<event>
 7    1  0.4237994E-013  0.5930193E+02  0.7816164E-02  0.1266605E+00
        -11   -1    0    0    0    0  0.00000000000E+00  0.00000000000E+00  0.45593999997E+02  0.45594000000E+02  0.51100000000E-03 0. -1.
         11   -1    0    0    0    0 -0.00000000000E+00 -0.00000000000E+00 -0.45593999997E+02  0.45594000000E+02  0.51100000000E-03 0.  1.
    9900012    2    1    2    0    0  0.21129792859E+02  0.53734539318E+01 -0.23267555872E+02  0.59301932358E+02  0.49999978716E+02 0.  0.
         12    1    1    2    0    0 -0.21129792859E+02 -0.53734539318E+01  0.23267555872E+02  0.31886067642E+02  0.00000000000E+00 0. -1.
         11    1    3    3    0    0  0.26712664360E+02  0.81901500550E+01 -0.30061650601E+02  0.41040806915E+02  0.51100000000E-03 0. -1.
        -11    1    3    3    0    0 -0.13889557505E+01 -0.84023669207E+01 -0.84021192142E-03  0.85163941263E+01  0.51100000000E-03 0.  1.
         12    1    3    3    0    0 -0.41939157498E+01  0.55856707975E+01  0.67949349410E+01  0.97447313162E+01  0.00000000000E+00 0. -1.
</event>
<event>
 7    1  0.4237994E-013  0.5930194E+02  0.7816164E-02  0.1266605E+00
        -11   -1    0    0    0    0  0.00000000000E+00  0.00000000000E+00  0.45593999997E+02  0.45594000000E+02  0.51100000000E-03 0.  1.
         11   -1    0    0    0    0 -0.00000000000E+00 -0.00000000000E+00 -0.45593999997E+02  0.45594000000E+02  0.51100000000E-03 0. -1.
    9900012    2    1    2    0    0 -0.30565254592E+02  0.59236639755E+01  0.68844805943E+01  0.59301942605E+02  0.49999997405E+02 0.  0.
         12    1    1    2    0    0  0.30565254592E+02 -0.59236639755E+01 -0.68844805943E+01  0.31886057395E+02  0.00000000000E+00 0. -1.
         11    1    3    3    0    0  0.34578273247E+00  0.21983298504E+02  0.14193787344E+01  0.22031786470E+02  0.51100000000E-03 0. -1.
        -11    1    3    3    0    0 -0.22303607609E+01 -0.17217518361E+01  0.43538485401E+01  0.51860327689E+01  0.51100000000E-03 0.  1.
         12    1    3    3    0    0 -0.28680676563E+02 -0.14337882692E+02  0.11112533198E+01  0.32084123366E+02  0.00000000000E+00 0. -1.
</event>
<event>
 7    1  0.4237994E-013  0.5930194E+02  0.7816164E-02  0.1266605E+00
        -11   -1    0    0    0    0  0.00000000000E+00  0.00000000000E+00  0.45593999997E+02  0.45594000000E+02  0.51100000000E-03 0.  1.
         11   -1    0    0    0    0 -0.00000000000E+00 -0.00000000000E+00 -0.45593999997E+02  0.45594000000E+02  0.51100000000E-03 0. -1.
    9900012    2    1    2    0    0 -0.69583971153E-01 -0.16571285814E+02  0.27241669837E+02  0.59301938297E+02  0.49999989548E+02 0.  0.
         12    1    1    2    0    0  0.69583971153E-01  0.16571285814E+02 -0.27241669837E+02  0.31886061703E+02  0.00000000000E+00 0. -1.
         11    1    3    3    0    0 -0.22151888267E+01  0.21724295027E+01 -0.55035884433E+01  0.63179108490E+01  0.51100000000E-03 0. -1.
        -11    1    3    3    0    0  0.14829538785E+02  0.18775291789E+01  0.21757205294E+02  0.26397278627E+02  0.51100000000E-03 0.  1.
        -12    1    3    3    0    0 -0.12683933930E+02 -0.20621244495E+02  0.10988052986E+02  0.26586748821E+02  0.00000000000E+00 0.  1.
</event>
<event>
 7    1  0.4237994E-013  0.5930194E+02  0.7816164E-02  0.1266605E+00
        -11   -1    0    0    0    0  0.00000000000E+00  0.00000000000E+00  0.45593999997E+02  0.45594000000E+02  0.51100000000E-03 0. -1.
         11   -1    0    0    0    0 -0.00000000000E+00 -0.00000000000E+00 -0.45593999997E+02  0.45594000000E+02  0.51100000000E-03 0.  1.
    9900012    2    1    2    0    0 -0.25344676853E+02  0.15194978930E+02  0.11978334522E+02  0.59301944624E+02  0.50000001088E+02 0.  0.
         12    1    1    2    0    0  0.25344676853E+02 -0.15194978930E+02 -0.11978334522E+02  0.31886055376E+02  0.00000000000E+00 0. -1.
         11    1    3    3    0    0 -0.11129249757E+02  0.14826286924E+02  0.29705788590E+02  0.35015894393E+02  0.51100000000E-03 0. -1.
        -11    1    3    3    0    0 -0.11607725474E+02  0.37485034512E+01 -0.14410709924E+02  0.18880125254E+02  0.51100000000E-03 0.  1.
         12    1    3    3    0    0 -0.26077016224E+01 -0.33798114449E+01 -0.33167441437E+01  0.54059249782E+01  0.00000000000E+00 0. -1.
</event>
<event>
 7    1  0.4237994E-013  0.5930193E+02  0.7816164E-02  0.1266605E+00
        -11   -1    0    0    0    0  0.00000000000E+00  0.00000000000E+00  0.45593999997E+02  0.45594000000E+02  0.51100000000E-03 0.  1.
         11   -1    0    0    0    0 -0.00000000000E+00 -0.00000000000E+00 -0.45593999997E+02  0.45594000000E+02  0.51100000000E-03 0. -1.
    9900012    2    1    2    0    0 -0.15815924389E+01  0.27098218362E+01  0.31731320010E+02  0.59301933472E+02  0.49999980749E+02 0.  0.
         12    1    1    2    0    0  0.15815924389E+01 -0.27098218362E+01 -0.31731320010E+02  0.31886066528E+02  0.00000000000E+00 0. -1.
         11    1    3    3    0    0  0.43812456126E+01  0.20569468590E+01 -0.28944176523E+01  0.56395032853E+01  0.51100000000E-03 0. -1.
        -11    1    3    3    0    0 -0.20301434416E+02  0.11108358806E+02  0.17647970951E+02  0.29103174288E+02  0.51100000000E-03 0.  1.
        -12    1    3    3    0    0  0.14338596364E+02 -0.10455483829E+02  0.16977766711E+02  0.24559255899E+02  0.00000000000E+00 0.  1.
</event>
<event>
 7    1  0.4237994E-013  0.5930194E+02  0.7816164E-02  0.1266605E+00
        -11   -1    0    0    0    0  0.00000000000E+00  0.00000000000E+00  0.45593999997E+02  0.45594000000E+02  0.51100000000E-03 0.  1.
         11   -1    0    0    0    0 -0.00000000000E+00 -0.00000000000E+00 -0.45593999997E+02  0.45594000000E+02  0.51100000000E-03 0. -1.
    9900012    2    1    2    0    0 -0.13669739637E+02  0.20172907069E+02  0.20564848247E+02  0.59301938080E+02  0.49999989152E+02 0.  0.
         12    1    1    2    0    0  0.13669739637E+02 -0.20172907069E+02 -0.20564848247E+02  0.31886061920E+02  0.00000000000E+00 0. -1.
         11    1    3    3    0    0 -0.10185796904E+02  0.16452008490E+02 -0.23786191326E+00  0.19351372573E+02  0.51100000000E-03 0. -1.
        -11    1    3    3    0    0 -0.16494218573E+01 -0.36394626269E+01  0.28713733342E+02  0.28990425374E+02  0.51100000000E-03 0.  1.
        -12    1    3    3    0    0 -0.18345208752E+01  0.73603612066E+01 -0.79110231817E+01  0.10960140132E+02  0.00000000000E+00 0.  1.
</event>
<event>
 7    1  0.4237994E-013  0.5930196E+02  0.7816164E-02  0.1266605E+00
        -11   -1    0    0    0    0  0.00000000000E+00  0.00000000000E+00  0.45593999997E+02  0.45594000000E+02  0.51100000000E-03 0.  1.
         11   -1    0    0    0    0 -0.00000000000E+00 -0.00000000000E+00 -0.45593999997E+02  0.45594000000E+02  0.51100000000E-03 0. -1.
    9900012    2    1    2    0    0 -0.99159748491E+01  0.24455425195E+02  0.17897637123E+02  0.59301956136E+02  0.50000022083E+02 0.  0.
         12    1    1    2    0    0  0.99159748491E+01 -0.24455425195E+02 -0.17897637123E+02  0.31886043864E+02  0.00000000000E+00 0. -1.
         11    1    3    3    0    0 -0.22745659152E+02  0.96810505547E+01  0.92721698980E+00  0.24737572268E+02  0.51100000000E-03 0. -1.
        -11    1    3    3    0    0  0.16478956089E+02  0.28414131304E+01  0.13821326481E+02  0.21694669582E+02  0.51100000000E-03 0.  1.
        -12    1    3    3    0    0 -0.36492717852E+01  0.11932961510E+02  0.31490936523E+01  0.12869714286E+02  0.00000000000E+00 0.  1.
</event>
<event>
 7    1  0.4237994E-013  0.5930173E+02  0.7816164E-02  0.1266605E+00
        -11   -1    0    0    0    0  0.00000000000E+00  0.00000000000E+00  0.45593999997E+02  0.45594000000E+02  0.51100000000E-03 0.  1.
         11   -1    0    0    0    0 -0.00000000000E+00 -0.00000000000E+00 -0.45593999997E+02  0.45594000000E+02  0.51100000000E-03 0. -1.
    9900012    2    1    2    0    0  0.17574887896E+02 -0.15305664395E+02  0.21762215295E+02  0.59301732397E+02  0.49999614034E+02 0.  0.
         12    1    1    2    0    0 -0.17574887896E+02  0.15305664395E+02 -0.21762215295E+02  0.31886267603E+02  0.00000000000E+00 0. -1.
         11    1    3    3    0    0  0.59596676589E+01  0.43204641447E+01 -0.13015791651E+02  0.14953089367E+02  0.51100000000E-03 0. -1.
        -11    1    3    3    0    0  0.72834749791E+01 -0.20159853146E+02  0.21450903566E+02  0.30325071322E+02  0.51100000000E-03 0.  1.
         12    1    3    3    0    0  0.43317452577E+01  0.53372460625E+00  0.13327103380E+02  0.14023571708E+02  0.00000000000E+00 0. -1.
</event>
<event>
 7    1  0.4237994E-013  0.5930195E+02  0.7816164E-02  0.1266605E+00
        -11   -1    0    0    0    0  0.00000000000E+00  0.00000000000E+00  0.45593999997E+02  0.45594000000E+02  0.51100000000E-03 0.  1.
         11   -1    0    0    0    0 -0.00000000000E+00 -0.00000000000E+00 -0.45593999997E+02  0.45594000000E+02  0.51100000000E-03 0. -1.
    9900012    2    1    2    0    0  0.19560449514E+00  0.29305382086E+02  0.12564885597E+02  0.59301952418E+02  0.50000015302E+02 0.  0.
         12    1    1    2    0    0 -0.19560449514E+00 -0.29305382086E+02 -0.12564885597E+02  0.31886047582E+02  0.00000000000E+00 0. -1.
         11    1    3    3    0    0 -0.37277847349E+01  0.13889803967E+02 -0.14215465651E+02  0.20221337671E+02  0.51100000000E-03 0. -1.
        -11    1    3    3    0    0 -0.70276042659E+01  0.13370897053E+02  0.22597145312E+02  0.27180858821E+02  0.51100000000E-03 0.  1.
        -12    1    3    3    0    0  0.10950993496E+02  0.20446810664E+01  0.41832059347E+01  0.11899755926E+02  0.00000000000E+00 0.  1.
</event>
<event>
 7    1  0.4237994E-013  0.5930194E+02  0.7816164E-02  0.1266605E+00
        -11   -1    0    0    0    0  0.00000000000E+00  0.00000000000E+00  0.45593999997E+02  0.45594000000E+02  0.51100000000E-03 0. -1.
         11   -1    0    0    0    0 -0.00000000000E+00 -0.00000000000E+00 -0.45593999997E+02  0.45594000000E+02  0.51100000000E-03 0.  1.
    9900012    2    1    2    0    0  0.42635038536E+01 -0.30474611543E+02  0.83571151846E+01  0.59301940538E+02  0.49999993636E+02 0.  0.
         12    1    1    2    0    0 -0.42635038536E+01  0.30474611543E+02 -0.83571151846E+01  0.31886059462E+02  0.00000000000E+00 0. -1.
         11    1    3    3    0    0 -0.12751239316E+01  0.94156647908E+01  0.10727780387E+02  0.14330595130E+02  0.51100000000E-03 0. -1.
        -11    1    3    3    0    0 -0.17589791456E+01 -0.20987596552E+02 -0.10007062454E+02  0.23317686761E+02  0.51100000000E-03 0.  1.
         12    1    3    3    0    0  0.72976069309E+01 -0.18902679781E+02  0.76363972520E+01  0.21653658647E+02  0.00000000000E+00 0. -1.
</event>
<event>
 7    1  0.4237994E-013  0.5930195E+02  0.7816164E-02  0.1266605E+00
        -11   -1    0    0    0    0  0.00000000000E+00  0.00000000000E+00  0.45593999997E+02  0.45594000000E+02  0.51100000000E-03 0. -1.
         11   -1    0    0    0    0 -0.00000000000E+00 -0.00000000000E+00 -0.45593999997E+02  0.45594000000E+02  0.51100000000E-03 0.  1.
    9900012    2    1    2    0    0  0.24069451264E+02 -0.18155879409E+02 -0.10380078159E+02  0.59301945621E+02  0.50000002906E+02 0.  0.
         12    1    1    2    0    0 -0.24069451264E+02  0.18155879409E+02  0.10380078159E+02  0.31886054379E+02  0.00000000000E+00 0. -1.
         11    1    3    3    0    0 -0.47662444738E+01 -0.11443353964E+02  0.66061899271E+00  0.12413857340E+02  0.51100000000E-03 0. -1.
        -11    1    3    3    0    0  0.20668376075E+02  0.12344328546E+02 -0.10176905222E+02  0.26136824922E+02  0.51100000000E-03 0.  1.
        -12    1    3    3    0    0  0.81673196634E+01 -0.19056853991E+02 -0.86379192947E+00  0.20751263360E+02  0.00000000000E+00 0.  1.
</event>
<event>
 7    1  0.4237994E-013  0.5930195E+02  0.7816164E-02  0.1266605E+00
        -11   -1    0    0    0    0  0.00000000000E+00  0.00000000000E+00  0.45593999997E+02  0.45594000000E+02  0.51100000000E-03 0.  1.
         11   -1    0    0    0    0 -0.00000000000E+00 -0.00000000000E+00 -0.45593999997E+02  0.45594000000E+02  0.51100000000E-03 0. -1.
    9900012    2    1    2    0    0 -0.21561731009E+02 -0.32463027044E+00  0.23488433604E+02  0.59301950667E+02  0.50000012108E+02 0.  0.
         12    1    1    2    0    0  0.21561731009E+02  0.32463027044E+00 -0.23488433604E+02  0.31886049333E+02  0.00000000000E+00 0. -1.
         11    1    3    3    0    0 -0.14058991555E+01  0.16936108400E+02  0.37873519690E-02  0.16994361852E+02  0.51100000000E-03 0. -1.
        -11    1    3    3    0    0 -0.23488178294E+02 -0.17554240130E+02  0.14483687213E+02  0.32705092289E+02  0.51100000000E-03 0.  1.
        -12    1    3    3    0    0  0.33323464399E+01  0.29350145964E+00  0.90009590389E+01  0.96024965255E+01  0.00000000000E+00 0.  1.
</event>
<event>
 7    1  0.4237994E-013  0.5930193E+02  0.7816164E-02  0.1266605E+00
        -11   -1    0    0    0    0  0.00000000000E+00  0.00000000000E+00  0.45593999997E+02  0.45594000000E+02  0.51100000000E-03 0. -1.
         11   -1    0    0    0    0 -0.00000000000E+00 -0.00000000000E+00 -0.45593999997E+02  0.45594000000E+02  0.51100000000E-03 0.  1.
    9900012    2    1    2    0    0 -0.99207910232E+01  0.13428343886E+02 -0.27165765604E+02  0.59301931963E+02  0.49999977996E+02 0.  0.
         12    1    1    2    0    0  0.99207910232E+01 -0.13428343886E+02  0.27165765604E+02  0.31886068037E+02  0.00000000000E+00 0. -1.
         11    1    3    3    0    0 -0.15597780562E+02 -0.67307181448E+01 -0.19374184692E+02  0.25767273001E+02  0.51100000000E-03 0. -1.
        -11    1    3    3    0    0  0.13854611960E+02  0.19831550387E+02 -0.75663111858E+01  0.25347381099E+02  0.51100000000E-03 0.  1.
         12    1    3    3    0    0 -0.81776224217E+01  0.32751164309E+00 -0.22526972640E+00  0.81872778625E+01  0.00000000000E+00 0. -1.
</event>
<event>
 7    1  0.4237994E-013  0.5930194E+02  0.7816164E-02  0.1266605E+00
        -11   -1    0    0    0    0  0.00000000000E+00  0.00000000000E+00  0.45593999997E+02  0.45594000000E+02  0.51100000000E-03 0.  1.
         11   -1    0    0    0    0 -0.00000000000E+00 -0.00000000000E+00 -0.45593999997E+02  0.45594000000E+02  0.51100000000E-03 0. -1.
    9900012    2    1    2    0    0 -0.16852296414E+02 -0.16494798161E+02  0.21462584509E+02  0.59301940435E+02  0.49999993448E+02 0.  0.
         12    1    1    2    0    0  0.16852296414E+02  0.16494798161E+02 -0.21462584509E+02  0.31886059565E+02  0.00000000000E+00 0. -1.
         11    1    3    3    0    0  0.48672952366E+01 -0.20766406612E+02 -0.14341292285E+00  0.21329668868E+02  0.51100000000E-03 0.  1.
        -11    1    3    3    0    0 -0.21916786929E+01  0.88078766750E+01  0.13674141486E+02  0.16412321367E+02  0.51100000000E-03 0. -1.
        -12    1    3    3    0    0 -0.19527912957E+02 -0.45362682234E+01  0.79318559463E+01  0.21559950200E+02  0.00000000000E+00 0.  1.
</event>
<event>
 7    1  0.4237994E-013  0.5930197E+02  0.7816164E-02  0.1266605E+00
        -11   -1    0    0    0    0  0.00000000000E+00  0.00000000000E+00  0.45593999997E+02  0.45594000000E+02  0.51100000000E-03 0. -1.
         11   -1    0    0    0    0 -0.00000000000E+00 -0.00000000000E+00 -0.45593999997E+02  0.45594000000E+02  0.51100000000E-03 0.  1.
    9900012    2    1    2    0    0  0.10954561302E+01  0.31738594251E+02 -0.28601908847E+01  0.59301967305E+02  0.50000042452E+02 0.  0.
         12    1    1    2    0    0 -0.10954561302E+01 -0.31738594251E+02  0.28601908847E+01  0.31886032695E+02  0.00000000000E+00 0. -1.
         11    1    3    3    0    0  0.34663081707E+01  0.18890938385E+02 -0.94986641602E+01  0.21426793192E+02  0.51100000000E-03 0.  1.
        -11    1    3    3    0    0  0.72079648951E+01  0.96608273059E-01  0.17266026845E+02  0.18710418871E+02  0.51100000000E-03 0. -1.
         12    1    3    3    0    0 -0.95788169356E+01  0.12751047593E+02 -0.10627553569E+02  0.19164755241E+02  0.00000000000E+00 0. -1.
</event>
<event>
 7    1  0.4237994E-013  0.5930197E+02  0.7816164E-02  0.1266605E+00
        -11   -1    0    0    0    0  0.00000000000E+00  0.00000000000E+00  0.45593999997E+02  0.45594000000E+02  0.51100000000E-03 0.  1.
         11   -1    0    0    0    0 -0.00000000000E+00 -0.00000000000E+00 -0.45593999997E+02  0.45594000000E+02  0.51100000000E-03 0. -1.
    9900012    2    1    2    0    0 -0.70845768283E+01  0.22292646662E+02  0.21669457871E+02  0.59301972834E+02  0.50000052536E+02 0.  0.
         12    1    1    2    0    0  0.70845768283E+01 -0.22292646662E+02 -0.21669457871E+02  0.31886027166E+02  0.00000000000E+00 0. -1.
         11    1    3    3    0    0 -0.15864395269E+02 -0.79860287796E+01  0.55781838879E+01  0.18616439742E+02  0.51100000000E-03 0. -1.
        -11    1    3    3    0    0  0.96816896801E+00  0.24218021574E+02  0.32125998795E+01  0.24449350060E+02  0.51100000000E-03 0.  1.
         12    1    3    3    0    0  0.78116494732E+01  0.60606538671E+01  0.12878674103E+02  0.16236183032E+02  0.00000000000E+00 0. -1.
</event>
<event>
 7    1  0.4237994E-013  0.5930191E+02  0.7816164E-02  0.1266605E+00
        -11   -1    0    0    0    0  0.00000000000E+00  0.00000000000E+00  0.45593999997E+02  0.45594000000E+02  0.51100000000E-03 0.  1.
         11   -1    0    0    0    0 -0.00000000000E+00 -0.00000000000E+00 -0.45593999997E+02  0.45594000000E+02  0.51100000000E-03 0. -1.
    9900012    2    1    2    0    0  0.21931973935E+02 -0.21711058570E+02 -0.80213043602E+01  0.59301907913E+02  0.49999934135E+02 0.  0.
         12    1    1    2    0    0 -0.21931973935E+02  0.21711058570E+02  0.80213043602E+01  0.31886092087E+02  0.00000000000E+00 0. -1.
         11    1    3    3    0    0 -0.62532828937E+01 -0.24307624327E+02  0.48599040601E+00  0.25103791234E+02  0.51100000000E-03 0. -1.
        -11    1    3    3    0    0  0.41160435760E+01  0.43410382670E+01  0.38217557686E+01  0.70987495639E+01  0.51100000000E-03 0.  1.
         12    1    3    3    0    0  0.24069213253E+02 -0.17444725104E+01 -0.12329050535E+02  0.27099367115E+02  0.00000000000E+00 0. -1.
</event>
<event>
 7    1  0.4237994E-013  0.5930195E+02  0.7816164E-02  0.1266605E+00
        -11   -1    0    0    0    0  0.00000000000E+00  0.00000000000E+00  0.45593999997E+02  0.45594000000E+02  0.51100000000E-03 0.  1.
         11   -1    0    0    0    0 -0.00000000000E+00 -0.00000000000E+00 -0.45593999997E+02  0.45594000000E+02  0.51100000000E-03 0. -1.
    9900012    2    1    2    0    0 -0.90630576158E+01 -0.24602702544E+02  0.18146306343E+02  0.59301946313E+02  0.50000004168E+02 0.  0.
         12    1    1    2    0    0  0.90630576158E+01  0.24602702544E+02 -0.18146306343E+02  0.31886053687E+02  0.00000000000E+00 0. -1.
         11    1    3    3    0    0  0.95634439024E+01  0.59404386969E+01  0.12827858047E+02  0.17067577846E+02  0.51100000000E-03 0. -1.
        -11    1    3    3    0    0 -0.20565763329E+02 -0.14158711979E+02  0.23249740489E+00  0.24969457373E+02  0.51100000000E-03 0.  1.
         12    1    3    3    0    0  0.19392618112E+01 -0.16384429262E+02  0.50859508912E+01  0.17264911094E+02  0.00000000000E+00 0. -1.
</event>
<event>
 7    1  0.4237994E-013  0.5930190E+02  0.7816164E-02  0.1266605E+00
        -11   -1    0    0    0    0  0.00000000000E+00  0.00000000000E+00  0.45593999997E+02  0.45594000000E+02  0.51100000000E-03 0. -1.
         11   -1    0    0    0    0 -0.00000000000E+00 -0.00000000000E+00 -0.45593999997E+02  0.45594000000E+02  0.51100000000E-03 0.  1.
    9900012    2    1    2    0    0  0.19518964666E+02  0.89166385223E+01  0.23584466537E+02  0.59301898232E+02  0.49999916479E+02 0.  0.
         12    1    1    2    0    0 -0.19518964666E+02 -0.89166385223E+01 -0.23584466537E+02  0.31886101768E+02  0.00000000000E+00 0. -1.
         11    1    3    3    0    0  0.22066118971E+00  0.11279322231E+02  0.87942869689E+01  0.14304240102E+02  0.51100000000E-03 0. -1.
        -11    1    3    3    0    0  0.11605225987E+02 -0.19929458908E+02  0.56025481588E+01  0.23732954909E+02  0.51100000000E-03 0.  1.
        -12    1    3    3    0    0  0.76930774893E+01  0.17566775199E+02  0.91876314089E+01  0.21264703221E+02  0.00000000000E+00 0.  1.
</event>
<event>
 7    1  0.4237994E-013  0.5930197E+02  0.7816164E-02  0.1266605E+00
        -11   -1    0    0    0    0  0.00000000000E+00  0.00000000000E+00  0.45593999997E+02  0.45594000000E+02  0.51100000000E-03 0.  1.
         11   -1    0    0    0    0 -0.00000000000E+00 -0.00000000000E+00 -0.45593999997E+02  0.45594000000E+02  0.51100000000E-03 0. -1.
    9900012    2    1    2    0    0 -0.29532915060E+02  0.99138154786E+01  0.68001439280E+01  0.59301972234E+02  0.50000051441E+02 0.  0.
         12    1    1    2    0    0  0.29532915060E+02 -0.99138154786E+01 -0.68001439280E+01  0.31886027766E+02  0.00000000000E+00 0. -1.
         11    1    3    3    0    0 -0.49246363363E+01 -0.10675740146E+02 -0.10876386623E+02  0.16016218559E+02  0.51100000000E-03 0. -1.
        -11    1    3    3    0    0 -0.19000853792E+02  0.15500183139E+02  0.23321578933E+02  0.33840569829E+02  0.51100000000E-03 0.  1.
         12    1    3    3    0    0 -0.56074249312E+01  0.50893724849E+01 -0.56450483811E+01  0.94451838455E+01  0.00000000000E+00 0. -1.
</event>
<event>
 7    1  0.4237994E-013  0.5930194E+02  0.7816164E-02  0.1266605E+00
        -11   -1    0    0    0    0  0.00000000000E+00  0.00000000000E+00  0.45593999997E+02  0.45594000000E+02  0.51100000000E-03 0. -1.
         11   -1    0    0    0    0 -0.00000000000E+00 -0.00000000000E+00 -0.45593999997E+02  0.45594000000E+02  0.51100000000E-03 0.  1.
    9900012    2    1    2    0    0  0.13769061736E+02 -0.21546680606E+02  0.19049257607E+02  0.59301941580E+02  0.49999995536E+02 0.  0.
         12    1    1    2    0    0 -0.13769061736E+02  0.21546680606E+02 -0.19049257607E+02  0.31886058420E+02  0.00000000000E+00 0. -1.
         11    1    3    3    0    0 -0.58864758808E+01 -0.11195416504E+02  0.21371371714E+02  0.24833917899E+02  0.51100000000E-03 0. -1.
        -11    1    3    3    0    0 -0.18096415662E+01  0.55515466053E+01 -0.49094827874E+01  0.76287281909E+01  0.51100000000E-03 0.  1.
         12    1    3    3    0    0  0.21465179183E+02 -0.15902810707E+02  0.25873686801E+01  0.26839295490E+02  0.00000000000E+00 0. -1.
</event>
<event>
 7    1  0.4237994E-013  0.5930192E+02  0.7816164E-02  0.1266605E+00
        -11   -1    0    0    0    0  0.00000000000E+00  0.00000000000E+00  0.45593999997E+02  0.45594000000E+02  0.51100000000E-03 0. -1.
         11   -1    0    0    0    0 -0.00000000000E+00 -0.00000000000E+00 -0.45593999997E+02  0.45594000000E+02  0.51100000000E-03 0.  1.
    9900012    2    1    2    0    0 -0.13491400069E+02 -0.51897814041E+01 -0.28421297873E+02  0.59301923421E+02  0.49999962418E+02 0.  0.
         12    1    1    2    0    0  0.13491400069E+02  0.51897814041E+01  0.28421297873E+02  0.31886076579E+02  0.00000000000E+00 0. -1.
         11    1    3    3    0    0 -0.21268126195E+02  0.13443935563E+02 -0.86744214917E+01  0.26614247758E+02  0.51100000000E-03 0. -1.
        -11    1    3    3    0    0  0.45311243915E+01 -0.39189206736E+01 -0.16108141594E+02  0.17186077312E+02  0.51100000000E-03 0.  1.
         12    1    3    3    0    0  0.32456017346E+01 -0.14714796294E+02 -0.36387347871E+01  0.15501598351E+02  0.00000000000E+00 0. -1.
</event>
<event>
 7    1  0.4237994E-013  0.5930194E+02  0.7816164E-02  0.1266605E+00
        -11   -1    0    0    0    0  0.00000000000E+00  0.00000000000E+00  0.45593999997E+02  0.45594000000E+02  0.51100000000E-03 0.  1.
         11   -1    0    0    0    0 -0.00000000000E+00 -0.00000000000E+00 -0.45593999997E+02  0.45594000000E+02  0.51100000000E-03 0. -1.
    9900012    2    1    2    0    0  0.10115628658E+02 -0.11012397580E+02  0.28162425812E+02  0.59301936097E+02  0.49999985537E+02 0.  0.
         12    1    1    2    0    0 -0.10115628658E+02  0.11012397580E+02 -0.28162425812E+02  0.31886063903E+02  0.00000000000E+00 0. -1.
         11    1    3    3    0    0  0.15492836084E+02  0.76986920660E+01  0.19393710398E+02  0.25988725107E+02  0.51100000000E-03 0.  1.
        -11    1    3    3    0    0  0.65719951993E+01 -0.18813841425E+02  0.75128190882E+01  0.21297751078E+02  0.51100000000E-03 0. -1.
         12    1    3    3    0    0 -0.11949202625E+02  0.10275177998E+00  0.12558963260E+01  0.12015459912E+02  0.00000000000E+00 0. -1.
</event>
<event>
 7    1  0.4237994E-013  0.5930187E+02  0.7816164E-02  0.1266605E+00
        -11   -1    0    0    0    0  0.00000000000E+00  0.00000000000E+00  0.45593999997E+02  0.45594000000E+02  0.51100000000E-03 0. -1.
         11   -1    0    0    0    0 -0.00000000000E+00 -0.00000000000E+00 -0.45593999997E+02  0.45594000000E+02  0.51100000000E-03 0.  1.
    9900012    2    1    2    0    0 -0.15656243788E+01 -0.69233193634E+01 -0.31086040219E+02  0.59301867791E+02  0.49999860963E+02 0.  0.
         12    1    1    2    0    0  0.15656243788E+01  0.69233193634E+01  0.31086040219E+02  0.31886132209E+02  0.00000000000E+00 0. -1.
         11    1    3    3    0    0 -0.15653711240E+01 -0.20904407997E+02 -0.21299435075E+02  0.29884956002E+02  0.51100000000E-03 0. -1.
        -11    1    3    3    0    0  0.41221972293E+01  0.13888603699E+02 -0.16237310890E+02  0.21760884355E+02  0.51100000000E-03 0.  1.
         12    1    3    3    0    0 -0.41224504841E+01  0.92484934413E-01  0.64507057458E+01  0.76560274343E+01  0.00000000000E+00 0. -1.
</event>
<event>
 7    1  0.4237994E-013  0.5930196E+02  0.7816164E-02  0.1266605E+00
        -11   -1    0    0    0    0  0.00000000000E+00  0.00000000000E+00  0.45593999997E+02  0.45594000000E+02  0.51100000000E-03 0.  1.
         11   -1    0    0    0    0 -0.00000000000E+00 -0.00000000000E+00 -0.45593999997E+02  0.45594000000E+02  0.51100000000E-03 0. -1.
    9900012    2    1    2    0    0  0.27147761992E+02 -0.17294283088E+01 -0.16635124874E+02  0.59301964138E+02  0.50000036675E+02 0.  0.
         12    1    1    2    0    0 -0.27147761992E+02  0.17294283088E+01  0.16635124874E+02  0.31886035862E+02  0.00000000000E+00 0. -1.
         11    1    3    3    0    0  0.80391233687E+01  0.43098766511E+01 -0.32082351891E+02  0.33353858014E+02  0.51100000000E-03 0. -1.
        -11    1    3    3    0    0  0.14205923789E+01 -0.15903137337E+01  0.36471479597E+01  0.42247921818E+01  0.51100000000E-03 0.  1.
         12    1    3    3    0    0  0.17688046244E+02 -0.44489912261E+01  0.11800079057E+02  0.21723313942E+02  0.00000000000E+00 0. -1.
</event>
<event>
 7    1  0.4237994E-013  0.5930195E+02  0.7816164E-02  0.1266605E+00
        -11   -1    0    0    0    0  0.00000000000E+00  0.00000000000E+00  0.45593999997E+02  0.45594000000E+02  0.51100000000E-03 0.  1.
         11   -1    0    0    0    0 -0.00000000000E+00 -0.00000000000E+00 -0.45593999997E+02  0.45594000000E+02  0.51100000000E-03 0. -1.
    9900012    2    1    2    0    0 -0.23077421872E+02 -0.47827351767E+01  0.21477384347E+02  0.59301952983E+02  0.50000016332E+02 0.  0.
         12    1    1    2    0    0  0.23077421872E+02  0.47827351767E+01 -0.21477384347E+02  0.31886047017E+02  0.00000000000E+00 0. -1.
         11    1    3    3    0    0 -0.76079964223E+01  0.15419257465E+02  0.25239773612E+02  0.30539831083E+02  0.51100000000E-03 0.  1.
        -11    1    3    3    0    0 -0.13131475387E+02 -0.20550566931E+02 -0.64067886726E+01  0.25215241192E+02  0.51100000000E-03 0. -1.
        -12    1    3    3    0    0 -0.23379500624E+01  0.34857428933E+00  0.26443994072E+01  0.35468807076E+01  0.00000000000E+00 0.  1.
</event>
<event>
 7    1  0.4237994E-013  0.5930193E+02  0.7816164E-02  0.1266605E+00
        -11   -1    0    0    0    0  0.00000000000E+00  0.00000000000E+00  0.45593999997E+02  0.45594000000E+02  0.51100000000E-03 0.  1.
         11   -1    0    0    0    0 -0.00000000000E+00 -0.00000000000E+00 -0.45593999997E+02  0.45594000000E+02  0.51100000000E-03 0. -1.
    9900012    2    1    2    0    0  0.19441046811E+02  0.22035682574E+02  0.12377225599E+02  0.59301932178E+02  0.49999978390E+02 0.  0.
         12    1    1    2    0    0 -0.19441046811E+02 -0.22035682574E+02 -0.12377225599E+02  0.31886067822E+02  0.00000000000E+00 0. -1.
         11    1    3    3    0    0  0.20382879107E+00 -0.21966014506E+00 -0.23637724624E+01  0.23826911824E+01  0.51100000000E-03 0. -1.
        -11    1    3    3    0    0  0.22632028320E+02 -0.35701175322E+01  0.19921432268E+02  0.30361454328E+02  0.51100000000E-03 0.  1.
        -12    1    3    3    0    0 -0.33948103001E+01  0.25825460251E+02 -0.51804342058E+01  0.26557786668E+02  0.00000000000E+00 0.  1.
</event>
<event>
 7    1  0.4237994E-013  0.5930194E+02  0.7816164E-02  0.1266605E+00
        -11   -1    0    0    0    0  0.00000000000E+00  0.00000000000E+00  0.45593999997E+02  0.45594000000E+02  0.51100000000E-03 0.  1.
         11   -1    0    0    0    0 -0.00000000000E+00 -0.00000000000E+00 -0.45593999997E+02  0.45594000000E+02  0.51100000000E-03 0. -1.
    9900012    2    1    2    0    0 -0.10868154885E+02  0.11291807162E+02  0.27768673632E+02  0.59301938236E+02  0.49999989436E+02 0.  0.
         12    1    1    2    0    0  0.10868154885E+02 -0.11291807162E+02 -0.27768673632E+02  0.31886061764E+02  0.00000000000E+00 0. -1.
         11    1    3    3    0    0  0.24232358019E+01  0.83970382685E+01 -0.10778955336E+02  0.13876894531E+02  0.51100000000E-03 0. -1.
        -11    1    3    3    0    0  0.43818323492E+01 -0.30426545041E+01  0.98782335820E+01  0.11226651332E+02  0.51100000000E-03 0.  1.
         12    1    3    3    0    0 -0.17673223036E+02  0.59374233972E+01  0.28669395386E+02  0.34198392372E+02  0.00000000000E+00 0. -1.
</event>
<event>
 7    1  0.4237994E-013  0.5930177E+02  0.7816164E-02  0.1266605E+00
        -11   -1    0    0    0    0  0.00000000000E+00  0.00000000000E+00  0.45593999997E+02  0.45594000000E+02  0.51100000000E-03 0. -1.
         11   -1    0    0    0    0 -0.00000000000E+00 -0.00000000000E+00 -0.45593999997E+02  0.45594000000E+02  0.51100000000E-03 0.  1.
    9900012    2    1    2    0    0  0.42742471933E+01  0.27783049609E+02 -0.15052062790E+02  0.59301770545E+02  0.49999683607E+02 0.  0.
         12    1    1    2    0    0 -0.42742471933E+01 -0.27783049609E+02  0.15052062790E+02  0.31886229455E+02  0.00000000000E+00 0. -1.
         11    1    3    3    0    0  0.36485737718E+01 -0.13227530782E+02 -0.31992644621E+01  0.14089533509E+02  0.51100000000E-03 0. -1.
        -11    1    3    3    0    0  0.26565216873E+01  0.89335209787E+01 -0.89807264145E+01  0.12942888076E+02  0.51100000000E-03 0.  1.
         12    1    3    3    0    0 -0.20308482658E+01  0.32077059412E+02 -0.28720719134E+01  0.32269348960E+02  0.00000000000E+00 0. -1.
</event>
<event>
 7    1  0.4237994E-013  0.5930194E+02  0.7816164E-02  0.1266605E+00
        -11   -1    0    0    0    0  0.00000000000E+00  0.00000000000E+00  0.45593999997E+02  0.45594000000E+02  0.51100000000E-03 0.  1.
         11   -1    0    0    0    0 -0.00000000000E+00 -0.00000000000E+00 -0.45593999997E+02  0.45594000000E+02  0.51100000000E-03 0. -1.
    9900012    2    1    2    0    0 -0.21055995048E+02 -0.22979343503E+02  0.67316908070E+01  0.59301940093E+02  0.49999992824E+02 0.  0.
         12    1    1    2    0    0  0.21055995048E+02  0.22979343503E+02 -0.67316908070E+01  0.31886059907E+02  0.00000000000E+00 0. -1.
         11    1    3    3    0    0  0.77481943406E+01 -0.14295167926E+02  0.10721086926E+02  0.19476345825E+02  0.51100000000E-03 0.  1.
        -11    1    3    3    0    0 -0.83849609626E+01  0.49467740941E+01 -0.10607988361E+02  0.14398179108E+02  0.51100000000E-03 0. -1.
         12    1    3    3    0    0 -0.20419228426E+02 -0.13630949671E+02  0.66185922421E+01  0.25427415160E+02  0.00000000000E+00 0. -1.
</event>
<event>
 7    1  0.4237994E-013  0.5930194E+02  0.7816164E-02  0.1266605E+00
        -11   -1    0    0    0    0  0.00000000000E+00  0.00000000000E+00  0.45593999997E+02  0.45594000000E+02  0.51100000000E-03 0.  1.
         11   -1    0    0    0    0 -0.00000000000E+00 -0.00000000000E+00 -0.45593999997E+02  0.45594000000E+02  0.51100000000E-03 0. -1.
    9900012    2    1    2    0    0 -0.67540851680E+01  0.20637324667E+02  0.23349607801E+02  0.59301936895E+02  0.49999986992E+02 0.  0.
         12    1    1    2    0    0  0.67540851680E+01 -0.20637324667E+02 -0.23349607801E+02  0.31886063105E+02  0.00000000000E+00 0. -1.
         11    1    3    3    0    0  0.63904786388E+01 -0.80663921045E+01 -0.61723582242E+01  0.12000121046E+02  0.51100000000E-03 0. -1.
        -11    1    3    3    0    0 -0.12854490162E+02  0.12475861007E+02  0.24425332453E+02  0.30289963534E+02  0.51100000000E-03 0.  1.
        -12    1    3    3    0    0 -0.29007364429E+00  0.16227855764E+02  0.50966335721E+01  0.17011852315E+02  0.00000000000E+00 0.  1.
</event>
<event>
 7    1  0.4237994E-013  0.5930195E+02  0.7816164E-02  0.1266605E+00
        -11   -1    0    0    0    0  0.00000000000E+00  0.00000000000E+00  0.45593999997E+02  0.45594000000E+02  0.51100000000E-03 0.  1.
         11   -1    0    0    0    0 -0.00000000000E+00 -0.00000000000E+00 -0.45593999997E+02  0.45594000000E+02  0.51100000000E-03 0. -1.
    9900012    2    1    2    0    0  0.28114755960E+02 -0.80519398311E+01 -0.12706188171E+02  0.59301945751E+02  0.50000003144E+02 0.  0.
         12    1    1    2    0    0 -0.28114755960E+02  0.80519398311E+01  0.12706188171E+02  0.31886054249E+02  0.00000000000E+00 0. -1.
         11    1    3    3    0    0  0.32674200968E+01  0.36083759332E+01 -0.16847348232E+02  0.17536520569E+02  0.51100000000E-03 0. -1.
        -11    1    3    3    0    0  0.12855332872E+02 -0.28965843951E+01  0.17419551830E+02  0.21842403041E+02  0.51100000000E-03 0.  1.
         12    1    3    3    0    0  0.11992002991E+02 -0.87637313693E+01 -0.13278391769E+02  0.19923022141E+02  0.00000000000E+00 0. -1.
</event>
<event>
 7    1  0.4237994E-013  0.5930201E+02  0.7816164E-02  0.1266605E+00
        -11   -1    0    0    0    0  0.00000000000E+00  0.00000000000E+00  0.45593999997E+02  0.45594000000E+02  0.51100000000E-03 0.  1.
         11   -1    0    0    0    0 -0.00000000000E+00 -0.00000000000E+00 -0.45593999997E+02  0.45594000000E+02  0.51100000000E-03 0. -1.
    9900012    2    1    2    0    0 -0.85191881467E+01 -0.64213734080E+01  0.30048394362E+02  0.59302006102E+02  0.50000113208E+02 0.  0.
         12    1    1    2    0    0  0.85191881467E+01  0.64213734080E+01 -0.30048394362E+02  0.31885993898E+02  0.00000000000E+00 0. -1.
         11    1    3    3    0    0 -0.18388881648E+02 -0.15484415534E+02  0.88181021658E+01  0.25606191024E+02  0.51100000000E-03 0. -1.
        -11    1    3    3    0    0  0.40426310743E+01  0.13717027088E+02  0.38901132330E+01  0.14820009425E+02  0.51100000000E-03 0.  1.
        -12    1    3    3    0    0  0.58270624272E+01 -0.46539849617E+01  0.17340178963E+02  0.18875805653E+02  0.00000000000E+00 0.  1.
</event>
<event>
 7    1  0.4237994E-013  0.5930194E+02  0.7816164E-02  0.1266605E+00
        -11   -1    0    0    0    0  0.00000000000E+00  0.00000000000E+00  0.45593999997E+02  0.45594000000E+02  0.51100000000E-03 0.  1.
         11   -1    0    0    0    0 -0.00000000000E+00 -0.00000000000E+00 -0.45593999997E+02  0.45594000000E+02  0.51100000000E-03 0. -1.
    9900012    2    1    2    0    0  0.59080265228E+00  0.15516244998E+02  0.27849913235E+02  0.59301943897E+02  0.49999999761E+02 0.  0.
         12    1    1    2    0    0 -0.59080265228E+00 -0.15516244998E+02 -0.27849913235E+02  0.31886056103E+02  0.00000000000E+00 0. -1.
         11    1    3    3    0    0 -0.12251079616E+02 -0.60853416988E+00  0.91880081426E+00  0.12300547174E+02  0.51100000000E-03 0. -1.
        -11    1    3    3    0    0  0.22267561145E+02  0.17164011815E+02  0.15346892476E+02  0.32030839668E+02  0.51100000000E-03 0.  1.
         12    1    3    3    0    0 -0.94256788762E+01 -0.10392326470E+01  0.11584219945E+02  0.14970557054E+02  0.00000000000E+00 0. -1.
</event>
<event>
 7    1  0.4237994E-013  0.5930195E+02  0.7816164E-02  0.1266605E+00
        -11   -1    0    0    0    0  0.00000000000E+00  0.00000000000E+00  0.45593999997E+02  0.45594000000E+02  0.51100000000E-03 0.  1.
         11   -1    0    0    0    0 -0.00000000000E+00 -0.00000000000E+00 -0.45593999997E+02  0.45594000000E+02  0.51100000000E-03 0. -1.
    9900012    2    1    2    0    0 -0.31654712300E+02  0.35975122413E+01  0.13255331298E+01  0.59301953785E+02  0.50000017796E+02 0.  0.
         12    1    1    2    0    0  0.31654712300E+02 -0.35975122413E+01 -0.13255331298E+01  0.31886046215E+02  0.00000000000E+00 0. -1.
         11    1    3    3    0    0  0.32068272720E+01  0.92025268788E+01  0.52816732334E+01  0.11084507861E+02  0.51100000000E-03 0. -1.
        -11    1    3    3    0    0 -0.23117844954E+02 -0.18856192205E+02 -0.58813679977E+01  0.30406927328E+02  0.51100000000E-03 0.  1.
        -12    1    3    3    0    0 -0.11743694619E+02  0.13251177568E+02  0.19252278941E+01  0.17810518596E+02  0.00000000000E+00 0.  1.
</event>
<event>
 7    1  0.4237994E-013  0.5930193E+02  0.7816164E-02  0.1266605E+00
        -11   -1    0    0    0    0  0.00000000000E+00  0.00000000000E+00  0.45593999997E+02  0.45594000000E+02  0.51100000000E-03 0.  1.
         11   -1    0    0    0    0 -0.00000000000E+00 -0.00000000000E+00 -0.45593999997E+02  0.45594000000E+02  0.51100000000E-03 0. -1.
    9900012    2    1    2    0    0  0.18926184933E+02  0.51232086903E+01  0.25145049563E+02  0.59301933122E+02  0.49999980111E+02 0.  0.
         12    1    1    2    0    0 -0.18926184933E+02 -0.51232086903E+01 -0.25145049563E+02  0.31886066878E+02  0.00000000000E+00 0. -1.
         11    1    3    3    0    0  0.15780966513E+02 -0.54948268970E+01 -0.64823635444E+01  0.17923533806E+02  0.51100000000E-03 0. -1.
        -11    1    3    3    0    0  0.53372500593E+01  0.17445264144E+02  0.16333003165E+02  0.24486536543E+02  0.51100000000E-03 0.  1.
         12    1    3    3    0    0 -0.21920316392E+01 -0.68272285562E+01  0.15294409942E+02  0.16891862773E+02  0.00000000000E+00 0. -1.
</event>
<event>
 7    1  0.4237994E-013  0.5930196E+02  0.7816164E-02  0.1266605E+00
        -11   -1    0    0    0    0  0.00000000000E+00  0.00000000000E+00  0.45593999997E+02  0.45594000000E+02  0.51100000000E-03 0.  1.
         11   -1    0    0    0    0 -0.00000000000E+00 -0.00000000000E+00 -0.45593999997E+02  0.45594000000E+02  0.51100000000E-03 0. -1.
    9900012    2    1    2    0    0 -0.15549826754E+02  0.24188564958E+02 -0.13778088139E+02  0.59301960742E+02  0.50000030483E+02 0.  0.
         12    1    1    2    0    0  0.15549826754E+02 -0.24188564958E+02  0.13778088139E+02  0.31886039258E+02  0.00000000000E+00 0. -1.
         11    1    3    3    0    0  0.19316879527E+01  0.98052819714E+01 -0.87995106483E+01  0.13315643462E+02  0.51100000000E-03 0. -1.
        -11    1    3    3    0    0 -0.27717621341E+02  0.33352675957E+01  0.43732177937E+01  0.28258017922E+02  0.51100000000E-03 0.  1.
        -12    1    3    3    0    0  0.10236106634E+02  0.11048015391E+02 -0.93517952843E+01  0.17728299359E+02  0.00000000000E+00 0.  1.
</event>
<event>
 7    1  0.4237994E-013  0.5930188E+02  0.7816164E-02  0.1266605E+00
        -11   -1    0    0    0    0  0.00000000000E+00  0.00000000000E+00  0.45593999997E+02  0.45594000000E+02  0.51100000000E-03 0.  1.
         11   -1    0    0    0    0 -0.00000000000E+00 -0.00000000000E+00 -0.45593999997E+02  0.45594000000E+02  0.51100000000E-03 0. -1.
    9900012    2    1    2    0    0 -0.18746428995E+02  0.14752159046E+02  0.21158213976E+02  0.59301877388E+02  0.49999878465E+02 0.  0.
         12    1    1    2    0    0  0.18746428995E+02 -0.14752159046E+02 -0.21158213976E+02  0.31886122612E+02  0.00000000000E+00 0. -1.
         11    1    3    3    0    0 -0.30774306007E+02  0.65615420952E+01 -0.62492497453E+00  0.31472246128E+02  0.51100000000E-03 0. -1.
        -11    1    3    3    0    0  0.82094014784E+01  0.15169442344E+01  0.16527106349E+02  0.18515956280E+02  0.51100000000E-03 0.  1.
         12    1    3    3    0    0  0.38184755335E+01  0.66736727162E+01  0.52560326014E+01  0.93136749799E+01  0.00000000000E+00 0. -1.
</event>
<event>
 7    1  0.4237994E-013  0.5930204E+02  0.7816164E-02  0.1266604E+00
        -11   -1    0    0    0    0  0.00000000000E+00  0.00000000000E+00  0.45593999997E+02  0.45594000000E+02  0.51100000000E-03 0.  1.
         11   -1    0    0    0    0 -0.00000000000E+00 -0.00000000000E+00 -0.45593999997E+02  0.45594000000E+02  0.51100000000E-03 0. -1.
    9900012    2    1    2    0    0 -0.46070505800E+01  0.47061902911E+00  0.31547872830E+02  0.59302036358E+02  0.50000168388E+02 0.  0.
         12    1    1    2    0    0  0.46070505800E+01 -0.47061902911E+00 -0.31547872830E+02  0.31885963642E+02  0.00000000000E+00 0. -1.
         11    1    3    3    0    0 -0.15296414211E+02  0.79282604027E+01 -0.66560393105E+01  0.18469988097E+02  0.51100000000E-03 0. -1.
        -11    1    3    3    0    0  0.58845546922E+00 -0.35047733740E+01  0.10154684176E+02  0.10758593180E+02  0.51100000000E-03 0.  1.
         12    1    3    3    0    0  0.10100908162E+02 -0.39528679996E+01  0.28049227964E+02  0.30073455081E+02  0.00000000000E+00 0. -1.
</event>
<event>
 7    1  0.4237994E-013  0.5930196E+02  0.7816164E-02  0.1266605E+00
        -11   -1    0    0    0    0  0.00000000000E+00  0.00000000000E+00  0.45593999997E+02  0.45594000000E+02  0.51100000000E-03 0.  1.
         11   -1    0    0    0    0 -0.00000000000E+00 -0.00000000000E+00 -0.45593999997E+02  0.45594000000E+02  0.51100000000E-03 0. -1.
    9900012    2    1    2    0    0  0.26494605326E+02 -0.63957278913E+01  0.16548408633E+02  0.59301964264E+02  0.50000036907E+02 0.  0.
         12    1    1    2    0    0 -0.26494605326E+02  0.63957278913E+01 -0.16548408633E+02  0.31886035736E+02  0.00000000000E+00 0. -1.
         11    1    3    3    0    0  0.88023227911E+01  0.11088167139E+02 -0.13040694558E+02  0.19248066184E+02  0.51100000000E-03 0. -1.
        -11    1    3    3    0    0  0.90605845413E+01 -0.12667028144E+02  0.11222095938E+02  0.19195917059E+02  0.51100000000E-03 0.  1.
         12    1    3    3    0    0  0.86316979938E+01 -0.48168668861E+01  0.18367007253E+02  0.20857981021E+02  0.00000000000E+00 0. -1.
</event>
<event>
 7    1  0.4237994E-013  0.5930194E+02  0.7816164E-02  0.1266605E+00
        -11   -1    0    0    0    0  0.00000000000E+00  0.00000000000E+00  0.45593999997E+02  0.45594000000E+02  0.51100000000E-03 0. -1.
         11   -1    0    0    0    0 -0.00000000000E+00 -0.00000000000E+00 -0.45593999997E+02  0.45594000000E+02  0.51100000000E-03 0.  1.
    9900012    2    1    2    0    0  0.13096341681E+02 -0.23345716758E+01 -0.28978555627E+02  0.59301936013E+02  0.49999985384E+02 0.  0.
         12    1    1    2    0    0 -0.13096341681E+02  0.23345716758E+01  0.28978555627E+02  0.31886063987E+02  0.00000000000E+00 0. -1.
         11    1    3    3    0    0  0.31411470744E+01 -0.11058596055E+02 -0.10168089953E+02  0.15347618878E+02  0.51100000000E-03 0. -1.
        -11    1    3    3    0    0  0.10288263936E+02  0.18376273413E+02  0.18565751758E+01  0.21141964691E+02  0.51100000000E-03 0.  1.
        -12    1    3    3    0    0 -0.33306933014E+00 -0.96522490332E+01 -0.20667040850E+02  0.22812352445E+02  0.00000000000E+00 0.  1.
</event>
<event>
 7    1  0.4237994E-013  0.5930192E+02  0.7816164E-02  0.1266605E+00
        -11   -1    0    0    0    0  0.00000000000E+00  0.00000000000E+00  0.45593999997E+02  0.45594000000E+02  0.51100000000E-03 0. -1.
         11   -1    0    0    0    0 -0.00000000000E+00 -0.00000000000E+00 -0.45593999997E+02  0.45594000000E+02  0.51100000000E-03 0.  1.
    9900012    2    1    2    0    0 -0.10016039213E+02 -0.13144712806E+02 -0.27269346586E+02  0.59301924990E+02  0.49999965281E+02 0.  0.
         12    1    1    2    0    0  0.10016039213E+02  0.13144712806E+02  0.27269346586E+02  0.31886075010E+02  0.00000000000E+00 0. -1.
         11    1    3    3    0    0  0.36327374228E+01 -0.43490590117E+01  0.60833791412E+01  0.83137595290E+01  0.51100000000E-03 0. -1.
        -11    1    3    3    0    0 -0.36537455250E+01 -0.88428110498E+01 -0.38552037365E+02  0.39721590463E+02  0.51100000000E-03 0.  1.
        -12    1    3    3    0    0 -0.99950311104E+01  0.47157255479E-01  0.51993116373E+01  0.11266574999E+02  0.00000000000E+00 0.  1.
</event>
<event>
 7    1  0.4237994E-013  0.5930195E+02  0.7816164E-02  0.1266605E+00
        -11   -1    0    0    0    0  0.00000000000E+00  0.00000000000E+00  0.45593999997E+02  0.45594000000E+02  0.51100000000E-03 0.  1.
         11   -1    0    0    0    0 -0.00000000000E+00 -0.00000000000E+00 -0.45593999997E+02  0.45594000000E+02  0.51100000000E-03 0. -1.
    9900012    2    1    2    0    0  0.17516521359E+02 -0.11894484255E+02  0.23841413638E+02  0.59301948496E+02  0.50000008150E+02 0.  0.
         12    1    1    2    0    0 -0.17516521359E+02  0.11894484255E+02 -0.23841413638E+02  0.31886051504E+02  0.00000000000E+00 0. -1.
         11    1    3    3    0    0  0.46883563022E+01  0.16664960973E+02  0.62249980393E+01  0.18397070688E+02  0.51100000000E-03 0. -1.
        -11    1    3    3    0    0  0.15301813662E+02 -0.17085932279E+02  0.18008353460E+02  0.29161196439E+02  0.51100000000E-03 0.  1.
         12    1    3    3    0    0 -0.24736486051E+01 -0.11473512949E+02 -0.39193786096E+00  0.11743681369E+02  0.00000000000E+00 0. -1.
</event>
<event>
 7    1  0.4237994E-013  0.5930194E+02  0.7816164E-02  0.1266605E+00
        -11   -1    0    0    0    0  0.00000000000E+00  0.00000000000E+00  0.45593999997E+02  0.45594000000E+02  0.51100000000E-03 0. -1.
         11   -1    0    0    0    0 -0.00000000000E+00 -0.00000000000E+00 -0.45593999997E+02  0.45594000000E+02  0.51100000000E-03 0.  1.
    9900012    2    1    2    0    0 -0.14182032981E+02 -0.17144303036E+02  0.22839954130E+02  0.59301942064E+02  0.49999996418E+02 0.  0.
         12    1    1    2    0    0  0.14182032981E+02  0.17144303036E+02 -0.22839954130E+02  0.31886057936E+02  0.00000000000E+00 0. -1.
         11    1    3    3    0    0 -0.11522752375E+02  0.10109916475E+02  0.25208132421E+01  0.15535080724E+02  0.51100000000E-03 0. -1.
        -11    1    3    3    0    0 -0.40480804963E+00 -0.32020844477E+02  0.12587770736E+02  0.34408579206E+02  0.51100000000E-03 0.  1.
        -12    1    3    3    0    0 -0.22544725564E+01  0.47666249661E+01  0.77313701520E+01  0.93582821342E+01  0.00000000000E+00 0.  1.
</event>
<event>
 7    1  0.4237994E-013  0.5930193E+02  0.7816164E-02  0.1266605E+00
        -11   -1    0    0    0    0  0.00000000000E+00  0.00000000000E+00  0.45593999997E+02  0.45594000000E+02  0.51100000000E-03 0.  1.
         11   -1    0    0    0    0 -0.00000000000E+00 -0.00000000000E+00 -0.45593999997E+02  0.45594000000E+02  0.51100000000E-03 0. -1.
    9900012    2    1    2    0    0  0.24824844407E+02 -0.63626280899E+01  0.18972756336E+02  0.59301930643E+02  0.49999975590E+02 0.  0.
         12    1    1    2    0    0 -0.24824844407E+02  0.63626280899E+01 -0.18972756336E+02  0.31886069357E+02  0.00000000000E+00 0. -1.
         11    1    3    3    0    0 -0.63527740548E+01  0.15411517144E+02  0.53198154612E+01  0.17497800881E+02  0.51100000000E-03 0. -1.
        -11    1    3    3    0    0  0.13929054679E+02 -0.61510805578E+01  0.10075981172E+02  0.18258689797E+02  0.51100000000E-03 0.  1.
         12    1    3    3    0    0  0.17248563783E+02 -0.15623064676E+02  0.35769597031E+01  0.23545439965E+02  0.00000000000E+00 0. -1.
</event>
<event>
 7    1  0.4237994E-013  0.5930191E+02  0.7816164E-02  0.1266605E+00
        -11   -1    0    0    0    0  0.00000000000E+00  0.00000000000E+00  0.45593999997E+02  0.45594000000E+02  0.51100000000E-03 0. -1.
         11   -1    0    0    0    0 -0.00000000000E+00 -0.00000000000E+00 -0.45593999997E+02  0.45594000000E+02  0.51100000000E-03 0.  1.
    9900012    2    1    2    0    0 -0.24637772528E+02 -0.13240734082E+02 -0.15309668315E+02  0.59301908705E+02  0.49999935580E+02 0.  0.
         12    1    1    2    0    0  0.24637772528E+02  0.13240734082E+02  0.15309668315E+02  0.31886091295E+02  0.00000000000E+00 0. -1.
         11    1    3    3    0    0 -0.85096948758E+01  0.10775723055E+02  0.10569040824E+02  0.17327311922E+02  0.51100000000E-03 0. -1.
        -11    1    3    3    0    0 -0.13709082971E+02 -0.25660539347E+02 -0.19690540008E+02  0.35130038451E+02  0.51100000000E-03 0.  1.
         12    1    3    3    0    0 -0.24189946806E+01  0.16440822092E+01 -0.61881691304E+01  0.68445583321E+01  0.00000000000E+00 0. -1.
</event>
<event>
 7    1  0.4237994E-013  0.5930203E+02  0.7816164E-02  0.1266604E+00
        -11   -1    0    0    0    0  0.00000000000E+00  0.00000000000E+00  0.45593999997E+02  0.45594000000E+02  0.51100000000E-03 0.  1.
         11   -1    0    0    0    0 -0.00000000000E+00 -0.00000000000E+00 -0.45593999997E+02  0.45594000000E+02  0.51100000000E-03 0. -1.
    9900012    2    1    2    0    0  0.14209414015E+02 -0.13730522661E+02  0.25025591282E+02  0.59302032581E+02  0.50000161500E+02 0.  0.
         12    1    1    2    0    0 -0.14209414015E+02  0.13730522661E+02 -0.25025591282E+02  0.31885967419E+02  0.00000000000E+00 0. -1.
         11    1    3    3    0    0 -0.14391469097E+01  0.42873075264E+01  0.49253249044E+01  0.66866266031E+01  0.51100000000E-03 0. -1.
        -11    1    3    3    0    0  0.10196113773E+02 -0.15945456370E+01 -0.12195283420E+02  0.15975864603E+02  0.51100000000E-03 0.  1.
        -12    1    3    3    0    0  0.54524471523E+01 -0.16423284551E+02  0.32295549798E+02  0.36639541375E+02  0.00000000000E+00 0.  1.
</event>
<event>
 7    1  0.4237994E-013  0.5930199E+02  0.7816164E-02  0.1266605E+00
        -11   -1    0    0    0    0  0.00000000000E+00  0.00000000000E+00  0.45593999997E+02  0.45594000000E+02  0.51100000000E-03 0.  1.
         11   -1    0    0    0    0 -0.00000000000E+00 -0.00000000000E+00 -0.45593999997E+02  0.45594000000E+02  0.51100000000E-03 0. -1.
    9900012    2    1    2    0    0 -0.18774319526E+01  0.31405166999E+02  0.51873160331E+01  0.59301991899E+02  0.50000087305E+02 0.  0.
         12    1    1    2    0    0  0.18774319526E+01 -0.31405166999E+02 -0.51873160331E+01  0.31886008101E+02  0.00000000000E+00 0. -1.
         11    1    3    3    0    0  0.12967840820E+02  0.17828142467E+02 -0.75556498923E+01  0.23304407414E+02  0.51100000000E-03 0. -1.
        -11    1    3    3    0    0 -0.16088718944E+02  0.18418280812E+02  0.16707421658E+02  0.29617864272E+02  0.51100000000E-03 0.  1.
         12    1    3    3    0    0  0.12434461713E+01 -0.48412562791E+01 -0.39644557328E+01  0.63797202131E+01  0.00000000000E+00 0. -1.
</event>
<event>
 7    1  0.4237994E-013  0.5930200E+02  0.7816164E-02  0.1266605E+00
        -11   -1    0    0    0    0  0.00000000000E+00  0.00000000000E+00  0.45593999997E+02  0.45594000000E+02  0.51100000000E-03 0.  1.
         11   -1    0    0    0    0 -0.00000000000E+00 -0.00000000000E+00 -0.45593999997E+02  0.45594000000E+02  0.51100000000E-03 0. -1.
    9900012    2    1    2    0    0 -0.27909090057E+02 -0.13190591999E+02  0.79879793503E+01  0.59302002458E+02  0.50000106563E+02 0.  0.
         12    1    1    2    0    0  0.27909090057E+02  0.13190591999E+02 -0.79879793503E+01  0.31885997542E+02  0.00000000000E+00 0. -1.
         11    1    3    3    0    0 -0.10804485850E+02 -0.27952265479E+02  0.48128115044E+01  0.30351758017E+02  0.51100000000E-03 0. -1.
        -11    1    3    3    0    0 -0.45746306553E+01  0.12029130109E+02  0.81069341877E+01  0.15210180768E+02  0.51100000000E-03 0.  1.
         12    1    3    3    0    0 -0.12529973552E+02  0.27325433710E+01 -0.49317663418E+01  0.13740063673E+02  0.00000000000E+00 0. -1.
</event>
<event>
 7    1  0.4237994E-013  0.5930194E+02  0.7816164E-02  0.1266605E+00
        -11   -1    0    0    0    0  0.00000000000E+00  0.00000000000E+00  0.45593999997E+02  0.45594000000E+02  0.51100000000E-03 0. -1.
         11   -1    0    0    0    0 -0.00000000000E+00 -0.00000000000E+00 -0.45593999997E+02  0.45594000000E+02  0.51100000000E-03 0.  1.
    9900012    2    1    2    0    0 -0.22606449364E+01  0.55682941964E+01 -0.31314606479E+02  0.59301937297E+02  0.49999987724E+02 0.  0.
         12    1    1    2    0    0  0.22606449364E+01 -0.55682941964E+01  0.31314606479E+02  0.31886062703E+02  0.00000000000E+00 0. -1.
         11    1    3    3    0    0 -0.20263585693E+02 -0.91649101002E+00 -0.10434533637E+02  0.22810794668E+02  0.51100000000E-03 0. -1.
        -11    1    3    3    0    0  0.85579310282E+01  0.10056659606E+02 -0.22670332293E+02  0.26235825744E+02  0.51100000000E-03 0.  1.
         12    1    3    3    0    0  0.94450097286E+01 -0.35718744000E+01  0.17902594508E+01  0.10255316885E+02  0.00000000000E+00 0. -1.
</event>
<event>
 7    1  0.4237994E-013  0.5930193E+02  0.7816164E-02  0.1266605E+00
        -11   -1    0    0    0    0  0.00000000000E+00  0.00000000000E+00  0.45593999997E+02  0.45594000000E+02  0.51100000000E-03 0.  1.
         11   -1    0    0    0    0 -0.00000000000E+00 -0.00000000000E+00 -0.45593999997E+02  0.45594000000E+02  0.51100000000E-03 0. -1.
    9900012    2    1    2    0    0  0.14583518898E+02 -0.70927832786E+01 -0.27454228250E+02  0.59301933342E+02  0.49999980512E+02 0.  0.
         12    1    1    2    0    0 -0.14583518898E+02  0.70927832786E+01  0.27454228250E+02  0.31886066658E+02  0.00000000000E+00 0. -1.
         11    1    3    3    0    0  0.65878225650E+01 -0.49180668371E+01 -0.15052631075E+02  0.17151340767E+02  0.51100000000E-03 0. -1.
        -11    1    3    3    0    0  0.18078785607E+02  0.43667636148E+01  0.65420913668E+01  0.19715731617E+02  0.51100000000E-03 0.  1.
        -12    1    3    3    0    0 -0.10083089274E+02 -0.65414800562E+01 -0.18943688542E+02  0.22434860958E+02  0.00000000000E+00 0.  1.
</event>
<event>
 7    1  0.4237994E-013  0.5930195E+02  0.7816164E-02  0.1266605E+00
        -11   -1    0    0    0    0  0.00000000000E+00  0.00000000000E+00  0.45593999997E+02  0.45594000000E+02  0.51100000000E-03 0.  1.
         11   -1    0    0    0    0 -0.00000000000E+00 -0.00000000000E+00 -0.45593999997E+02  0.45594000000E+02  0.51100000000E-03 0. -1.
    9900012    2    1    2    0    0 -0.14711526472E+02 -0.27511970052E+02 -0.65865462943E+01  0.59301951336E+02  0.50000013329E+02 0.  0.
         12    1    1    2    0    0  0.14711526472E+02  0.27511970052E+02  0.65865462943E+01  0.31886048664E+02  0.00000000000E+00 0. -1.
         11    1    3    3    0    0  0.52058341206E+01 -0.24642292766E+02 -0.21756167395E+02  0.33281738560E+02  0.51100000000E-03 0. -1.
        -11    1    3    3    0    0 -0.41605364607E+01 -0.33451223354E+01  0.45320605264E+01  0.70028194290E+01  0.51100000000E-03 0.  1.
         12    1    3    3    0    0 -0.15756824132E+02  0.47544504874E+00  0.10637560574E+02  0.19017393347E+02  0.00000000000E+00 0. -1.
</event>
<event>
 7    1  0.4237994E-013  0.5930194E+02  0.7816164E-02  0.1266605E+00
        -11   -1    0    0    0    0  0.00000000000E+00  0.00000000000E+00  0.45593999997E+02  0.45594000000E+02  0.51100000000E-03 0. -1.
         11   -1    0    0    0    0 -0.00000000000E+00 -0.00000000000E+00 -0.45593999997E+02  0.45594000000E+02  0.51100000000E-03 0.  1.
    9900012    2    1    2    0    0  0.15715911598E+02 -0.11653760257E+02  0.25177785919E+02  0.59301938637E+02  0.49999990168E+02 0.  0.
         12    1    1    2    0    0 -0.15715911598E+02  0.11653760257E+02 -0.25177785919E+02  0.31886061363E+02  0.00000000000E+00 0. -1.
         11    1    3    3    0    0 -0.36176660479E+01  0.78403673440E+01  0.17728004417E+02  0.19719051919E+02  0.51100000000E-03 0. -1.
        -11    1    3    3    0    0  0.10303555290E+02 -0.23384964542E+02 -0.23982942438E+01  0.25666546978E+02  0.51100000000E-03 0.  1.
         12    1    3    3    0    0  0.90300223559E+01  0.38908369408E+01  0.98480757462E+01  0.13916339740E+02  0.00000000000E+00 0. -1.
</event>
<event>
 7    1  0.4237994E-013  0.5930176E+02  0.7816164E-02  0.1266605E+00
        -11   -1    0    0    0    0  0.00000000000E+00  0.00000000000E+00  0.45593999997E+02  0.45594000000E+02  0.51100000000E-03 0.  1.
         11   -1    0    0    0    0 -0.00000000000E+00 -0.00000000000E+00 -0.45593999997E+02  0.45594000000E+02  0.51100000000E-03 0. -1.
    9900012    2    1    2    0    0  0.14369277811E+02 -0.27880190727E+02  0.57403320075E+01  0.59301755453E+02  0.49999656084E+02 0.  0.
         12    1    1    2    0    0 -0.14369277811E+02  0.27880190727E+02 -0.57403320075E+01  0.31886244547E+02  0.00000000000E+00 0. -1.
         11    1    3    3    0    0  0.10605364798E+01 -0.25056049744E+02 -0.18009555977E+02  0.30875143290E+02  0.51100000000E-03 0. -1.
        -11    1    3    3    0    0  0.74464576364E+01 -0.36068171403E+01  0.19382200045E+02  0.21074357405E+02  0.51100000000E-03 0.  1.
         12    1    3    3    0    0  0.58622836947E+01  0.78267615800E+00  0.43676879399E+01  0.73522547579E+01  0.00000000000E+00 0. -1.
</event>
<event>
 7    1  0.4237994E-013  0.5930194E+02  0.7816164E-02  0.1266605E+00
        -11   -1    0    0    0    0  0.00000000000E+00  0.00000000000E+00  0.45593999997E+02  0.45594000000E+02  0.51100000000E-03 0. -1.
         11   -1    0    0    0    0 -0.00000000000E+00 -0.00000000000E+00 -0.45593999997E+02  0.45594000000E+02  0.51100000000E-03 0.  1.
    9900012    2    1    2    0    0  0.59898128005E+01 -0.12312848103E+02 -0.28796469552E+02  0.59301941221E+02  0.49999994881E+02 0.  0.
         12    1    1    2    0    0 -0.59898128005E+01  0.12312848103E+02  0.28796469552E+02  0.31886058779E+02  0.00000000000E+00 0. -1.
         11    1    3    3    0    0  0.51540364415E+01  0.14839965012E+02  0.35248758686E+01  0.16100105693E+02  0.51100000000E-03 0. -1.
        -11    1    3    3    0    0  0.44482506710E+01 -0.18692247748E+02 -0.19078790176E+02  0.27077431465E+02  0.51100000000E-03 0.  1.
         12    1    3    3    0    0 -0.36124743119E+01 -0.84605653660E+01 -0.13242555245E+02  0.16124404063E+02  0.00000000000E+00 0. -1.
</event>
<event>
 7    1  0.4237994E-013  0.5930171E+02  0.7816164E-02  0.1266606E+00
        -11   -1    0    0    0    0  0.00000000000E+00  0.00000000000E+00  0.45593999997E+02  0.45594000000E+02  0.51100000000E-03 0.  1.
         11   -1    0    0    0    0 -0.00000000000E+00 -0.00000000000E+00 -0.45593999997E+02  0.45594000000E+02  0.51100000000E-03 0. -1.
    9900012    2    1    2    0    0  0.20255892925E+02  0.26102421871E+01  0.24487157043E+02  0.59301711058E+02  0.49999575117E+02 0.  0.
         12    1    1    2    0    0 -0.20255892925E+02 -0.26102421871E+01 -0.24487157043E+02  0.31886288942E+02  0.00000000000E+00 0. -1.
         11    1    3    3    0    0  0.19176209882E+01 -0.62711043508E+01  0.27344749117E+01  0.71050245135E+01  0.51100000000E-03 0. -1.
        -11    1    3    3    0    0  0.28417063339E+02  0.10643156736E+02  0.25668859394E+01  0.30453163674E+02  0.51100000000E-03 0.  1.
        -12    1    3    3    0    0 -0.10078791402E+02 -0.17618101977E+01  0.19185796192E+02  0.21743522870E+02  0.00000000000E+00 0.  1.
</event>
<event>
 7    1  0.4237994E-013  0.5930194E+02  0.7816164E-02  0.1266605E+00
        -11   -1    0    0    0    0  0.00000000000E+00  0.00000000000E+00  0.45593999997E+02  0.45594000000E+02  0.51100000000E-03 0.  1.
         11   -1    0    0    0    0 -0.00000000000E+00 -0.00000000000E+00 -0.45593999997E+02  0.45594000000E+02  0.51100000000E-03 0. -1.
    9900012    2    1    2    0    0  0.29551238054E+02  0.11108394795E+02  0.44775952412E+01  0.59301937769E+02  0.49999988586E+02 0.  0.
         12    1    1    2    0    0 -0.29551238054E+02 -0.11108394795E+02 -0.44775952412E+01  0.31886062231E+02  0.00000000000E+00 0. -1.
         11    1    3    3    0    0 -0.34871640799E+01  0.68100526127E+01 -0.29846521029E+01  0.82125074335E+01  0.51100000000E-03 0. -1.
        -11    1    3    3    0    0  0.32342679503E+02  0.14595068166E+02 -0.39504614023E+01  0.35702536013E+02  0.51100000000E-03 0.  1.
        -12    1    3    3    0    0  0.69572263120E+00 -0.10296725984E+02  0.11412708746E+02  0.15386894323E+02  0.00000000000E+00 0.  1.
</event>
<event>
 7    1  0.4237994E-013  0.5930195E+02  0.7816164E-02  0.1266605E+00
        -11   -1    0    0    0    0  0.00000000000E+00  0.00000000000E+00  0.45593999997E+02  0.45594000000E+02  0.51100000000E-03 0.  1.
         11   -1    0    0    0    0 -0.00000000000E+00 -0.00000000000E+00 -0.45593999997E+02  0.45594000000E+02  0.51100000000E-03 0. -1.
    9900012    2    1    2    0    0 -0.11479927560E+02 -0.25847690458E+02  0.14725098778E+02  0.59301947049E+02  0.50000005509E+02 0.  0.
         12    1    1    2    0    0  0.11479927560E+02  0.25847690458E+02 -0.14725098778E+02  0.31886052951E+02  0.00000000000E+00 0. -1.
         11    1    3    3    0    0 -0.12035820036E+02 -0.16206988035E+02 -0.10303178393E+02  0.22664573907E+02  0.51100000000E-03 0. -1.
        -11    1    3    3    0    0 -0.97102013961E+01  0.29688340265E+01  0.12536751377E+02  0.16132951435E+02  0.51100000000E-03 0.  1.
        -12    1    3    3    0    0  0.10266093873E+02 -0.12609536449E+02  0.12491525794E+02  0.20504421707E+02  0.00000000000E+00 0.  1.
</event>
<event>
 7    1  0.4237994E-013  0.5930195E+02  0.7816164E-02  0.1266605E+00
        -11   -1    0    0    0    0  0.00000000000E+00  0.00000000000E+00  0.45593999997E+02  0.45594000000E+02  0.51100000000E-03 0.  1.
         11   -1    0    0    0    0 -0.00000000000E+00 -0.00000000000E+00 -0.45593999997E+02  0.45594000000E+02  0.51100000000E-03 0. -1.
    9900012    2    1    2    0    0 -0.10477528157E+02  0.83505354792E+01  0.28934580831E+02  0.59301952786E+02  0.50000015973E+02 0.  0.
         12    1    1    2    0    0  0.10477528157E+02 -0.83505354792E+01 -0.28934580831E+02  0.31886047214E+02  0.00000000000E+00 0. -1.
         11    1    3    3    0    0  0.35677609802E+01  0.15181186274E+02  0.20697073379E+02  0.25914593993E+02  0.51100000000E-03 0. -1.
        -11    1    3    3    0    0 -0.18828455019E+02  0.29146144699E+01  0.11243702400E+02  0.22122986684E+02  0.51100000000E-03 0.  1.
         12    1    3    3    0    0  0.47831658817E+01 -0.97452652652E+01 -0.30061949480E+01  0.11264372109E+02  0.00000000000E+00 0. -1.
</event>
<event>
 7    1  0.4237994E-013  0.5930195E+02  0.7816164E-02  0.1266605E+00
        -11   -1    0    0    0    0  0.00000000000E+00  0.00000000000E+00  0.45593999997E+02  0.45594000000E+02  0.51100000000E-03 0.  1.
         11   -1    0    0    0    0 -0.00000000000E+00 -0.00000000000E+00 -0.45593999997E+02  0.45594000000E+02  0.51100000000E-03 0. -1.
    9900012    2    1    2    0    0  0.46972306898E+01 -0.19887691604E+02  0.24477251919E+02  0.59301951091E+02  0.50000012883E+02 0.  0.
         12    1    1    2    0    0 -0.46972306898E+01  0.19887691604E+02 -0.24477251919E+02  0.31886048909E+02  0.00000000000E+00 0. -1.
         11    1    3    3    0    0 -0.79709000321E+01  0.92378800130E+01  0.38076860954E-01  0.12201439446E+02  0.51100000000E-03 0. -1.
        -11    1    3    3    0    0  0.18169894950E+02 -0.29017734953E+02  0.23479622309E+02  0.41514656308E+02  0.51100000000E-03 0.  1.
        -12    1    3    3    0    0 -0.55017642285E+01 -0.10783666391E+00  0.95955274912E+00  0.55858553374E+01  0.00000000000E+00 0.  1.
</event>
<event>
 7    1  0.4237994E-013  0.5930195E+02  0.7816164E-02  0.1266605E+00
        -11   -1    0    0    0    0  0.00000000000E+00  0.00000000000E+00  0.45593999997E+02  0.45594000000E+02  0.51100000000E-03 0. -1.
         11   -1    0    0    0    0 -0.00000000000E+00 -0.00000000000E+00 -0.45593999997E+02  0.45594000000E+02  0.51100000000E-03 0.  1.
    9900012    2    1    2    0    0 -0.10036821703E+01 -0.28983615381E+01 -0.31738187702E+02  0.59301946056E+02  0.50000003699E+02 0.  0.
         12    1    1    2    0    0  0.10036821703E+01  0.28983615381E+01  0.31738187702E+02  0.31886053944E+02  0.00000000000E+00 0. -1.
         11    1    3    3    0    0 -0.12963609451E+02  0.58594507542E+01  0.47907412516E+01  0.15011313571E+02  0.51100000000E-03 0. -1.
        -11    1    3    3    0    0  0.10622323958E+02 -0.81414339595E+01 -0.39100296884E+02  0.41327350869E+02  0.51100000000E-03 0.  1.
        -12    1    3    3    0    0  0.13376033230E+01 -0.61637833281E+00  0.25713679303E+01  0.29632816154E+01  0.00000000000E+00 0.  1.
</event>
<event>
 7    1  0.4237994E-013  0.5930180E+02  0.7816164E-02  0.1266605E+00
        -11   -1    0    0    0    0  0.00000000000E+00  0.00000000000E+00  0.45593999997E+02  0.45594000000E+02  0.51100000000E-03 0.  1.
         11   -1    0    0    0    0 -0.00000000000E+00 -0.00000000000E+00 -0.45593999997E+02  0.45594000000E+02  0.51100000000E-03 0. -1.
    9900012    2    1    2    0    0  0.26793866861E+02 -0.16972044964E+02 -0.32815010313E+01  0.59301798272E+02  0.49999734176E+02 0.  0.
         12    1    1    2    0    0 -0.26793866861E+02  0.16972044964E+02  0.32815010313E+01  0.31886201728E+02  0.00000000000E+00 0. -1.
         11    1    3    3    0    0  0.50078524961E+01  0.78443701958E+01 -0.12407228620E+02  0.15509740574E+02  0.51100000000E-03 0. -1.
        -11    1    3    3    0    0  0.27453127636E+02 -0.23306578500E+02  0.10967037698E+02  0.37645009424E+02  0.51100000000E-03 0.  1.
        -12    1    3    3    0    0 -0.56671132716E+01 -0.15098366597E+01 -0.18413101096E+01  0.61470482747E+01  0.00000000000E+00 0.  1.
</event>
<event>
 7    1  0.4237994E-013  0.5930195E+02  0.7816164E-02  0.1266605E+00
        -11   -1    0    0    0    0  0.00000000000E+00  0.00000000000E+00  0.45593999997E+02  0.45594000000E+02  0.51100000000E-03 0. -1.
         11   -1    0    0    0    0 -0.00000000000E+00 -0.00000000000E+00 -0.45593999997E+02  0.45594000000E+02  0.51100000000E-03 0.  1.
    9900012    2    1    2    0    0  0.44910436931E+01 -0.28769855030E+02  0.12994087903E+02  0.59301947370E+02  0.50000006095E+02 0.  0.
         12    1    1    2    0    0 -0.44910436931E+01  0.28769855030E+02 -0.12994087903E+02  0.31886052630E+02  0.00000000000E+00 0. -1.
         11    1    3    3    0    0 -0.97228968036E+01  0.63676517739E+01  0.85984484777E+01  0.14457352035E+02  0.51100000000E-03 0. -1.
        -11    1    3    3    0    0  0.23989993118E+01 -0.27592667704E+02 -0.47576689646E+01  0.28102418454E+02  0.51100000000E-03 0.  1.
         12    1    3    3    0    0  0.11814941185E+02 -0.75448390997E+01  0.91533083898E+01  0.16742176881E+02  0.00000000000E+00 0. -1.
</event>
<event>
 7    1  0.4237994E-013  0.5930196E+02  0.7816164E-02  0.1266605E+00
        -11   -1    0    0    0    0  0.00000000000E+00  0.00000000000E+00  0.45593999997E+02  0.45594000000E+02  0.51100000000E-03 0.  1.
         11   -1    0    0    0    0 -0.00000000000E+00 -0.00000000000E+00 -0.45593999997E+02  0.45594000000E+02  0.51100000000E-03 0. -1.
    9900012    2    1    2    0    0  0.16240902523E+02 -0.23340073400E+02  0.14428909956E+02  0.59301962561E+02  0.50000033800E+02 0.  0.
         12    1    1    2    0    0 -0.16240902523E+02  0.23340073400E+02 -0.14428909956E+02  0.31886037439E+02  0.00000000000E+00 0. -1.
         11    1    3    3    0    0  0.20861804420E+01 -0.26869500395E+01 -0.15617966970E+02  0.15984140323E+02  0.51100000000E-03 0. -1.
        -11    1    3    3    0    0  0.18696893442E+01 -0.18272416904E+02  0.20858965556E+02  0.27793405730E+02  0.51100000000E-03 0.  1.
         12    1    3    3    0    0  0.12285032736E+02 -0.23807064564E+01  0.91879113698E+01  0.15524416508E+02  0.00000000000E+00 0. -1.
</event>
<event>
 7    1  0.4237994E-013  0.5930196E+02  0.7816164E-02  0.1266605E+00
        -11   -1    0    0    0    0  0.00000000000E+00  0.00000000000E+00  0.45593999997E+02  0.45594000000E+02  0.51100000000E-03 0. -1.
         11   -1    0    0    0    0 -0.00000000000E+00 -0.00000000000E+00 -0.45593999997E+02  0.45594000000E+02  0.51100000000E-03 0.  1.
    9900012    2    1    2    0    0 -0.26102501771E+02 -0.66569861359E+01  0.17060583128E+02  0.59301959797E+02  0.50000028760E+02 0.  0.
         12    1    1    2    0    0  0.26102501771E+02  0.66569861359E+01 -0.17060583128E+02  0.31886040203E+02  0.00000000000E+00 0. -1.
         11    1    3    3    0    0 -0.43013925870E+01  0.11116214142E+02  0.94131942234E+00  0.11956516113E+02  0.51100000000E-03 0. -1.
        -11    1    3    3    0    0 -0.28120634737E+02 -0.21204833484E+02  0.73037062828E+01  0.35968864130E+02  0.51100000000E-03 0.  1.
        -12    1    3    3    0    0  0.63195255525E+01  0.34316332055E+01  0.88155574232E+01  0.11376579554E+02  0.00000000000E+00 0.  1.
</event>
<event>
 7    1  0.4237994E-013  0.5930193E+02  0.7816164E-02  0.1266605E+00
        -11   -1    0    0    0    0  0.00000000000E+00  0.00000000000E+00  0.45593999997E+02  0.45594000000E+02  0.51100000000E-03 0.  1.
         11   -1    0    0    0    0 -0.00000000000E+00 -0.00000000000E+00 -0.45593999997E+02  0.45594000000E+02  0.51100000000E-03 0. -1.
    9900012    2    1    2    0    0 -0.18428526884E+02  0.22578862958E+02  0.12934662751E+02  0.59301934767E+02  0.49999983110E+02 0.  0.
         12    1    1    2    0    0  0.18428526884E+02 -0.22578862958E+02 -0.12934662751E+02  0.31886065233E+02  0.00000000000E+00 0. -1.
         11    1    3    3    0    0 -0.89984506243E+01 -0.91776206257E+00  0.54665239594E+01  0.10568693642E+02  0.51100000000E-03 0. -1.
        -11    1    3    3    0    0  0.86270320639E+01 -0.15320002692E+01 -0.99795945926E+01  0.13280249077E+02  0.51100000000E-03 0.  1.
        -12    1    3    3    0    0 -0.18057108323E+02  0.25028625290E+02  0.17447733384E+02  0.35452992048E+02  0.00000000000E+00 0.  1.
</event>
<event>
 7    1  0.4237994E-013  0.5930195E+02  0.7816164E-02  0.1266605E+00
        -11   -1    0    0    0    0  0.00000000000E+00  0.00000000000E+00  0.45593999997E+02  0.45594000000E+02  0.51100000000E-03 0. -1.
         11   -1    0    0    0    0 -0.00000000000E+00 -0.00000000000E+00 -0.45593999997E+02  0.45594000000E+02  0.51100000000E-03 0.  1.
    9900012    2    1    2    0    0  0.20814705800E+02 -0.16935531374E+01 -0.24095644949E+02  0.59301949676E+02  0.50000010302E+02 0.  0.
         12    1    1    2    0    0 -0.20814705800E+02  0.16935531374E+01  0.24095644949E+02  0.31886050324E+02  0.00000000000E+00 0. -1.
         11    1    3    3    0    0 -0.11120906787E+02 -0.32054119316E+00  0.19322255284E+01  0.11292068463E+02  0.51100000000E-03 0. -1.
        -11    1    3    3    0    0  0.29964916978E+02  0.72925075782E+01 -0.23493385151E+02  0.38768751107E+02  0.51100000000E-03 0.  1.
        -12    1    3    3    0    0  0.19706956088E+01 -0.86655195225E+01 -0.25344853257E+01  0.92411301064E+01  0.00000000000E+00 0.  1.
</event>
<event>
 7    1  0.4237994E-013  0.5930196E+02  0.7816164E-02  0.1266605E+00
        -11   -1    0    0    0    0  0.00000000000E+00  0.00000000000E+00  0.45593999997E+02  0.45594000000E+02  0.51100000000E-03 0. -1.
         11   -1    0    0    0    0 -0.00000000000E+00 -0.00000000000E+00 -0.45593999997E+02  0.45594000000E+02  0.51100000000E-03 0.  1.
    9900012    2    1    2    0    0 -0.41939751370E+01 -0.27543237066E+02 -0.15508068484E+02  0.59301960365E+02  0.50000029794E+02 0.  0.
         12    1    1    2    0    0  0.41939751370E+01  0.27543237066E+02  0.15508068484E+02  0.31886039635E+02  0.00000000000E+00 0. -1.
         11    1    3    3    0    0  0.47789849090E+01 -0.78579501997E+01  0.11772321098E+02  0.14938996700E+02  0.51100000000E-03 0. -1.
        -11    1    3    3    0    0  0.91694527590E-01 -0.73225041024E+01 -0.28073142090E+02  0.29012562473E+02  0.51100000000E-03 0.  1.
        -12    1    3    3    0    0 -0.90646545736E+01 -0.12362782764E+02  0.79275250786E+00  0.15350401192E+02  0.00000000000E+00 0.  1.
</event>
<event>
 7    1  0.4237994E-013  0.5930193E+02  0.7816164E-02  0.1266605E+00
        -11   -1    0    0    0    0  0.00000000000E+00  0.00000000000E+00  0.45593999997E+02  0.45594000000E+02  0.51100000000E-03 0.  1.
         11   -1    0    0    0    0 -0.00000000000E+00 -0.00000000000E+00 -0.45593999997E+02  0.45594000000E+02  0.51100000000E-03 0. -1.
    9900012    2    1    2    0    0 -0.31968834378E+00  0.10023396354E+02  0.30267979868E+02  0.59301932817E+02  0.49999979555E+02 0.  0.
         12    1    1    2    0    0  0.31968834378E+00 -0.10023396354E+02 -0.30267979868E+02  0.31886067183E+02  0.00000000000E+00 0. -1.
         11    1    3    3    0    0  0.76056848343E+01 -0.37184999350E+01 -0.85162485161E+01  0.12008337629E+02  0.51100000000E-03 0. -1.
        -11    1    3    3    0    0 -0.11121730166E+02  0.69522507546E+01  0.37438508820E+02  0.39669492250E+02  0.51100000000E-03 0.  1.
        -12    1    3    3    0    0  0.31963569878E+01  0.67896455344E+01  0.13457195639E+01  0.76241029387E+01  0.00000000000E+00 0.  1.
</event>
<event>
 7    1  0.4237994E-013  0.5930196E+02  0.7816164E-02  0.1266605E+00
        -11   -1    0    0    0    0  0.00000000000E+00  0.00000000000E+00  0.45593999997E+02  0.45594000000E+02  0.51100000000E-03 0.  1.
         11   -1    0    0    0    0 -0.00000000000E+00 -0.00000000000E+00 -0.45593999997E+02  0.45594000000E+02  0.51100000000E-03 0. -1.
    9900012    2    1    2    0    0 -0.29928402040E+02  0.35240794229E+01  0.10420716763E+02  0.59301957249E+02  0.50000024112E+02 0.  0.
         12    1    1    2    0    0  0.29928402040E+02 -0.35240794229E+01 -0.10420716763E+02  0.31886042751E+02  0.00000000000E+00 0. -1.
         11    1    3    3    0    0  0.19590188751E+01 -0.97568855675E+01  0.14176516655E+02  0.17320744662E+02  0.51100000000E-03 0. -1.
        -11    1    3    3    0    0 -0.29397186216E+02  0.12237021668E+01 -0.14719658978E+01  0.29459441412E+02  0.51100000000E-03 0.  1.
        -12    1    3    3    0    0 -0.24902346989E+01  0.12057262824E+02 -0.22838339933E+01  0.12521771175E+02  0.00000000000E+00 0.  1.
</event>
<event>
 7    1  0.4237994E-013  0.5930198E+02  0.7816164E-02  0.1266605E+00
        -11   -1    0    0    0    0  0.00000000000E+00  0.00000000000E+00  0.45593999997E+02  0.45594000000E+02  0.51100000000E-03 0. -1.
         11   -1    0    0    0    0 -0.00000000000E+00 -0.00000000000E+00 -0.45593999997E+02  0.45594000000E+02  0.51100000000E-03 0.  1.
    9900012    2    1    2    0    0  0.26739496573E+02 -0.76371558076E+01 -0.15601014545E+02  0.59301976719E+02  0.50000059621E+02 0.  0.
         12    1    1    2    0    0 -0.26739496573E+02  0.76371558076E+01  0.15601014545E+02  0.31886023281E+02  0.00000000000E+00 0. -1.
         11    1    3    3    0    0  0.31432040514E+01  0.12064923905E+02 -0.75060058008E+01  0.14552740081E+02  0.51100000000E-03 0.  1.
        -11    1    3    3    0    0 -0.47049396658E+01 -0.82825644991E+01  0.58684385013E+01  0.11188203727E+02  0.51100000000E-03 0. -1.
         12    1    3    3    0    0  0.28301232188E+02 -0.11419515213E+02 -0.13963447246E+02  0.33561032911E+02  0.00000000000E+00 0. -1.
</event>
<event>
 7    1  0.4237994E-013  0.5930194E+02  0.7816164E-02  0.1266605E+00
        -11   -1    0    0    0    0  0.00000000000E+00  0.00000000000E+00  0.45593999997E+02  0.45594000000E+02  0.51100000000E-03 0. -1.
         11   -1    0    0    0    0 -0.00000000000E+00 -0.00000000000E+00 -0.45593999997E+02  0.45594000000E+02  0.51100000000E-03 0.  1.
    9900012    2    1    2    0    0 -0.30493856760E+02  0.42564549265E+01 -0.82902340758E+01  0.59301942080E+02  0.49999996448E+02 0.  0.
         12    1    1    2    0    0  0.30493856760E+02 -0.42564549265E+01  0.82902340758E+01  0.31886057920E+02  0.00000000000E+00 0. -1.
         11    1    3    3    0    0 -0.24151735198E+02 -0.83621971748E+01  0.13770780373E+02  0.29032172620E+02  0.51100000000E-03 0. -1.
        -11    1    3    3    0    0  0.41913507825E+01  0.52193894568E+01 -0.31618285970E+01  0.74031485209E+01  0.51100000000E-03 0.  1.
         12    1    3    3    0    0 -0.10533472345E+02  0.73992626445E+01 -0.18899185852E+02  0.22866620940E+02  0.00000000000E+00 0. -1.
</event>
<event>
 7    1  0.4237994E-013  0.5930187E+02  0.7816164E-02  0.1266605E+00
        -11   -1    0    0    0    0  0.00000000000E+00  0.00000000000E+00  0.45593999997E+02  0.45594000000E+02  0.51100000000E-03 0.  1.
         11   -1    0    0    0    0 -0.00000000000E+00 -0.00000000000E+00 -0.45593999997E+02  0.45594000000E+02  0.51100000000E-03 0. -1.
    9900012    2    1    2    0    0 -0.30752731326E+02  0.83621835515E+01  0.10338981789E+01  0.59301865973E+02  0.49999857647E+02 0.  0.
         12    1    1    2    0    0  0.30752731326E+02 -0.83621835515E+01 -0.10338981789E+01  0.31886134027E+02  0.00000000000E+00 0. -1.
         11    1    3    3    0    0  0.22031316079E+01  0.15785552429E+02  0.11706223676E+02  0.19775568952E+02  0.51100000000E-03 0. -1.
        -11    1    3    3    0    0 -0.26664910029E+02  0.29900107974E+00 -0.12414285924E+02  0.29414644716E+02  0.51100000000E-03 0.  1.
         12    1    3    3    0    0 -0.62909529049E+01 -0.77223699575E+01  0.17419604272E+01  0.10111652305E+02  0.00000000000E+00 0. -1.
</event>
<event>
 7    1  0.4237994E-013  0.5930185E+02  0.7816164E-02  0.1266605E+00
        -11   -1    0    0    0    0  0.00000000000E+00  0.00000000000E+00  0.45593999997E+02  0.45594000000E+02  0.51100000000E-03 0.  1.
         11   -1    0    0    0    0 -0.00000000000E+00 -0.00000000000E+00 -0.45593999997E+02  0.45594000000E+02  0.51100000000E-03 0. -1.
    9900012    2    1    2    0    0 -0.66703484009E+00 -0.18183269071E+02  0.26184927292E+02  0.59301848980E+02  0.49999826656E+02 0.  0.
         12    1    1    2    0    0  0.66703484009E+00  0.18183269071E+02 -0.26184927292E+02  0.31886151020E+02  0.00000000000E+00 0. -1.
         11    1    3    3    0    0  0.12155942290E+02 -0.57802327362E+01 -0.48401283959E+01  0.14304015750E+02  0.51100000000E-03 0. -1.
        -11    1    3    3    0    0 -0.47055905612E+01 -0.20048773527E+02  0.24768366080E+02  0.32211300206E+02  0.51100000000E-03 0.  1.
        -12    1    3    3    0    0 -0.81173865684E+01  0.76457371923E+01  0.62566896082E+01  0.12786533024E+02  0.00000000000E+00 0.  1.
</event>
<event>
 7    1  0.4237994E-013  0.5930194E+02  0.7816164E-02  0.1266605E+00
        -11   -1    0    0    0    0  0.00000000000E+00  0.00000000000E+00  0.45593999997E+02  0.45594000000E+02  0.51100000000E-03 0.  1.
         11   -1    0    0    0    0 -0.00000000000E+00 -0.00000000000E+00 -0.45593999997E+02  0.45594000000E+02  0.51100000000E-03 0. -1.
    9900012    2    1    2    0    0  0.11240945850E+02  0.96718344138E+01  0.28227955060E+02  0.59301942053E+02  0.49999996398E+02 0.  0.
         12    1    1    2    0    0 -0.11240945850E+02 -0.96718344138E+01 -0.28227955060E+02  0.31886057947E+02  0.00000000000E+00 0. -1.
         11    1    3    3    0    0 -0.12555596201E+02  0.16932381831E+02  0.87228943245E+01  0.22813097907E+02  0.51100000000E-03 0. -1.
        -11    1    3    3    0    0  0.21728487413E+02 -0.45472097874E+01  0.22745880784E+02  0.31783319131E+02  0.51100000000E-03 0.  1.
         12    1    3    3    0    0  0.20680546383E+01 -0.27133376302E+01 -0.32408200480E+01  0.47055250149E+01  0.00000000000E+00 0. -1.
</event>
<event>
 7    1  0.4237994E-013  0.5930195E+02  0.7816164E-02  0.1266605E+00
        -11   -1    0    0    0    0  0.00000000000E+00  0.00000000000E+00  0.45593999997E+02  0.45594000000E+02  0.51100000000E-03 0.  1.
         11   -1    0    0    0    0 -0.00000000000E+00 -0.00000000000E+00 -0.45593999997E+02  0.45594000000E+02  0.51100000000E-03 0. -1.
    9900012    2    1    2    0    0  0.10758171883E+02 -0.25113627530E+02  0.16440424252E+02  0.59301951333E+02  0.50000013324E+02 0.  0.
         12    1    1    2    0    0 -0.10758171883E+02  0.25113627530E+02 -0.16440424252E+02  0.31886048667E+02  0.00000000000E+00 0. -1.
         11    1    3    3    0    0  0.12823048617E+02 -0.15347822663E+02  0.12507748580E+02  0.23588768750E+02  0.51100000000E-03 0.  1.
        -11    1    3    3    0    0 -0.15265186830E+02 -0.35049311011E+01  0.11336343337E+02  0.19334506756E+02  0.51100000000E-03 0. -1.
        -12    1    3    3    0    0  0.13200310097E+02 -0.62608737656E+01 -0.74036676647E+01  0.16378675827E+02  0.00000000000E+00 0.  1.
</event>
<event>
 7    1  0.4237994E-013  0.5930197E+02  0.7816164E-02  0.1266605E+00
        -11   -1    0    0    0    0  0.00000000000E+00  0.00000000000E+00  0.45593999997E+02  0.45594000000E+02  0.51100000000E-03 0.  1.
         11   -1    0    0    0    0 -0.00000000000E+00 -0.00000000000E+00 -0.45593999997E+02  0.45594000000E+02  0.51100000000E-03 0. -1.
    9900012    2    1    2    0    0  0.44530274760E+01 -0.88943830992E+01  0.30294873643E+02  0.59301970560E+02  0.50000048388E+02 0.  0.
         12    1    1    2    0    0 -0.44530274760E+01  0.88943830992E+01 -0.30294873643E+02  0.31886029440E+02  0.00000000000E+00 0. -1.
         11    1    3    3    0    0 -0.12911789955E+02  0.71108521975E+01 -0.60635089300E+01  0.15938779113E+02  0.51100000000E-03 0. -1.
        -11    1    3    3    0    0  0.11778428989E+02 -0.11344892485E+02  0.25460621627E+02  0.30260225195E+02  0.51100000000E-03 0.  1.
         12    1    3    3    0    0  0.55863884425E+01 -0.46603428119E+01  0.10897760946E+02  0.13102966251E+02  0.00000000000E+00 0. -1.
</event>
<event>
 7    1  0.4237994E-013  0.5930191E+02  0.7816164E-02  0.1266605E+00
        -11   -1    0    0    0    0  0.00000000000E+00  0.00000000000E+00  0.45593999997E+02  0.45594000000E+02  0.51100000000E-03 0.  1.
         11   -1    0    0    0    0 -0.00000000000E+00 -0.00000000000E+00 -0.45593999997E+02  0.45594000000E+02  0.51100000000E-03 0. -1.
    9900012    2    1    2    0    0  0.84288784826E+01  0.30052249669E+02 -0.65222036311E+01  0.59301908317E+02  0.49999934871E+02 0.  0.
         12    1    1    2    0    0 -0.84288784826E+01 -0.30052249669E+02  0.65222036311E+01  0.31886091683E+02  0.00000000000E+00 0. -1.
         11    1    3    3    0    0  0.22520724112E+01 -0.11329805770E+02 -0.12227350994E+02  0.16820952456E+02  0.51100000000E-03 0. -1.
        -11    1    3    3    0    0  0.43095001527E+01  0.32148114797E+02  0.25084817897E+01  0.32532530761E+02  0.51100000000E-03 0.  1.
         12    1    3    3    0    0  0.18673059187E+01  0.92339406421E+01  0.31966655735E+01  0.99484250997E+01  0.00000000000E+00 0. -1.
</event>
<event>
 7    1  0.4237994E-013  0.5930195E+02  0.7816164E-02  0.1266605E+00
        -11   -1    0    0    0    0  0.00000000000E+00  0.00000000000E+00  0.45593999997E+02  0.45594000000E+02  0.51100000000E-03 0.  1.
         11   -1    0    0    0    0 -0.00000000000E+00 -0.00000000000E+00 -0.45593999997E+02  0.45594000000E+02  0.51100000000E-03 0. -1.
    9900012    2    1    2    0    0  0.21411380627E+02  0.61033283201E+01  0.22825915055E+02  0.59301949209E+02  0.50000009450E+02 0.  0.
         12    1    1    2    0    0 -0.21411380627E+02 -0.61033283201E+01 -0.22825915055E+02  0.31886050791E+02  0.00000000000E+00 0. -1.
         11    1    3    3    0    0  0.19773217841E+02  0.58420169240E+01 -0.24204329250E+01  0.20759764000E+02  0.51100000000E-03 0.  1.
        -11    1    3    3    0    0 -0.39234532487E+01 -0.11221019652E+02  0.22565780643E+02  0.25505278350E+02  0.51100000000E-03 0. -1.
        -12    1    3    3    0    0  0.55616160340E+01  0.11482331048E+02  0.26805673368E+01  0.13036906859E+02  0.00000000000E+00 0.  1.
</event>
<event>
 7    1  0.4237994E-013  0.5930194E+02  0.7816164E-02  0.1266605E+00
        -11   -1    0    0    0    0  0.00000000000E+00  0.00000000000E+00  0.45593999997E+02  0.45594000000E+02  0.51100000000E-03 0. -1.
         11   -1    0    0    0    0 -0.00000000000E+00 -0.00000000000E+00 -0.45593999997E+02  0.45594000000E+02  0.51100000000E-03 0.  1.
    9900012    2    1    2    0    0  0.25734576540E+02 -0.12751654698E+02 -0.13850906355E+02  0.59301941383E+02  0.49999995177E+02 0.  0.
         12    1    1    2    0    0 -0.25734576540E+02  0.12751654698E+02  0.13850906355E+02  0.31886058617E+02  0.00000000000E+00 0. -1.
         11    1    3    3    0    0  0.89030790603E+01 -0.12075193348E+02 -0.36427829853E+01  0.15438425414E+02  0.51100000000E-03 0. -1.
        -11    1    3    3    0    0  0.77724897006E+01  0.65298717966E+01 -0.23880731813E+02  0.25948799086E+02  0.51100000000E-03 0.  1.
        -12    1    3    3    0    0  0.90590077794E+01 -0.72063331467E+01  0.13672608443E+02  0.17914716883E+02  0.00000000000E+00 0.  1.
</event>
<event>
 7    1  0.4237994E-013  0.5930181E+02  0.7816164E-02  0.1266605E+00
        -11   -1    0    0    0    0  0.00000000000E+00  0.00000000000E+00  0.45593999997E+02  0.45594000000E+02  0.51100000000E-03 0. -1.
         11   -1    0    0    0    0 -0.00000000000E+00 -0.00000000000E+00 -0.45593999997E+02  0.45594000000E+02  0.51100000000E-03 0.  1.
    9900012    2    1    2    0    0  0.29938768584E+02  0.10887225369E+02 -0.13666607872E+01  0.59301807028E+02  0.49999750144E+02 0.  0.
         12    1    1    2    0    0 -0.29938768584E+02 -0.10887225369E+02  0.13666607872E+01  0.31886192972E+02  0.00000000000E+00 0. -1.
         11    1    3    3    0    0  0.19281481574E+02  0.20967499814E+02  0.11339289834E+02  0.30659273872E+02  0.51100000000E-03 0. -1.
        -11    1    3    3    0    0 -0.36391497349E+01 -0.10597604920E+02 -0.71715233988E+01  0.13303510400E+02  0.51100000000E-03 0.  1.
        -12    1    3    3    0    0  0.14296436745E+02  0.51733047463E+00 -0.55344272227E+01  0.15339022756E+02  0.00000000000E+00 0.  1.
</event>
<event>
 7    1  0.4237994E-013  0.5930194E+02  0.7816164E-02  0.1266605E+00
        -11   -1    0    0    0    0  0.00000000000E+00  0.00000000000E+00  0.45593999997E+02  0.45594000000E+02  0.51100000000E-03 0.  1.
         11   -1    0    0    0    0 -0.00000000000E+00 -0.00000000000E+00 -0.45593999997E+02  0.45594000000E+02  0.51100000000E-03 0. -1.
    9900012    2    1    2    0    0  0.10536262396E+02 -0.18876377585E+02  0.23439081733E+02  0.59301937080E+02  0.49999987329E+02 0.  0.
         12    1    1    2    0    0 -0.10536262396E+02  0.18876377585E+02 -0.23439081733E+02  0.31886062920E+02  0.00000000000E+00 0. -1.
         11    1    3    3    0    0  0.21585929497E+02 -0.10535762287E+02 -0.31174574890E+01  0.24221337302E+02  0.51100000000E-03 0. -1.
        -11    1    3    3    0    0 -0.30812537989E+01  0.53109828119E+01  0.33283975547E+01  0.69841888538E+01  0.51100000000E-03 0.  1.
         12    1    3    3    0    0 -0.79684133019E+01 -0.13651598110E+02  0.23228141668E+02  0.28096410925E+02  0.00000000000E+00 0. -1.
</event>
<event>
 7    1  0.4237994E-013  0.5930194E+02  0.7816164E-02  0.1266605E+00
        -11   -1    0    0    0    0  0.00000000000E+00  0.00000000000E+00  0.45593999997E+02  0.45594000000E+02  0.51100000000E-03 0. -1.
         11   -1    0    0    0    0 -0.00000000000E+00 -0.00000000000E+00 -0.45593999997E+02  0.45594000000E+02  0.51100000000E-03 0.  1.
    9900012    2    1    2    0    0 -0.43767019310E+01  0.28281562534E+02  0.14061246483E+02  0.59301937970E+02  0.49999988952E+02 0.  0.
         12    1    1    2    0    0  0.43767019310E+01 -0.28281562534E+02 -0.14061246483E+02  0.31886062030E+02  0.00000000000E+00 0. -1.
         11    1    3    3    0    0  0.34542013185E+01 -0.69616160984E+01 -0.66793536891E+01  0.10247408034E+02  0.51100000000E-03 0. -1.
        -11    1    3    3    0    0 -0.17309823854E+02  0.21717684810E+02  0.10938888344E+02  0.29848737223E+02  0.51100000000E-03 0.  1.
         12    1    3    3    0    0  0.94789206041E+01  0.13525493822E+02  0.98017118285E+01  0.19205792713E+02  0.00000000000E+00 0. -1.
</event>
<event>
 7    1  0.4237994E-013  0.5930196E+02  0.7816164E-02  0.1266605E+00
        -11   -1    0    0    0    0  0.00000000000E+00  0.00000000000E+00  0.45593999997E+02  0.45594000000E+02  0.51100000000E-03 0.  1.
         11   -1    0    0    0    0 -0.00000000000E+00 -0.00000000000E+00 -0.45593999997E+02  0.45594000000E+02  0.51100000000E-03 0. -1.
    9900012    2    1    2    0    0  0.14153114400E+02 -0.31118220050E+01  0.28402915119E+02  0.59301958059E+02  0.50000025589E+02 0.  0.
         12    1    1    2    0    0 -0.14153114400E+02  0.31118220050E+01 -0.28402915119E+02  0.31886041941E+02  0.00000000000E+00 0. -1.
         11    1    3    3    0    0  0.15667524742E+02  0.13550188352E+02  0.13145656664E+02  0.24533390009E+02  0.51100000000E-03 0. -1.
        -11    1    3    3    0    0 -0.20819840675E+01 -0.86345349868E+01  0.22344541283E+02  0.24045132096E+02  0.51100000000E-03 0.  1.
         12    1    3    3    0    0  0.56757372537E+00 -0.80274753706E+01 -0.70872828283E+01  0.10723435953E+02  0.00000000000E+00 0. -1.
</event>
<event>
 7    1  0.4237994E-013  0.5930197E+02  0.7816164E-02  0.1266605E+00
        -11   -1    0    0    0    0  0.00000000000E+00  0.00000000000E+00  0.45593999997E+02  0.45594000000E+02  0.51100000000E-03 0.  1.
         11   -1    0    0    0    0 -0.00000000000E+00 -0.00000000000E+00 -0.45593999997E+02  0.45594000000E+02  0.51100000000E-03 0. -1.
    9900012    2    1    2    0    0  0.20544224938E+02  0.36466936149E+01  0.24111309721E+02  0.59301971569E+02  0.50000050229E+02 0.  0.
         12    1    1    2    0    0 -0.20544224938E+02 -0.36466936149E+01 -0.24111309721E+02  0.31886028431E+02  0.00000000000E+00 0. -1.
         11    1    3    3    0    0 -0.26404447546E+01 -0.16926815259E+02  0.20699441525E+02  0.26869237113E+02  0.51100000000E-03 0. -1.
        -11    1    3    3    0    0  0.41153285116E+01  0.85448676013E+01 -0.71842810657E+00  0.95114052741E+01  0.51100000000E-03 0.  1.
         12    1    3    3    0    0  0.19069341181E+02  0.12028641273E+02  0.41302963028E+01  0.22921329182E+02  0.00000000000E+00 0. -1.
</event>
<event>
 7    1  0.4237994E-013  0.5930189E+02  0.7816164E-02  0.1266605E+00
        -11   -1    0    0    0    0  0.00000000000E+00  0.00000000000E+00  0.45593999997E+02  0.45594000000E+02  0.51100000000E-03 0.  1.
         11   -1    0    0    0    0 -0.00000000000E+00 -0.00000000000E+00 -0.45593999997E+02  0.45594000000E+02  0.51100000000E-03 0. -1.
    9900012    2    1    2    0    0  0.13663973436E+02  0.19344707968E+00  0.28809410872E+02  0.59301894145E+02  0.49999909025E+02 0.  0.
         12    1    1    2    0    0 -0.13663973436E+02 -0.19344707968E+00 -0.28809410872E+02  0.31886105855E+02  0.00000000000E+00 0. -1.
         11    1    3    3    0    0 -0.10061261726E+00  0.83406812612E+01 -0.31479170962E+01  0.89155184429E+01  0.51100000000E-03 0. -1.
        -11    1    3    3    0    0  0.32958799979E+01 -0.17766583011E+02  0.31315416529E+02  0.36154800642E+02  0.51100000000E-03 0.  1.
        -12    1    3    3    0    0  0.10468706055E+02  0.96193488298E+01  0.64191143954E+00  0.14231575060E+02  0.00000000000E+00 0.  1.
</event>
<event>
 7    1  0.4237994E-013  0.5930195E+02  0.7816164E-02  0.1266605E+00
        -11   -1    0    0    0    0  0.00000000000E+00  0.00000000000E+00  0.45593999997E+02  0.45594000000E+02  0.51100000000E-03 0. -1.
         11   -1    0    0    0    0 -0.00000000000E+00 -0.00000000000E+00 -0.45593999997E+02  0.45594000000E+02  0.51100000000E-03 0.  1.
    9900012    2    1    2    0    0 -0.46608859391E+00  0.17986806081E+02 -0.26324472105E+02  0.59301948768E+02  0.50000008645E+02 0.  0.
         12    1    1    2    0    0  0.46608859391E+00 -0.17986806081E+02  0.26324472105E+02  0.31886051232E+02  0.00000000000E+00 0. -1.
         11    1    3    3    0    0  0.40430404723E+01 -0.74077951475E+01  0.77878771802E+00  0.84751469473E+01  0.51100000000E-03 0. -1.
        -11    1    3    3    0    0  0.12557173715E+02  0.20993740774E+02 -0.10526048855E+02  0.26631137192E+02  0.51100000000E-03 0.  1.
        -12    1    3    3    0    0 -0.17066302781E+02  0.44008604549E+01 -0.16577210968E+02  0.24195664629E+02  0.00000000000E+00 0.  1.
</event>
<event>
 7    1  0.4237994E-013  0.5930195E+02  0.7816164E-02  0.1266605E+00
        -11   -1    0    0    0    0  0.00000000000E+00  0.00000000000E+00  0.45593999997E+02  0.45594000000E+02  0.51100000000E-03 0.  1.
         11   -1    0    0    0    0 -0.00000000000E+00 -0.00000000000E+00 -0.45593999997E+02  0.45594000000E+02  0.51100000000E-03 0. -1.
    9900012    2    1    2    0    0 -0.36577477209E+01  0.26443136740E+02  0.17438516937E+02  0.59301945493E+02  0.50000002673E+02 0.  0.
         12    1    1    2    0    0  0.36577477209E+01 -0.26443136740E+02 -0.17438516937E+02  0.31886054507E+02  0.00000000000E+00 0. -1.
         11    1    3    3    0    0 -0.27516996697E+01  0.16989225220E+02 -0.83079727095E+01  0.19110940204E+02  0.51100000000E-03 0. -1.
        -11    1    3    3    0    0 -0.82364279563E+01  0.12355178660E+02  0.28253911958E+02  0.31918219349E+02  0.51100000000E-03 0.  1.
        -12    1    3    3    0    0  0.73303799051E+01 -0.29012671400E+01 -0.25074223116E+01  0.82727859407E+01  0.00000000000E+00 0.  1.
</event>
<event>
 7    1  0.4237994E-013  0.5930192E+02  0.7816164E-02  0.1266605E+00
        -11   -1    0    0    0    0  0.00000000000E+00  0.00000000000E+00  0.45593999997E+02  0.45594000000E+02  0.51100000000E-03 0.  1.
         11   -1    0    0    0    0 -0.00000000000E+00 -0.00000000000E+00 -0.45593999997E+02  0.45594000000E+02  0.51100000000E-03 0. -1.
    9900012    2    1    2    0    0 -0.23664586217E+02  0.31575891090E+01  0.21136196734E+02  0.59301924321E+02  0.49999964060E+02 0.  0.
         12    1    1    2    0    0  0.23664586217E+02 -0.31575891090E+01 -0.21136196734E+02  0.31886075679E+02  0.00000000000E+00 0. -1.
         11    1    3    3    0    0 -0.15763849732E+02  0.17700414952E+02  0.25331831408E+02  0.34691574346E+02  0.51100000000E-03 0. -1.
        -11    1    3    3    0    0 -0.11598776465E+02 -0.10691438978E+02  0.25795366859E+01  0.15984132528E+02  0.51100000000E-03 0.  1.
         12    1    3    3    0    0  0.36980399807E+01 -0.38513868657E+01 -0.67751713598E+01  0.86262174470E+01  0.00000000000E+00 0. -1.
</event>
<event>
 7    1  0.4237994E-013  0.5930194E+02  0.7816164E-02  0.1266605E+00
        -11   -1    0    0    0    0  0.00000000000E+00  0.00000000000E+00  0.45593999997E+02  0.45594000000E+02  0.51100000000E-03 0.  1.
         11   -1    0    0    0    0 -0.00000000000E+00 -0.00000000000E+00 -0.45593999997E+02  0.45594000000E+02  0.51100000000E-03 0. -1.
    9900012    2    1    2    0    0  0.26105035391E+02  0.55898916141E+01  0.17435617816E+02  0.59301944589E+02  0.50000001024E+02 0.  0.
         12    1    1    2    0    0 -0.26105035391E+02 -0.55898916141E+01 -0.17435617816E+02  0.31886055411E+02  0.00000000000E+00 0. -1.
         11    1    3    3    0    0 -0.78272915772E+01  0.65674888164E+01  0.75869816215E+01  0.12726377850E+02  0.51100000000E-03 0. -1.
        -11    1    3    3    0    0  0.25174183898E+02  0.11412512922E+02  0.13803905298E+02  0.30895514042E+02  0.51100000000E-03 0.  1.
         12    1    3    3    0    0  0.87581430701E+01 -0.12390110124E+02 -0.39552691039E+01  0.15680052698E+02  0.00000000000E+00 0. -1.
</event>
<event>
 7    1  0.4237994E-013  0.5930194E+02  0.7816164E-02  0.1266605E+00
        -11   -1    0    0    0    0  0.00000000000E+00  0.00000000000E+00  0.45593999997E+02  0.45594000000E+02  0.51100000000E-03 0.  1.
         11   -1    0    0    0    0 -0.00000000000E+00 -0.00000000000E+00 -0.45593999997E+02  0.45594000000E+02  0.51100000000E-03 0. -1.
    9900012    2    1    2    0    0  0.50087389916E+01  0.18203812158E+02  0.25695424956E+02  0.59301935536E+02  0.49999984513E+02 0.  0.
         12    1    1    2    0    0 -0.50087389916E+01 -0.18203812158E+02 -0.25695424956E+02  0.31886064464E+02  0.00000000000E+00 0. -1.
         11    1    3    3    0    0  0.11436294833E+01  0.30805431929E+01 -0.14719091681E+02  0.15081422179E+02  0.51100000000E-03 0. -1.
        -11    1    3    3    0    0  0.57576645500E+01  0.56159229974E+01  0.15005318800E+02  0.17024948891E+02  0.51100000000E-03 0.  1.
         12    1    3    3    0    0 -0.18925550417E+01  0.95073459672E+01  0.25409197837E+02  0.27195564466E+02  0.00000000000E+00 0. -1.
</event>
<event>
 7    1  0.4237994E-013  0.5930195E+02  0.7816164E-02  0.1266605E+00
        -11   -1    0    0    0    0  0.00000000000E+00  0.00000000000E+00  0.45593999997E+02  0.45594000000E+02  0.51100000000E-03 0.  1.
         11   -1    0    0    0    0 -0.00000000000E+00 -0.00000000000E+00 -0.45593999997E+02  0.45594000000E+02  0.51100000000E-03 0. -1.
    9900012    2    1    2    0    0  0.29437293023E+02 -0.45435204484E+01  0.11380790311E+02  0.59301949968E+02  0.50000010833E+02 0.  0.
         12    1    1    2    0    0 -0.29437293023E+02  0.45435204484E+01 -0.11380790311E+02  0.31886050032E+02  0.00000000000E+00 0. -1.
         11    1    3    3    0    0 -0.12697386747E+02  0.31152798321E+01 -0.17611358686E+01  0.13192050577E+02  0.51100000000E-03 0. -1.
        -11    1    3    3    0    0  0.16804904963E+02 -0.64297171326E+01  0.10730265743E+01  0.18024912747E+02  0.51100000000E-03 0.  1.
         12    1    3    3    0    0  0.25329774806E+02 -0.12290831479E+01  0.12068899605E+02  0.28084986644E+02  0.00000000000E+00 0. -1.
</event>
<event>
 7    1  0.4237994E-013  0.5930200E+02  0.7816164E-02  0.1266605E+00
        -11   -1    0    0    0    0  0.00000000000E+00  0.00000000000E+00  0.45593999997E+02  0.45594000000E+02  0.51100000000E-03 0.  1.
         11   -1    0    0    0    0 -0.00000000000E+00 -0.00000000000E+00 -0.45593999997E+02  0.45594000000E+02  0.51100000000E-03 0. -1.
    9900012    2    1    2    0    0 -0.83976437454E+01  0.16443677482E+02  0.25996196735E+02  0.59301996891E+02  0.50000096410E+02 0.  0.
         12    1    1    2    0    0  0.83976437454E+01 -0.16443677482E+02 -0.25996196735E+02  0.31886003109E+02  0.00000000000E+00 0. -1.
         11    1    3    3    0    0  0.46526270853E+01  0.76728271103E+01 -0.41211484490E+01  0.98743647623E+01  0.51100000000E-03 0. -1.
        -11    1    3    3    0    0 -0.14683444860E+02 -0.11272651635E+02  0.10254248382E+02  0.21161895898E+02  0.51100000000E-03 0.  1.
        -12    1    3    3    0    0  0.16331740297E+01  0.20043502007E+02  0.19863096802E+02  0.28265736231E+02  0.00000000000E+00 0.  1.
</event>
<event>
 7    1  0.4237994E-013  0.5930192E+02  0.7816164E-02  0.1266605E+00
        -11   -1    0    0    0    0  0.00000000000E+00  0.00000000000E+00  0.45593999997E+02  0.45594000000E+02  0.51100000000E-03 0.  1.
         11   -1    0    0    0    0 -0.00000000000E+00 -0.00000000000E+00 -0.45593999997E+02  0.45594000000E+02  0.51100000000E-03 0. -1.
    9900012    2    1    2    0    0  0.87692192748E+01  0.27253477440E+02  0.14038182199E+02  0.59301924689E+02  0.49999964731E+02 0.  0.
         12    1    1    2    0    0 -0.87692192748E+01 -0.27253477440E+02 -0.14038182199E+02  0.31886075311E+02  0.00000000000E+00 0. -1.
         11    1    3    3    0    0 -0.77302823221E+01  0.20786248550E+02  0.24451092115E+02  0.33010321105E+02  0.51100000000E-03 0. -1.
        -11    1    3    3    0    0  0.58678563391E+01  0.94612276630E+01 -0.10416667990E+02  0.15246427096E+02  0.51100000000E-03 0.  1.
         12    1    3    3    0    0  0.10631645258E+02 -0.29939987731E+01  0.37580731169E-02  0.11045176489E+02  0.00000000000E+00 0. -1.
</event>
<event>
 7    1  0.4237994E-013  0.5930194E+02  0.7816164E-02  0.1266605E+00
        -11   -1    0    0    0    0  0.00000000000E+00  0.00000000000E+00  0.45593999997E+02  0.45594000000E+02  0.51100000000E-03 0.  1.
         11   -1    0    0    0    0 -0.00000000000E+00 -0.00000000000E+00 -0.45593999997E+02  0.45594000000E+02  0.51100000000E-03 0. -1.
    9900012    2    1    2    0    0  0.20188460262E+02 -0.58390754440E+01  0.23980241910E+02  0.59301941418E+02  0.49999995241E+02 0.  0.
         12    1    1    2    0    0 -0.20188460262E+02  0.58390754440E+01 -0.23980241910E+02  0.31886058582E+02  0.00000000000E+00 0. -1.
         11    1    3    3    0    0  0.22167062743E+01 -0.18042613366E+02 -0.13194737159E+01  0.18226099279E+02  0.51100000000E-03 0. -1.
        -11    1    3    3    0    0  0.39938390700E+01  0.14939920305E+02  0.49513547599E+01  0.16237853413E+02  0.51100000000E-03 0.  1.
         12    1    3    3    0    0  0.13977914918E+02 -0.27363823832E+01  0.20348360866E+02  0.24837988726E+02  0.00000000000E+00 0. -1.
</event>
<event>
 7    1  0.4237994E-013  0.5930196E+02  0.7816164E-02  0.1266605E+00
        -11   -1    0    0    0    0  0.00000000000E+00  0.00000000000E+00  0.45593999997E+02  0.45594000000E+02  0.51100000000E-03 0. -1.
         11   -1    0    0    0    0 -0.00000000000E+00 -0.00000000000E+00 -0.45593999997E+02  0.45594000000E+02  0.51100000000E-03 0.  1.
    9900012    2    1    2    0    0  0.24157666530E+02 -0.12765609212E+02 -0.16436723757E+02  0.59301960444E+02  0.50000029939E+02 0.  0.
         12    1    1    2    0    0 -0.24157666530E+02  0.12765609212E+02  0.16436723757E+02  0.31886039556E+02  0.00000000000E+00 0. -1.
         11    1    3    3    0    0 -0.21400787571E+01 -0.36705083344E+01  0.10805857478E+02  0.11611163792E+02  0.51100000000E-03 0. -1.
        -11    1    3    3    0    0  0.28614694208E+02 -0.19024811988E+01 -0.12829271094E+02  0.31416720968E+02  0.51100000000E-03 0.  1.
         12    1    3    3    0    0 -0.23169489213E+01 -0.71926196792E+01 -0.14413310141E+02  0.16274075684E+02  0.00000000000E+00 0. -1.
</event>
<event>
 7    1  0.4237994E-013  0.5930194E+02  0.7816164E-02  0.1266605E+00
        -11   -1    0    0    0    0  0.00000000000E+00  0.00000000000E+00  0.45593999997E+02  0.45594000000E+02  0.51100000000E-03 0.  1.
         11   -1    0    0    0    0 -0.00000000000E+00 -0.00000000000E+00 -0.45593999997E+02  0.45594000000E+02  0.51100000000E-03 0. -1.
    9900012    2    1    2    0    0 -0.22259460987E+02 -0.21191192049E+02  0.84953288506E+01  0.59301939783E+02  0.49999992259E+02 0.  0.
         12    1    1    2    0    0  0.22259460987E+02  0.21191192049E+02 -0.84953288506E+01  0.31886060217E+02  0.00000000000E+00 0. -1.
         11    1    3    3    0    0 -0.11719098277E+02 -0.11437432068E+02 -0.13198874696E+02  0.21032413324E+02  0.51100000000E-03 0. -1.
        -11    1    3    3    0    0 -0.19749223918E+02 -0.96261362834E+01  0.12602569671E+02  0.25328227488E+02  0.51100000000E-03 0.  1.
         12    1    3    3    0    0  0.92088612072E+01 -0.12762369725E+00  0.90916338754E+01  0.12941298971E+02  0.00000000000E+00 0. -1.
</event>
<event>
 7    1  0.4237994E-013  0.5930195E+02  0.7816164E-02  0.1266605E+00
        -11   -1    0    0    0    0  0.00000000000E+00  0.00000000000E+00  0.45593999997E+02  0.45594000000E+02  0.51100000000E-03 0.  1.
         11   -1    0    0    0    0 -0.00000000000E+00 -0.00000000000E+00 -0.45593999997E+02  0.45594000000E+02  0.51100000000E-03 0. -1.
    9900012    2    1    2    0    0 -0.19782698942E+02 -0.25006773942E+02  0.16195968379E+00  0.59301950521E+02  0.50000011842E+02 0.  0.
         12    1    1    2    0    0  0.19782698942E+02  0.25006773942E+02 -0.16195968379E+00  0.31886049479E+02  0.00000000000E+00 0. -1.
         11    1    3    3    0    0 -0.23447378960E+01 -0.13405181443E+01 -0.86352397029E+01  0.90477704261E+01  0.51100000000E-03 0. -1.
        -11    1    3    3    0    0 -0.23595797099E+02 -0.17864405398E+02  0.20362981650E+02  0.35924220839E+02  0.51100000000E-03 0.  1.
        -12    1    3    3    0    0  0.61578360525E+01 -0.58018503998E+01 -0.11565782263E+02  0.14329959256E+02  0.00000000000E+00 0.  1.
</event>
<event>
 7    1  0.4237994E-013  0.5930178E+02  0.7816164E-02  0.1266605E+00
        -11   -1    0    0    0    0  0.00000000000E+00  0.00000000000E+00  0.45593999997E+02  0.45594000000E+02  0.51100000000E-03 0.  1.
         11   -1    0    0    0    0 -0.00000000000E+00 -0.00000000000E+00 -0.45593999997E+02  0.45594000000E+02  0.51100000000E-03 0. -1.
    9900012    2    1    2    0    0 -0.14932394062E+02 -0.24157559535E+02  0.14497133198E+02  0.59301781251E+02  0.49999703134E+02 0.  0.
         12    1    1    2    0    0  0.14932394062E+02  0.24157559535E+02 -0.14497133198E+02  0.31886218749E+02  0.00000000000E+00 0. -1.
         11    1    3    3    0    0 -0.14473280289E+02 -0.31872919885E+02  0.22351478147E+01  0.35076413020E+02  0.51100000000E-03 0.  1.
        -11    1    3    3    0    0  0.56233601823E+01  0.69212119532E+01 -0.16061534561E+01  0.90611855641E+01  0.51100000000E-03 0. -1.
        -12    1    3    3    0    0 -0.60824739546E+01  0.79414839665E+00  0.13868138840E+02  0.15164182667E+02  0.00000000000E+00 0.  1.
</event>
<event>
 7    1  0.4237994E-013  0.5930183E+02  0.7816164E-02  0.1266605E+00
        -11   -1    0    0    0    0  0.00000000000E+00  0.00000000000E+00  0.45593999997E+02  0.45594000000E+02  0.51100000000E-03 0.  1.
         11   -1    0    0    0    0 -0.00000000000E+00 -0.00000000000E+00 -0.45593999997E+02  0.45594000000E+02  0.51100000000E-03 0. -1.
    9900012    2    1    2    0    0  0.16451446666E+02  0.81136032869E+01  0.26081546002E+02  0.59301832191E+02  0.49999796036E+02 0.  0.
         12    1    1    2    0    0 -0.16451446666E+02 -0.81136032869E+01 -0.26081546002E+02  0.31886167809E+02  0.00000000000E+00 0. -1.
         11    1    3    3    0    0  0.13651326788E+01  0.37504330207E+01 -0.90348396338E+01  0.98771282538E+01  0.51100000000E-03 0. -1.
        -11    1    3    3    0    0  0.31955168563E+00 -0.12079311425E+02  0.16951578057E+02  0.20817489682E+02  0.51100000000E-03 0.  1.
        -12    1    3    3    0    0  0.14766762302E+02  0.16442481691E+02  0.18164807579E+02  0.28607214255E+02  0.00000000000E+00 0.  1.
</event>
<event>
 7    1  0.4237994E-013  0.5930192E+02  0.7816164E-02  0.1266605E+00
        -11   -1    0    0    0    0  0.00000000000E+00  0.00000000000E+00  0.45593999997E+02  0.45594000000E+02  0.51100000000E-03 0.  1.
         11   -1    0    0    0    0 -0.00000000000E+00 -0.00000000000E+00 -0.45593999997E+02  0.45594000000E+02  0.51100000000E-03 0. -1.
    9900012    2    1    2    0    0 -0.28223893893E+02 -0.88805186912E+01  0.11885715791E+02  0.59301920928E+02  0.49999957872E+02 0.  0.
         12    1    1    2    0    0  0.28223893893E+02  0.88805186912E+01 -0.11885715791E+02  0.31886079072E+02  0.00000000000E+00 0. -1.
         11    1    3    3    0    0 -0.16243214214E+02 -0.19175414701E+02 -0.11110222675E+02  0.27476819050E+02  0.51100000000E-03 0. -1.
        -11    1    3    3    0    0  0.17559615225E+01  0.57620966357E+01  0.12742303526E+02  0.14094376819E+02  0.51100000000E-03 0.  1.
        -12    1    3    3    0    0 -0.13736641201E+02  0.45327993738E+01  0.10253634940E+02  0.17730725060E+02  0.00000000000E+00 0.  1.
</event>
<event>
 7    1  0.4237994E-013  0.5930198E+02  0.7816164E-02  0.1266605E+00
        -11   -1    0    0    0    0  0.00000000000E+00  0.00000000000E+00  0.45593999997E+02  0.45594000000E+02  0.51100000000E-03 0. -1.
         11   -1    0    0    0    0 -0.00000000000E+00 -0.00000000000E+00 -0.45593999997E+02  0.45594000000E+02  0.51100000000E-03 0.  1.
    9900012    2    1    2    0    0 -0.19777316019E+02 -0.24432348605E+02 -0.53513023189E+01  0.59301979180E+02  0.50000064109E+02 0.  0.
         12    1    1    2    0    0  0.19777316019E+02  0.24432348605E+02  0.53513023189E+01  0.31886020820E+02  0.00000000000E+00 0. -1.
         11    1    3    3    0    0  0.57853666181E+01 -0.19118975760E+02  0.94822206208E+00  0.19997620517E+02  0.51100000000E-03 0. -1.
        -11    1    3    3    0    0 -0.30540704189E+02 -0.25221733214E+01 -0.10306074648E+02  0.32331271944E+02  0.51100000000E-03 0.  1.
        -12    1    3    3    0    0  0.49780215519E+01 -0.27911995232E+01  0.40065502665E+01  0.69730867188E+01  0.00000000000E+00 0.  1.
</event>
<event>
 7    1  0.4237994E-013  0.5930187E+02  0.7816164E-02  0.1266605E+00
        -11   -1    0    0    0    0  0.00000000000E+00  0.00000000000E+00  0.45593999997E+02  0.45594000000E+02  0.51100000000E-03 0.  1.
         11   -1    0    0    0    0 -0.00000000000E+00 -0.00000000000E+00 -0.45593999997E+02  0.45594000000E+02  0.51100000000E-03 0. -1.
    9900012    2    1    2    0    0 -0.23482848785E+02 -0.12828127266E+02  0.17341287614E+02  0.59301869906E+02  0.49999864820E+02 0.  0.
         12    1    1    2    0    0  0.23482848785E+02  0.12828127266E+02 -0.17341287614E+02  0.31886130094E+02  0.00000000000E+00 0. -1.
         11    1    3    3    0    0 -0.78303706786E+01  0.77226150067E+01 -0.10193418231E+02  0.14995308033E+02  0.51100000000E-03 0. -1.
        -11    1    3    3    0    0 -0.20360671844E+02 -0.95598057508E+01  0.20501617793E+02  0.30434572058E+02  0.51100000000E-03 0.  1.
         12    1    3    3    0    0  0.47081937372E+01 -0.10990936522E+02  0.70330880519E+01  0.13871989816E+02  0.00000000000E+00 0. -1.
</event>
<event>
 7    1  0.4237994E-013  0.5930196E+02  0.7816164E-02  0.1266605E+00
        -11   -1    0    0    0    0  0.00000000000E+00  0.00000000000E+00  0.45593999997E+02  0.45594000000E+02  0.51100000000E-03 0. -1.
         11   -1    0    0    0    0 -0.00000000000E+00 -0.00000000000E+00 -0.45593999997E+02  0.45594000000E+02  0.51100000000E-03 0.  1.
    9900012    2    1    2    0    0 -0.27304804312E+02  0.13043297734E+02 -0.10051844547E+02  0.59301960216E+02  0.50000029524E+02 0.  0.
         12    1    1    2    0    0  0.27304804312E+02 -0.13043297734E+02  0.10051844547E+02  0.31886039784E+02  0.00000000000E+00 0. -1.
         11    1    3    3    0    0 -0.94166610284E+00  0.69916674865E+00  0.36224252309E+01  0.38075627383E+01  0.51100000000E-03 0. -1.
        -11    1    3    3    0    0 -0.28946458689E+02  0.11771661703E+02 -0.27373187889E+02  0.41542278528E+02  0.51100000000E-03 0.  1.
        -12    1    3    3    0    0  0.25833204794E+01  0.57246928198E+00  0.13698918111E+02  0.13952118950E+02  0.00000000000E+00 0.  1.
</event>
<event>
 7    1  0.4237994E-013  0.5930193E+02  0.7816164E-02  0.1266605E+00
        -11   -1    0    0    0    0  0.00000000000E+00  0.00000000000E+00  0.45593999997E+02  0.45594000000E+02  0.51100000000E-03 0.  1.
         11   -1    0    0    0    0 -0.00000000000E+00 -0.00000000000E+00 -0.45593999997E+02  0.45594000000E+02  0.51100000000E-03 0. -1.
    9900012    2    1    2    0    0 -0.83016416710E+01 -0.18089588729E+01  0.30733239163E+02  0.59301928181E+02  0.49999971099E+02 0.  0.
         12    1    1    2    0    0  0.83016416710E+01  0.18089588729E+01 -0.30733239163E+02  0.31886071819E+02  0.00000000000E+00 0. -1.
         11    1    3    3    0    0 -0.22398070965E+01 -0.11920664857E+02  0.55240758817E+01  0.13327955622E+02  0.51100000000E-03 0. -1.
        -11    1    3    3    0    0  0.11696938991E+01  0.23160552219E+02  0.12325199158E+02  0.26261947709E+02  0.51100000000E-03 0.  1.
        -12    1    3    3    0    0 -0.72315284736E+01 -0.13048846235E+02  0.12883964123E+02  0.19712024850E+02  0.00000000000E+00 0.  1.
</event>
<event>
 7    1  0.4237994E-013  0.5930195E+02  0.7816164E-02  0.1266605E+00
        -11   -1    0    0    0    0  0.00000000000E+00  0.00000000000E+00  0.45593999997E+02  0.45594000000E+02  0.51100000000E-03 0.  1.
         11   -1    0    0    0    0 -0.00000000000E+00 -0.00000000000E+00 -0.45593999997E+02  0.45594000000E+02  0.51100000000E-03 0. -1.
    9900012    2    1    2    0    0  0.15980433569E+02  0.20223390190E+02  0.18771264066E+02  0.59301950975E+02  0.50000012670E+02 0.  0.
         12    1    1    2    0    0 -0.15980433569E+02 -0.20223390190E+02 -0.18771264066E+02  0.31886049025E+02  0.00000000000E+00 0. -1.
         11    1    3    3    0    0  0.34247024944E+01  0.23661175487E+01 -0.44412130109E+01  0.60869920895E+01  0.51100000000E-03 0. -1.
        -11    1    3    3    0    0 -0.52847464592E+01 -0.12431635406E+01  0.26338606482E+02  0.26892307309E+02  0.51100000000E-03 0.  1.
        -12    1    3    3    0    0  0.17840477534E+02  0.19100436182E+02 -0.31261294054E+01  0.26322651576E+02  0.00000000000E+00 0.  1.
</event>
<event>
 7    1  0.4237994E-013  0.5930193E+02  0.7816164E-02  0.1266605E+00
        -11   -1    0    0    0    0  0.00000000000E+00  0.00000000000E+00  0.45593999997E+02  0.45594000000E+02  0.51100000000E-03 0. -1.
         11   -1    0    0    0    0 -0.00000000000E+00 -0.00000000000E+00 -0.45593999997E+02  0.45594000000E+02  0.51100000000E-03 0.  1.
    9900012    2    1    2    0    0 -0.14430079947E+02  0.34567710010E+01 -0.28223132968E+02  0.59301926119E+02  0.49999967339E+02 0.  0.
         12    1    1    2    0    0  0.14430079947E+02 -0.34567710010E+01  0.28223132968E+02  0.31886073881E+02  0.00000000000E+00 0. -1.
         11    1    3    3    0    0  0.93061253915E+01 -0.79954134384E+01  0.36735904384E+01  0.12807258599E+02  0.51100000000E-03 0. -1.
        -11    1    3    3    0    0 -0.21048725083E+01  0.12006410011E+02 -0.11593580131E+02  0.16822469204E+02  0.51100000000E-03 0.  1.
         12    1    3    3    0    0 -0.21631332830E+02 -0.55422557153E+00 -0.20303143276E+02  0.29672198315E+02  0.00000000000E+00 0. -1.
</event>
<event>
 7    1  0.4237994E-013  0.5930193E+02  0.7816164E-02  0.1266605E+00
        -11   -1    0    0    0    0  0.00000000000E+00  0.00000000000E+00  0.45593999997E+02  0.45594000000E+02  0.51100000000E-03 0.  1.
         11   -1    0    0    0    0 -0.00000000000E+00 -0.00000000000E+00 -0.45593999997E+02  0.45594000000E+02  0.51100000000E-03 0. -1.
    9900012    2    1    2    0    0  0.12942542261E+02 -0.17322376985E+02  0.23433897508E+02  0.59301926284E+02  0.49999967640E+02 0.  0.
         12    1    1    2    0    0 -0.12942542261E+02  0.17322376985E+02 -0.23433897508E+02  0.31886073716E+02  0.00000000000E+00 0. -1.
         11    1    3    3    0    0  0.10204041485E+02 -0.11171489534E+02  0.53033448844E+01  0.16032782299E+02  0.51100000000E-03 0.  1.
        -11    1    3    3    0    0  0.56292573825E+01  0.15639559870E+02  0.11832771240E+02  0.20403402831E+02  0.51100000000E-03 0. -1.
        -12    1    3    3    0    0 -0.28907566055E+01 -0.21790447320E+02  0.62977813843E+01  0.22865741154E+02  0.00000000000E+00 0.  1.
</event>
<event>
 7    1  0.4237994E-013  0.5930196E+02  0.7816164E-02  0.1266605E+00
        -11   -1    0    0    0    0  0.00000000000E+00  0.00000000000E+00  0.45593999997E+02  0.45594000000E+02  0.51100000000E-03 0.  1.
         11   -1    0    0    0    0 -0.00000000000E+00 -0.00000000000E+00 -0.45593999997E+02  0.45594000000E+02  0.51100000000E-03 0. -1.
    9900012    2    1    2    0    0  0.49845633005E+01 -0.17796156868E+02 -0.25984043026E+02  0.59301959754E+02  0.50000028681E+02 0.  0.
         12    1    1    2    0    0 -0.49845633005E+01  0.17796156868E+02  0.25984043026E+02  0.31886040246E+02  0.00000000000E+00 0. -1.
         11    1    3    3    0    0 -0.58568008783E+00  0.88180655993E+01 -0.27157914176E+02  0.28559649940E+02  0.51100000000E-03 0. -1.
        -11    1    3    3    0    0  0.61481801855E+01 -0.24628255693E+02 -0.35066588428E+01  0.25625139113E+02  0.51100000000E-03 0.  1.
        -12    1    3    3    0    0 -0.57793679715E+00 -0.19859667751E+01  0.46805299921E+01  0.51171707007E+01  0.00000000000E+00 0.  1.
</event>
<event>
 7    1  0.4237994E-013  0.5930195E+02  0.7816164E-02  0.1266605E+00
        -11   -1    0    0    0    0  0.00000000000E+00  0.00000000000E+00  0.45593999997E+02  0.45594000000E+02  0.51100000000E-03 0. -1.
         11   -1    0    0    0    0 -0.00000000000E+00 -0.00000000000E+00 -0.45593999997E+02  0.45594000000E+02  0.51100000000E-03 0.  1.
    9900012    2    1    2    0    0  0.19366524686E+02 -0.24719181731E+02 -0.55335334481E+01  0.59301949504E+02  0.50000009987E+02 0.  0.
         12    1    1    2    0    0 -0.19366524686E+02  0.24719181731E+02  0.55335334481E+01  0.31886050496E+02  0.00000000000E+00 0. -1.
         11    1    3    3    0    0  0.89498497690E+01 -0.13815417115E+02  0.97061466859E+01  0.19109548521E+02  0.51100000000E-03 0. -1.
        -11    1    3    3    0    0  0.77522346207E-02  0.12311662560E+01 -0.22570636122E+02  0.22604190887E+02  0.51100000000E-03 0.  1.
        -12    1    3    3    0    0  0.10408922682E+02 -0.12134930872E+02  0.73309559877E+01  0.17588210095E+02  0.00000000000E+00 0.  1.
</event>
<event>
 7    1  0.4237994E-013  0.5930189E+02  0.7816164E-02  0.1266605E+00
        -11   -1    0    0    0    0  0.00000000000E+00  0.00000000000E+00  0.45593999997E+02  0.45594000000E+02  0.51100000000E-03 0. -1.
         11   -1    0    0    0    0 -0.00000000000E+00 -0.00000000000E+00 -0.45593999997E+02  0.45594000000E+02  0.51100000000E-03 0.  1.
    9900012    2    1    2    0    0  0.14855437880E+02  0.24940794124E+02 -0.13190775308E+02  0.59301893318E+02  0.49999907517E+02 0.  0.
         12    1    1    2    0    0 -0.14855437880E+02 -0.24940794124E+02  0.13190775308E+02  0.31886106682E+02  0.00000000000E+00 0. -1.
         11    1    3    3    0    0  0.15470360228E+02  0.23604731599E+00  0.74827691334E+01  0.17186611012E+02  0.51100000000E-03 0. -1.
        -11    1    3    3    0    0 -0.25503424266E+01  0.25155348872E+02 -0.43312262592E+01  0.25652589431E+02  0.51100000000E-03 0.  1.
        -12    1    3    3    0    0  0.19354200788E+01 -0.45060206400E+00 -0.16342318183E+02  0.16462692875E+02  0.00000000000E+00 0.  1.
</event>
<event>
 7    1  0.4237994E-013  0.5930200E+02  0.7816164E-02  0.1266605E+00
        -11   -1    0    0    0    0  0.00000000000E+00  0.00000000000E+00  0.45593999997E+02  0.45594000000E+02  0.51100000000E-03 0. -1.
         11   -1    0    0    0    0 -0.00000000000E+00 -0.00000000000E+00 -0.45593999997E+02  0.45594000000E+02  0.51100000000E-03 0.  1.
    9900012    2    1    2    0    0 -0.19346630119E+02  0.16467717948E+02 -0.19267570188E+02  0.59301998489E+02  0.50000099325E+02 0.  0.
         12    1    1    2    0    0  0.19346630119E+02 -0.16467717948E+02  0.19267570188E+02  0.31886001511E+02  0.00000000000E+00 0. -1.
         11    1    3    3    0    0 -0.51151214434E+01  0.13928346449E+02  0.88696466797E+01  0.17286813896E+02  0.51100000000E-03 0. -1.
        -11    1    3    3    0    0 -0.96064276650E+01  0.89075675255E+01 -0.30988616692E+02  0.33644057075E+02  0.51100000000E-03 0.  1.
         12    1    3    3    0    0 -0.46250810103E+01 -0.63681960264E+01  0.28513998239E+01  0.83711275189E+01  0.00000000000E+00 0. -1.
</event>
<event>
 7    1  0.4237994E-013  0.5930193E+02  0.7816164E-02  0.1266605E+00
        -11   -1    0    0    0    0  0.00000000000E+00  0.00000000000E+00  0.45593999997E+02  0.45594000000E+02  0.51100000000E-03 0. -1.
         11   -1    0    0    0    0 -0.00000000000E+00 -0.00000000000E+00 -0.45593999997E+02  0.45594000000E+02  0.51100000000E-03 0.  1.
    9900012    2    1    2    0    0  0.88018610082E+01 -0.26662353588E+02 -0.15111831027E+02  0.59301932618E+02  0.49999979192E+02 0.  0.
         12    1    1    2    0    0 -0.88018610082E+01  0.26662353588E+02  0.15111831027E+02  0.31886067382E+02  0.00000000000E+00 0. -1.
         11    1    3    3    0    0  0.24037694838E+02 -0.66609186106E+01 -0.25836390022E+01  0.25076957563E+02  0.51100000000E-03 0. -1.
        -11    1    3    3    0    0 -0.81073142358E+01 -0.17650685764E+02  0.22721089744E+00  0.19424903529E+02  0.51100000000E-03 0.  1.
         12    1    3    3    0    0 -0.71285195939E+01 -0.23507492134E+01 -0.12755402922E+02  0.14800071526E+02  0.00000000000E+00 0. -1.
</event>
<event>
 7    1  0.4237994E-013  0.5930194E+02  0.7816164E-02  0.1266605E+00
        -11   -1    0    0    0    0  0.00000000000E+00  0.00000000000E+00  0.45593999997E+02  0.45594000000E+02  0.51100000000E-03 0.  1.
         11   -1    0    0    0    0 -0.00000000000E+00 -0.00000000000E+00 -0.45593999997E+02  0.45594000000E+02  0.51100000000E-03 0. -1.
    9900012    2    1    2    0    0  0.25851598629E+02 -0.18536817691E+02  0.21913438709E+01  0.59301941138E+02  0.49999994730E+02 0.  0.
         12    1    1    2    0    0 -0.25851598629E+02  0.18536817691E+02 -0.21913438709E+01  0.31886058862E+02  0.00000000000E+00 0. -1.
         11    1    3    3    0    0 -0.59569925994E+01  0.23832111086E+01  0.20218132736E+01  0.67270487729E+01  0.51100000000E-03 0. -1.
        -11    1    3    3    0    0  0.22723207781E+02 -0.25156669318E+02  0.12987352025E+02  0.36302527404E+02  0.51100000000E-03 0.  1.
        -12    1    3    3    0    0  0.90853834480E+01  0.42366405186E+01 -0.12817821428E+02  0.16272364961E+02  0.00000000000E+00 0.  1.
</event>
<event>
 7    1  0.4237994E-013  0.5930187E+02  0.7816164E-02  0.1266605E+00
        -11   -1    0    0    0    0  0.00000000000E+00  0.00000000000E+00  0.45593999997E+02  0.45594000000E+02  0.51100000000E-03 0.  1.
         11   -1    0    0    0    0 -0.00000000000E+00 -0.00000000000E+00 -0.45593999997E+02  0.45594000000E+02  0.51100000000E-03 0. -1.
    9900012    2    1    2    0    0  0.29897318515E+02 -0.98651445146E+01 -0.50551367691E+01  0.59301872320E+02  0.49999869222E+02 0.  0.
         12    1    1    2    0    0 -0.29897318515E+02  0.98651445146E+01  0.50551367691E+01  0.31886127680E+02  0.00000000000E+00 0. -1.
         11    1    3    3    0    0  0.22535409525E+02  0.54560704832E+01 -0.13058011211E+02  0.26610619020E+02  0.51100000000E-03 0. -1.
        -11    1    3    3    0    0  0.78780379382E+00 -0.41983507816E+01  0.16620485102E+02  0.17160632546E+02  0.51100000000E-03 0.  1.
         12    1    3    3    0    0  0.65741051959E+01 -0.11122864216E+02 -0.86176106603E+01  0.15530620754E+02  0.00000000000E+00 0. -1.
</event>
<event>
 7    1  0.4237994E-013  0.5930192E+02  0.7816164E-02  0.1266605E+00
        -11   -1    0    0    0    0  0.00000000000E+00  0.00000000000E+00  0.45593999997E+02  0.45594000000E+02  0.51100000000E-03 0. -1.
         11   -1    0    0    0    0 -0.00000000000E+00 -0.00000000000E+00 -0.45593999997E+02  0.45594000000E+02  0.51100000000E-03 0.  1.
    9900012    2    1    2    0    0  0.18501596561E+02 -0.22012740981E+02 -0.13778690596E+02  0.59301919097E+02  0.49999954532E+02 0.  0.
         12    1    1    2    0    0 -0.18501596561E+02  0.22012740981E+02  0.13778690596E+02  0.31886080903E+02  0.00000000000E+00 0. -1.
         11    1    3    3    0    0 -0.16365841140E+01  0.79879964289E+01 -0.11069093276E+02  0.13748138810E+02  0.51100000000E-03 0. -1.
        -11    1    3    3    0    0  0.16270287975E+02 -0.16036227068E+02 -0.14340644183E+02  0.26972892414E+02  0.51100000000E-03 0.  1.
         12    1    3    3    0    0  0.38678927002E+01 -0.13964510343E+02  0.11631046862E+02  0.18580887873E+02  0.00000000000E+00 0. -1.
</event>
<event>
 7    1  0.4237994E-013  0.5930194E+02  0.7816164E-02  0.1266605E+00
        -11   -1    0    0    0    0  0.00000000000E+00  0.00000000000E+00  0.45593999997E+02  0.45594000000E+02  0.51100000000E-03 0.  1.
         11   -1    0    0    0    0 -0.00000000000E+00 -0.00000000000E+00 -0.45593999997E+02  0.45594000000E+02  0.51100000000E-03 0. -1.
    9900012    2    1    2    0    0 -0.11354111770E+02  0.62046275301E+01  0.29142881511E+02  0.59301940355E+02  0.49999993302E+02 0.  0.
         12    1    1    2    0    0  0.11354111770E+02 -0.62046275301E+01 -0.29142881511E+02  0.31886059645E+02  0.00000000000E+00 0. -1.
         11    1    3    3    0    0 -0.19289885792E+02  0.81264519027E+01  0.14261607642E+02  0.25328489241E+02  0.51100000000E-03 0. -1.
        -11    1    3    3    0    0  0.13939812459E+02 -0.11964317951E+02  0.61428697542E+01  0.19370031608E+02  0.51100000000E-03 0.  1.
        -12    1    3    3    0    0 -0.60040384367E+01  0.10042493578E+02  0.87384041148E+01  0.14603419507E+02  0.00000000000E+00 0.  1.
</event>
<event>
 7    1  0.4237994E-013  0.5930195E+02  0.7816164E-02  0.1266605E+00
        -11   -1    0    0    0    0  0.00000000000E+00  0.00000000000E+00  0.45593999997E+02  0.45594000000E+02  0.51100000000E-03 0. -1.
         11   -1    0    0    0    0 -0.00000000000E+00 -0.00000000000E+00 -0.45593999997E+02  0.45594000000E+02  0.51100000000E-03 0.  1.
    9900012    2    1    2    0    0 -0.26637486365E+02 -0.14744469670E+02 -0.94744611150E+01  0.59301945381E+02  0.50000002469E+02 0.  0.
         12    1    1    2    0    0  0.26637486365E+02  0.14744469670E+02  0.94744611150E+01  0.31886054619E+02  0.00000000000E+00 0. -1.
         11    1    3    3    0    0  0.50423464624E+01  0.63571740975E+01  0.35683600043E+01  0.88640912526E+01  0.51100000000E-03 0. -1.
        -11    1    3    3    0    0 -0.14124053883E+02 -0.26775491986E+02 -0.81411125189E+01  0.31347943832E+02  0.51100000000E-03 0.  1.
        -12    1    3    3    0    0 -0.17555778944E+02  0.56738482179E+01 -0.49017086003E+01  0.19089910297E+02  0.00000000000E+00 0.  1.
</event>
<event>
 7    1  0.4237994E-013  0.5930194E+02  0.7816164E-02  0.1266605E+00
        -11   -1    0    0    0    0  0.00000000000E+00  0.00000000000E+00  0.45593999997E+02  0.45594000000E+02  0.51100000000E-03 0.  1.
         11   -1    0    0    0    0 -0.00000000000E+00 -0.00000000000E+00 -0.45593999997E+02  0.45594000000E+02  0.51100000000E-03 0. -1.
    9900012    2    1    2    0    0 -0.12417755046E+02  0.23593081806E+02  0.17489620156E+02  0.59301937799E+02  0.49999988640E+02 0.  0.
         12    1    1    2    0    0  0.12417755046E+02 -0.23593081806E+02 -0.17489620156E+02  0.31886062201E+02  0.00000000000E+00 0. -1.
         11    1    3    3    0    0 -0.11712711070E+02 -0.81139824822E+01  0.19397300422E+02  0.24068227526E+02  0.51100000000E-03 0. -1.
        -11    1    3    3    0    0 -0.45282157317E+01  0.13689632525E+02  0.54295332105E+01  0.15407485439E+02  0.51100000000E-03 0.  1.
         12    1    3    3    0    0  0.38231717552E+01  0.18017431762E+02 -0.73372134762E+01  0.19826224834E+02  0.00000000000E+00 0. -1.
</event>
<event>
 7    1  0.4237994E-013  0.5930194E+02  0.7816164E-02  0.1266605E+00
        -11   -1    0    0    0    0  0.00000000000E+00  0.00000000000E+00  0.45593999997E+02  0.45594000000E+02  0.51100000000E-03 0.  1.
         11   -1    0    0    0    0 -0.00000000000E+00 -0.00000000000E+00 -0.45593999997E+02  0.45594000000E+02  0.51100000000E-03 0. -1.
    9900012    2    1    2    0    0  0.81657780498E+01  0.19197377632E+01  0.30762894987E+02  0.59301936708E+02  0.49999986651E+02 0.  0.
         12    1    1    2    0    0 -0.81657780498E+01 -0.19197377632E+01 -0.30762894987E+02  0.31886063292E+02  0.00000000000E+00 0. -1.
         11    1    3    3    0    0 -0.15842454527E+02  0.33460355273E+01  0.12084131194E+02  0.20204097262E+02  0.51100000000E-03 0. -1.
        -11    1    3    3    0    0  0.24157833081E+02 -0.74353829766E+01  0.74330456459E+01  0.26346460617E+02  0.51100000000E-03 0.  1.
        -12    1    3    3    0    0 -0.14960050410E+00  0.60090852124E+01  0.11245718148E+02  0.12751378830E+02  0.00000000000E+00 0.  1.
</event>
<event>
 7    1  0.4237994E-013  0.5930185E+02  0.7816164E-02  0.1266605E+00
        -11   -1    0    0    0    0  0.00000000000E+00  0.00000000000E+00  0.45593999997E+02  0.45594000000E+02  0.51100000000E-03 0. -1.
         11   -1    0    0    0    0 -0.00000000000E+00 -0.00000000000E+00 -0.45593999997E+02  0.45594000000E+02  0.51100000000E-03 0.  1.
    9900012    2    1    2    0    0 -0.80819226064E+01  0.17885410788E+02 -0.25130078642E+02  0.59301854973E+02  0.49999837586E+02 0.  0.
         12    1    1    2    0    0  0.80819226064E+01 -0.17885410788E+02  0.25130078642E+02  0.31886145027E+02  0.00000000000E+00 0. -1.
         11    1    3    3    0    0 -0.50880266593E+01 -0.10584015773E+02  0.61642363141E+01  0.13263001725E+02  0.51100000000E-03 0. -1.
        -11    1    3    3    0    0 -0.86505343029E+01  0.24935687925E+02 -0.20800282126E+02  0.33604642727E+02  0.51100000000E-03 0.  1.
         12    1    3    3    0    0  0.56566383558E+01  0.35337386362E+01 -0.10494032831E+02  0.12434210521E+02  0.00000000000E+00 0. -1.
</event>
<event>
 7    1  0.4237994E-013  0.5930197E+02  0.7816164E-02  0.1266605E+00
        -11   -1    0    0    0    0  0.00000000000E+00  0.00000000000E+00  0.45593999997E+02  0.45594000000E+02  0.51100000000E-03 0.  1.
         11   -1    0    0    0    0 -0.00000000000E+00 -0.00000000000E+00 -0.45593999997E+02  0.45594000000E+02  0.51100000000E-03 0. -1.
    9900012    2    1    2    0    0  0.22524219629E+02 -0.70581756086E+01  0.21437371591E+02  0.59301965227E+02  0.50000038662E+02 0.  0.
         12    1    1    2    0    0 -0.22524219629E+02  0.70581756086E+01 -0.21437371591E+02  0.31886034773E+02  0.00000000000E+00 0. -1.
         11    1    3    3    0    0  0.16292873702E+02 -0.11916573658E+02 -0.67503816522E+01  0.21284504079E+02  0.51100000000E-03 0. -1.
        -11    1    3    3    0    0  0.24877877768E+01  0.13338827099E+02  0.78726570839E+01  0.15687323743E+02  0.51100000000E-03 0.  1.
         12    1    3    3    0    0  0.37435581510E+01 -0.84804290500E+01  0.20315096160E+02  0.22330137404E+02  0.00000000000E+00 0. -1.
</event>
<event>
 7    1  0.4237994E-013  0.5930193E+02  0.7816164E-02  0.1266605E+00
        -11   -1    0    0    0    0  0.00000000000E+00  0.00000000000E+00  0.45593999997E+02  0.45594000000E+02  0.51100000000E-03 0. -1.
         11   -1    0    0    0    0 -0.00000000000E+00 -0.00000000000E+00 -0.45593999997E+02  0.45594000000E+02  0.51100000000E-03 0.  1.
    9900012    2    1    2    0    0 -0.31882025486E+02 -0.25373605976E+00 -0.44023283328E+00  0.59301925672E+02  0.49999966523E+02 0.  0.
         12    1    1    2    0    0  0.31882025486E+02  0.25373605976E+00  0.44023283328E+00  0.31886074328E+02  0.00000000000E+00 0. -1.
         11    1    3    3    0    0 -0.26161958030E+01 -0.12833588010E+02 -0.69104973756E+01  0.14808795897E+02  0.51100000000E-03 0. -1.
        -11    1    3    3    0    0 -0.57215192092E+01  0.18765270476E+02  0.17457915022E+01  0.19695658058E+02  0.51100000000E-03 0.  1.
         12    1    3    3    0    0 -0.23544310474E+02 -0.61854185260E+01  0.47244730402E+01  0.24797471717E+02  0.00000000000E+00 0. -1.
</event>
<event>
 7    1  0.4237994E-013  0.5930196E+02  0.7816164E-02  0.1266605E+00
        -11   -1    0    0    0    0  0.00000000000E+00  0.00000000000E+00  0.45593999997E+02  0.45594000000E+02  0.51100000000E-03 0.  1.
         11   -1    0    0    0    0 -0.00000000000E+00 -0.00000000000E+00 -0.45593999997E+02  0.45594000000E+02  0.51100000000E-03 0. -1.
    9900012    2    1    2    0    0 -0.84072360677E+01  0.81920474920E+01  0.29646725197E+02  0.59301959554E+02  0.50000028316E+02 0.  0.
         12    1    1    2    0    0  0.84072360677E+01 -0.81920474920E+01 -0.29646725197E+02  0.31886040446E+02  0.00000000000E+00 0. -1.
         11    1    3    3    0    0 -0.64139000216E+01  0.24831777445E+02  0.20514859334E+02  0.32842270602E+02  0.51100000000E-03 0. -1.
        -11    1    3    3    0    0  0.62515228943E+01 -0.14239027517E+02  0.87952548579E+01  0.17865831954E+02  0.51100000000E-03 0.  1.
         12    1    3    3    0    0 -0.82448589403E+01 -0.24007024353E+01  0.33661100578E+00  0.85938569978E+01  0.00000000000E+00 0. -1.
</event>
<event>
 7    1  0.4237994E-013  0.5930194E+02  0.7816164E-02  0.1266605E+00
        -11   -1    0    0    0    0  0.00000000000E+00  0.00000000000E+00  0.45593999997E+02  0.45594000000E+02  0.51100000000E-03 0. -1.
         11   -1    0    0    0    0 -0.00000000000E+00 -0.00000000000E+00 -0.45593999997E+02  0.45594000000E+02  0.51100000000E-03 0.  1.
    9900012    2    1    2    0    0 -0.81852806263E+01  0.30527868000E+00 -0.30816043284E+02  0.59301944463E+02  0.50000000794E+02 0.  0.
         12    1    1    2    0    0  0.81852806263E+01 -0.30527868000E+00  0.30816043284E+02  0.31886055537E+02  0.00000000000E+00 0. -1.
         11    1    3    3    0    0  0.61822588033E+01  0.35412722945E+01  0.57409276449E+01  0.91498187883E+01  0.51100000000E-03 0. -1.
        -11    1    3    3    0    0 -0.30441010670E+01 -0.59266054753E+01 -0.37859008834E+02  0.38440808445E+02  0.51100000000E-03 0.  1.
        -12    1    3    3    0    0 -0.11323438363E+02  0.26906118608E+01  0.13020379048E+01  0.11711317229E+02  0.00000000000E+00 0.  1.
</event>
<event>
 7    1  0.4237994E-013  0.5930198E+02  0.7816164E-02  0.1266605E+00
        -11   -1    0    0    0    0  0.00000000000E+00  0.00000000000E+00  0.45593999997E+02  0.45594000000E+02  0.51100000000E-03 0.  1.
         11   -1    0    0    0    0 -0.00000000000E+00 -0.00000000000E+00 -0.45593999997E+02  0.45594000000E+02  0.51100000000E-03 0. -1.
    9900012    2    1    2    0    0 -0.16307329706E+02  0.12701781203E+01  0.27371074225E+02  0.59301983334E+02  0.50000071685E+02 0.  0.
         12    1    1    2    0    0  0.16307329706E+02 -0.12701781203E+01 -0.27371074225E+02  0.31886016666E+02  0.00000000000E+00 0. -1.
         11    1    3    3    0    0 -0.21829602417E+02 -0.61427842033E+01 -0.18815143253E+01  0.22755338623E+02  0.51100000000E-03 0. -1.
        -11    1    3    3    0    0 -0.32861813944E+01  0.40731455041E+01  0.26089780806E+02  0.26609512683E+02  0.51100000000E-03 0.  1.
         12    1    3    3    0    0  0.88084541053E+01  0.33398168195E+01  0.31628077447E+01  0.99371320280E+01  0.00000000000E+00 0. -1.
</event>
<event>
 7    1  0.4237994E-013  0.5930190E+02  0.7816164E-02  0.1266605E+00
        -11   -1    0    0    0    0  0.00000000000E+00  0.00000000000E+00  0.45593999997E+02  0.45594000000E+02  0.51100000000E-03 0.  1.
         11   -1    0    0    0    0 -0.00000000000E+00 -0.00000000000E+00 -0.45593999997E+02  0.45594000000E+02  0.51100000000E-03 0. -1.
    9900012    2    1    2    0    0  0.16282994852E+02 -0.27390309826E+02 -0.11654887983E+01  0.59301900241E+02  0.49999920144E+02 0.  0.
         12    1    1    2    0    0 -0.16282994852E+02  0.27390309826E+02  0.11654887983E+01  0.31886099759E+02  0.00000000000E+00 0. -1.
         11    1    3    3    0    0  0.11044518352E+02 -0.22836666952E+02 -0.16933219550E+02  0.30499650288E+02  0.51100000000E-03 0. -1.
        -11    1    3    3    0    0  0.90730731386E+00 -0.11476201951E+02  0.17013140037E+02  0.20541989971E+02  0.51100000000E-03 0.  1.
         12    1    3    3    0    0  0.43311691866E+01  0.69225590766E+01 -0.12454092853E+01  0.82602599825E+01  0.00000000000E+00 0. -1.
</event>
<event>
 7    1  0.4237994E-013  0.5930194E+02  0.7816164E-02  0.1266605E+00
        -11   -1    0    0    0    0  0.00000000000E+00  0.00000000000E+00  0.45593999997E+02  0.45594000000E+02  0.51100000000E-03 0.  1.
         11   -1    0    0    0    0 -0.00000000000E+00 -0.00000000000E+00 -0.45593999997E+02  0.45594000000E+02  0.51100000000E-03 0. -1.
    9900012    2    1    2    0    0  0.24032583811E+02  0.20920807992E+02 -0.12147066425E+01  0.59301940289E+02  0.49999993182E+02 0.  0.
         12    1    1    2    0    0 -0.24032583811E+02 -0.20920807992E+02  0.12147066425E+01  0.31886059711E+02  0.00000000000E+00 0. -1.
         11    1    3    3    0    0  0.63015949094E+01 -0.82656568835E+01  0.13383169484E+02  0.16945217845E+02  0.51100000000E-03 0. -1.
        -11    1    3    3    0    0  0.11403671667E+02  0.28520705230E+02 -0.54219558546E+01  0.31190895465E+02  0.51100000000E-03 0.  1.
         12    1    3    3    0    0  0.63273172338E+01  0.66575964531E+00 -0.91759202723E+01  0.11165826979E+02  0.00000000000E+00 0. -1.
</event>
<event>
 7    1  0.4237994E-013  0.5930195E+02  0.7816164E-02  0.1266605E+00
        -11   -1    0    0    0    0  0.00000000000E+00  0.00000000000E+00  0.45593999997E+02  0.45594000000E+02  0.51100000000E-03 0. -1.
         11   -1    0    0    0    0 -0.00000000000E+00 -0.00000000000E+00 -0.45593999997E+02  0.45594000000E+02  0.51100000000E-03 0.  1.
    9900012    2    1    2    0    0 -0.28671362480E+02 -0.23922030628E+01 -0.13745924858E+02  0.59301951136E+02  0.50000012964E+02 0.  0.
         12    1    1    2    0    0  0.28671362480E+02  0.23922030628E+01  0.13745924858E+02  0.31886048864E+02  0.00000000000E+00 0. -1.
         11    1    3    3    0    0 -0.48905806669E+00  0.28878478489E+01 -0.38926690490E+01  0.48715208690E+01  0.51100000000E-03 0. -1.
        -11    1    3    3    0    0 -0.36489191416E+02 -0.16088878067E+02 -0.79943437715E+01  0.40672135674E+02  0.51100000000E-03 0.  1.
        -12    1    3    3    0    0  0.83068870024E+01  0.10808827156E+02 -0.18589120375E+01  0.13758294593E+02  0.00000000000E+00 0.  1.
</event>
<event>
 7    1  0.4237994E-013  0.5930196E+02  0.7816164E-02  0.1266605E+00
        -11   -1    0    0    0    0  0.00000000000E+00  0.00000000000E+00  0.45593999997E+02  0.45594000000E+02  0.51100000000E-03 0.  1.
         11   -1    0    0    0    0 -0.00000000000E+00 -0.00000000000E+00 -0.45593999997E+02  0.45594000000E+02  0.51100000000E-03 0. -1.
    9900012    2    1    2    0    0 -0.19742907896E+02 -0.21414846129E+02  0.12974650461E+02  0.59301959143E+02  0.50000027567E+02 0.  0.
         12    1    1    2    0    0  0.19742907896E+02  0.21414846129E+02 -0.12974650461E+02  0.31886040857E+02  0.00000000000E+00 0. -1.
         11    1    3    3    0    0 -0.14923270812E+01  0.83525243721E+01 -0.10448047949E+02  0.13459324266E+02  0.51100000000E-03 0. -1.
        -11    1    3    3    0    0 -0.58603736152E+01 -0.57753176635E+00  0.95736053959E+01  0.11239726082E+02  0.51100000000E-03 0.  1.
         12    1    3    3    0    0 -0.12390207200E+02 -0.29189838735E+02  0.13849093014E+02  0.34602908796E+02  0.00000000000E+00 0. -1.
</event>
<event>
 7    1  0.4237994E-013  0.5930196E+02  0.7816164E-02  0.1266605E+00
        -11   -1    0    0    0    0  0.00000000000E+00  0.00000000000E+00  0.45593999997E+02  0.45594000000E+02  0.51100000000E-03 0. -1.
         11   -1    0    0    0    0 -0.00000000000E+00 -0.00000000000E+00 -0.45593999997E+02  0.45594000000E+02  0.51100000000E-03 0.  1.
    9900012    2    1    2    0    0 -0.27948272546E+02 -0.14092612891E+02  0.60837152441E+01  0.59301964380E+02  0.50000037118E+02 0.  0.
         12    1    1    2    0    0  0.27948272546E+02  0.14092612891E+02 -0.60837152441E+01  0.31886035620E+02  0.00000000000E+00 0. -1.
         11    1    3    3    0    0  0.14783000882E+01 -0.17976924268E+02  0.65408283498E+01  0.19186912546E+02  0.51100000000E-03 0. -1.
        -11    1    3    3    0    0 -0.10235082829E+02  0.14811255742E+02  0.49397916201E+00  0.18010392357E+02  0.51100000000E-03 0.  1.
        -12    1    3    3    0    0 -0.19191489805E+02 -0.10926944366E+02 -0.95109226771E+00  0.22104659477E+02  0.00000000000E+00 0.  1.
</event>
<event>
 7    1  0.4237994E-013  0.5930194E+02  0.7816164E-02  0.1266605E+00
        -11   -1    0    0    0    0  0.00000000000E+00  0.00000000000E+00  0.45593999997E+02  0.45594000000E+02  0.51100000000E-03 0.  1.
         11   -1    0    0    0    0 -0.00000000000E+00 -0.00000000000E+00 -0.45593999997E+02  0.45594000000E+02  0.51100000000E-03 0. -1.
    9900012    2    1    2    0    0  0.19616107171E+01 -0.31436146881E+02 -0.49640573608E+01  0.59301935445E+02  0.49999984347E+02 0.  0.
         12    1    1    2    0    0 -0.19616107171E+01  0.31436146881E+02  0.49640573608E+01  0.31886064555E+02  0.00000000000E+00 0. -1.
         11    1    3    3    0    0 -0.10430651041E+02 -0.11527803653E+02  0.17154933728E+01  0.15640705098E+02  0.51100000000E-03 0. -1.
        -11    1    3    3    0    0  0.14644380305E+02 -0.28496156799E+02  0.80521702226E+00  0.32048981287E+02  0.51100000000E-03 0.  1.
        -12    1    3    3    0    0 -0.22521185464E+01  0.85878135701E+01 -0.74847677558E+01  0.11612249060E+02  0.00000000000E+00 0.  1.
</event>
<event>
 7    1  0.4237994E-013  0.5930198E+02  0.7816164E-02  0.1266605E+00
        -11   -1    0    0    0    0  0.00000000000E+00  0.00000000000E+00  0.45593999997E+02  0.45594000000E+02  0.51100000000E-03 0.  1.
         11   -1    0    0    0    0 -0.00000000000E+00 -0.00000000000E+00 -0.45593999997E+02  0.45594000000E+02  0.51100000000E-03 0. -1.
    9900012    2    1    2    0    0  0.16301555521E+02 -0.31536874724E+01  0.27221896552E+02  0.59301982548E+02  0.50000070251E+02 0.  0.
         12    1    1    2    0    0 -0.16301555521E+02  0.31536874724E+01 -0.27221896552E+02  0.31886017452E+02  0.00000000000E+00 0. -1.
         11    1    3    3    0    0 -0.60161068841E+00  0.35078392653E+00 -0.58737181519E+00  0.91103825052E+00  0.51100000000E-03 0. -1.
        -11    1    3    3    0    0 -0.14528099529E+02 -0.54611410327E+01  0.21097600993E+02  0.26191573172E+02  0.51100000000E-03 0.  1.
        -12    1    3    3    0    0  0.31431265738E+02  0.19566696338E+01  0.67116673745E+01  0.32199371126E+02  0.00000000000E+00 0.  1.
</event>
<event>
 7    1  0.4237994E-013  0.5930186E+02  0.7816164E-02  0.1266605E+00
        -11   -1    0    0    0    0  0.00000000000E+00  0.00000000000E+00  0.45593999997E+02  0.45594000000E+02  0.51100000000E-03 0. -1.
         11   -1    0    0    0    0 -0.00000000000E+00 -0.00000000000E+00 -0.45593999997E+02  0.45594000000E+02  0.51100000000E-03 0.  1.
    9900012    2    1    2    0    0 -0.24514676750E+02 -0.17954002874E+02 -0.96648901325E+01  0.59301863567E+02  0.49999853258E+02 0.  0.
         12    1    1    2    0    0  0.24514676750E+02  0.17954002874E+02  0.96648901325E+01  0.31886136433E+02  0.00000000000E+00 0. -1.
         11    1    3    3    0    0 -0.17556653333E+02 -0.23334568414E+02  0.34574567693E+01  0.29405648555E+02  0.51100000000E-03 0.  1.
        -11    1    3    3    0    0 -0.36725010869E+01  0.12373585200E+02  0.18585685150E+01  0.13040212886E+02  0.51100000000E-03 0. -1.
        -12    1    3    3    0    0 -0.32855223298E+01 -0.69930196601E+01 -0.14980915417E+02  0.16856002126E+02  0.00000000000E+00 0.  1.
</event>
<event>
 7    1  0.4237994E-013  0.5930197E+02  0.7816164E-02  0.1266605E+00
        -11   -1    0    0    0    0  0.00000000000E+00  0.00000000000E+00  0.45593999997E+02  0.45594000000E+02  0.51100000000E-03 0. -1.
         11   -1    0    0    0    0 -0.00000000000E+00 -0.00000000000E+00 -0.45593999997E+02  0.45594000000E+02  0.51100000000E-03 0.  1.
    9900012    2    1    2    0    0  0.25889128284E+02 -0.16448998351E+02  0.87122000919E+01  0.59301969509E+02  0.50000046471E+02 0.  0.
         12    1    1    2    0    0 -0.25889128284E+02  0.16448998351E+02 -0.87122000919E+01  0.31886030491E+02  0.00000000000E+00 0. -1.
         11    1    3    3    0    0 -0.32828324424E+01 -0.87131808457E+01 -0.42343916486E+00  0.93207194080E+01  0.51100000000E-03 0. -1.
        -11    1    3    3    0    0  0.27918572759E+02 -0.71390577743E+01  0.22490424838E+02  0.36554508073E+02  0.51100000000E-03 0.  1.
        -12    1    3    3    0    0  0.12533879674E+01 -0.59675973067E+00 -0.13354785581E+02  0.13426742028E+02  0.00000000000E+00 0.  1.
</event>
<event>
 7    1  0.4237994E-013  0.5930193E+02  0.7816164E-02  0.1266605E+00
        -11   -1    0    0    0    0  0.00000000000E+00  0.00000000000E+00  0.45593999997E+02  0.45594000000E+02  0.51100000000E-03 0.  1.
         11   -1    0    0    0    0 -0.00000000000E+00 -0.00000000000E+00 -0.45593999997E+02  0.45594000000E+02  0.51100000000E-03 0. -1.
    9900012    2    1    2    0    0 -0.10674299755E+02  0.23052460177E+02  0.19270834056E+02  0.59301927167E+02  0.49999969250E+02 0.  0.
         12    1    1    2    0    0  0.10674299755E+02 -0.23052460177E+02 -0.19270834056E+02  0.31886072833E+02  0.00000000000E+00 0. -1.
         11    1    3    3    0    0 -0.90908972377E+01 -0.49163363694E+01  0.52894297723E+01  0.11610032018E+02  0.51100000000E-03 0. -1.
        -11    1    3    3    0    0  0.42966603790E+00  0.22150264907E+02  0.26017741752E+02  0.34172236311E+02  0.51100000000E-03 0.  1.
        -12    1    3    3    0    0 -0.20130685551E+01  0.58185316400E+01 -0.12036337468E+02  0.13519658838E+02  0.00000000000E+00 0.  1.
</event>
<event>
 7    1  0.4237994E-013  0.5930195E+02  0.7816164E-02  0.1266605E+00
        -11   -1    0    0    0    0  0.00000000000E+00  0.00000000000E+00  0.45593999997E+02  0.45594000000E+02  0.51100000000E-03 0.  1.
         11   -1    0    0    0    0 -0.00000000000E+00 -0.00000000000E+00 -0.45593999997E+02  0.45594000000E+02  0.51100000000E-03 0. -1.
    9900012    2    1    2    0    0  0.37101940162E+01 -0.14355354947E+02  0.28229029950E+02  0.59301954663E+02  0.50000019397E+02 0.  0.
         12    1    1    2    0    0 -0.37101940162E+01  0.14355354947E+02 -0.28229029950E+02  0.31886045337E+02  0.00000000000E+00 0. -1.
         11    1    3    3    0    0  0.16767681020E+02 -0.17545593883E+02  0.32810534657E+01  0.24490167488E+02  0.51100000000E-03 0. -1.
        -11    1    3    3    0    0 -0.36993122132E+01  0.11197240525E+02  0.10150373361E+02  0.15559344005E+02  0.51100000000E-03 0.  1.
        -12    1    3    3    0    0 -0.93581747901E+01 -0.80070015882E+01  0.14797603123E+02  0.19252443170E+02  0.00000000000E+00 0.  1.
</event>
<event>
 7    1  0.4237994E-013  0.5930194E+02  0.7816164E-02  0.1266605E+00
        -11   -1    0    0    0    0  0.00000000000E+00  0.00000000000E+00  0.45593999997E+02  0.45594000000E+02  0.51100000000E-03 0.  1.
         11   -1    0    0    0    0 -0.00000000000E+00 -0.00000000000E+00 -0.45593999997E+02  0.45594000000E+02  0.51100000000E-03 0. -1.
    9900012    2    1    2    0    0 -0.17601890721E+02  0.29046667019E+01  0.26428336316E+02  0.59301943392E+02  0.49999998840E+02 0.  0.
         12    1    1    2    0    0  0.17601890721E+02 -0.29046667019E+01 -0.26428336316E+02  0.31886056608E+02  0.00000000000E+00 0. -1.
         11    1    3    3    0    0 -0.13970853233E+02 -0.70277946036E+01  0.78949799728E+01  0.17518714168E+02  0.51100000000E-03 0. -1.
        -11    1    3    3    0    0  0.10797831151E+02  0.26244594371E+01 -0.58232187721E+01  0.12545549890E+02  0.51100000000E-03 0.  1.
        -12    1    3    3    0    0 -0.14428868639E+02  0.73080018685E+01  0.24356575115E+02  0.29237679334E+02  0.00000000000E+00 0.  1.
</event>
<event>
 7    1  0.4237994E-013  0.5930194E+02  0.7816164E-02  0.1266605E+00
        -11   -1    0    0    0    0  0.00000000000E+00  0.00000000000E+00  0.45593999997E+02  0.45594000000E+02  0.51100000000E-03 0. -1.
         11   -1    0    0    0    0 -0.00000000000E+00 -0.00000000000E+00 -0.45593999997E+02  0.45594000000E+02  0.51100000000E-03 0.  1.
    9900012    2    1    2    0    0  0.47870879973E+01  0.29840554163E+02  0.10165924124E+02  0.59301938821E+02  0.49999990503E+02 0.  0.
         12    1    1    2    0    0 -0.47870879973E+01 -0.29840554163E+02 -0.10165924124E+02  0.31886061179E+02  0.00000000000E+00 0. -1.
         11    1    3    3    0    0  0.62057250026E+01 -0.70015697419E+01  0.18094288833E+02  0.20369985034E+02  0.51100000000E-03 0. -1.
        -11    1    3    3    0    0 -0.46571491020E+01  0.20428011644E+02 -0.14890591720E+01  0.21004999285E+02  0.51100000000E-03 0.  1.
         12    1    3    3    0    0  0.32385120967E+01  0.16414112261E+02 -0.64393055364E+01  0.17926954501E+02  0.00000000000E+00 0. -1.
</event>
<event>
 7    1  0.4237994E-013  0.5930202E+02  0.7816164E-02  0.1266604E+00
        -11   -1    0    0    0    0  0.00000000000E+00  0.00000000000E+00  0.45593999997E+02  0.45594000000E+02  0.51100000000E-03 0.  1.
         11   -1    0    0    0    0 -0.00000000000E+00 -0.00000000000E+00 -0.45593999997E+02  0.45594000000E+02  0.51100000000E-03 0. -1.
    9900012    2    1    2    0    0  0.30484906081E+01 -0.29657694859E+02  0.11306779166E+02  0.59302024800E+02  0.50000147309E+02 0.  0.
         12    1    1    2    0    0 -0.30484906081E+01  0.29657694859E+02 -0.11306779166E+02  0.31885975200E+02  0.00000000000E+00 0. -1.
         11    1    3    3    0    0 -0.80309800262E+01 -0.30028383196E+02 -0.88297157327E+01  0.32313531496E+02  0.51100000000E-03 0. -1.
        -11    1    3    3    0    0 -0.14490653082E+01 -0.44559598155E+00  0.11847176093E+02  0.11943781967E+02  0.51100000000E-03 0.  1.
         12    1    3    3    0    0  0.12528535942E+02  0.81628431845E+00  0.82893188054E+01  0.15044711337E+02  0.00000000000E+00 0. -1.
</event>
<event>
 7    1  0.4237994E-013  0.5930191E+02  0.7816164E-02  0.1266605E+00
        -11   -1    0    0    0    0  0.00000000000E+00  0.00000000000E+00  0.45593999997E+02  0.45594000000E+02  0.51100000000E-03 0.  1.
         11   -1    0    0    0    0 -0.00000000000E+00 -0.00000000000E+00 -0.45593999997E+02  0.45594000000E+02  0.51100000000E-03 0. -1.
    9900012    2    1    2    0    0 -0.13772404374E+02  0.57956466451E+01  0.28168315831E+02  0.59301911199E+02  0.49999940128E+02 0.  0.
         12    1    1    2    0    0  0.13772404374E+02 -0.57956466451E+01 -0.28168315831E+02  0.31886088801E+02  0.00000000000E+00 0. -1.
         11    1    3    3    0    0 -0.24108603736E+02  0.57082338826E+01 -0.37505731975E+01  0.25057444157E+02  0.51100000000E-03 0. -1.
        -11    1    3    3    0    0  0.32625676294E+01  0.75878626134E+00  0.20668303130E+02  0.20937976471E+02  0.51100000000E-03 0.  1.
         12    1    3    3    0    0  0.70736317326E+01 -0.67137349887E+00  0.11250585898E+02  0.13306490571E+02  0.00000000000E+00 0. -1.
</event>
<event>
 7    1  0.4237994E-013  0.5930193E+02  0.7816164E-02  0.1266605E+00
        -11   -1    0    0    0    0  0.00000000000E+00  0.00000000000E+00  0.45593999997E+02  0.45594000000E+02  0.51100000000E-03 0. -1.
         11   -1    0    0    0    0 -0.00000000000E+00 -0.00000000000E+00 -0.45593999997E+02  0.45594000000E+02  0.51100000000E-03 0.  1.
    9900012    2    1    2    0    0  0.19939894372E+02  0.22968405313E+02  0.95694373000E+01  0.59301934698E+02  0.49999982985E+02 0.  0.
         12    1    1    2    0    0 -0.19939894372E+02 -0.22968405313E+02 -0.95694373000E+01  0.31886065302E+02  0.00000000000E+00 0. -1.
         11    1    3    3    0    0  0.12673999084E+02 -0.86483198801E+01 -0.91852626134E+01  0.17882749763E+02  0.51100000000E-03 0. -1.
        -11    1    3    3    0    0 -0.45607089286E+01  0.19301475922E+02  0.93573100320E+01  0.21929575691E+02  0.51100000000E-03 0.  1.
         12    1    3    3    0    0  0.11826604217E+02  0.12315249272E+02  0.93973898814E+01  0.19489609245E+02  0.00000000000E+00 0. -1.
</event>
<event>
 7    1  0.4237994E-013  0.5930199E+02  0.7816164E-02  0.1266605E+00
        -11   -1    0    0    0    0  0.00000000000E+00  0.00000000000E+00  0.45593999997E+02  0.45594000000E+02  0.51100000000E-03 0.  1.
         11   -1    0    0    0    0 -0.00000000000E+00 -0.00000000000E+00 -0.45593999997E+02  0.45594000000E+02  0.51100000000E-03 0. -1.
    9900012    2    1    2    0    0 -0.61046956230E+01  0.29771497152E+02  0.96492704219E+01  0.59301987848E+02  0.50000079917E+02 0.  0.
         12    1    1    2    0    0  0.61046956230E+01 -0.29771497152E+02 -0.96492704219E+01  0.31886012152E+02  0.00000000000E+00 0. -1.
         11    1    3    3    0    0 -0.23043741272E+02  0.16213780844E+02 -0.57312388489E+01  0.28753222429E+02  0.51100000000E-03 0. -1.
        -11    1    3    3    0    0  0.18544128965E+02  0.79502895368E+01  0.13991334996E+02  0.24552989187E+02  0.51100000000E-03 0.  1.
         12    1    3    3    0    0 -0.16050833162E+01  0.56074267711E+01  0.13891742746E+01  0.59957762308E+01  0.00000000000E+00 0. -1.
</event>
<event>
 7    1  0.4237994E-013  0.5930190E+02  0.7816164E-02  0.1266605E+00
        -11   -1    0    0    0    0  0.00000000000E+00  0.00000000000E+00  0.45593999997E+02  0.45594000000E+02  0.51100000000E-03 0.  1.
         11   -1    0    0    0    0 -0.00000000000E+00 -0.00000000000E+00 -0.45593999997E+02  0.45594000000E+02  0.51100000000E-03 0. -1.
    9900012    2    1    2    0    0  0.16866254378E+02  0.26079359627E+02 -0.72194028316E+01  0.59301900951E+02  0.49999921439E+02 0.  0.
         12    1    1    2    0    0 -0.16866254378E+02 -0.26079359627E+02  0.72194028316E+01  0.31886099049E+02  0.00000000000E+00 0. -1.
         11    1    3    3    0    0 -0.28811114516E+01 -0.95286346205E+01  0.63353167512E+01  0.11799657602E+02  0.51100000000E-03 0. -1.
        -11    1    3    3    0    0  0.15023250454E+01  0.23671305353E+02 -0.66953040917E+01  0.24645786147E+02  0.51100000000E-03 0.  1.
         12    1    3    3    0    0  0.18245040784E+02  0.11936688895E+02 -0.68594154910E+01  0.22856457203E+02  0.00000000000E+00 0. -1.
</event>
<event>
 7    1  0.4237994E-013  0.5930194E+02  0.7816164E-02  0.1266605E+00
        -11   -1    0    0    0    0  0.00000000000E+00  0.00000000000E+00  0.45593999997E+02  0.45594000000E+02  0.51100000000E-03 0.  1.
         11   -1    0    0    0    0 -0.00000000000E+00 -0.00000000000E+00 -0.45593999997E+02  0.45594000000E+02  0.51100000000E-03 0. -1.
    9900012    2    1    2    0    0  0.33258852984E+01  0.22033825852E+02  0.22807227799E+02  0.59301942944E+02  0.49999998023E+02 0.  0.
         12    1    1    2    0    0 -0.33258852984E+01 -0.22033825852E+02 -0.22807227799E+02  0.31886057056E+02  0.00000000000E+00 0. -1.
         11    1    3    3    0    0  0.65108914951E+01 -0.14171750810E+02  0.96070546377E+01  0.18317361386E+02  0.51100000000E-03 0. -1.
        -11    1    3    3    0    0  0.48235682876E+01  0.21137091789E+02  0.62943595083E+01  0.22575704246E+02  0.51100000000E-03 0.  1.
         12    1    3    3    0    0 -0.80085744842E+01  0.15068484874E+02  0.69058136535E+01  0.18408877312E+02  0.00000000000E+00 0. -1.
</event>
<event>
 7    1  0.4237994E-013  0.5930196E+02  0.7816164E-02  0.1266605E+00
        -11   -1    0    0    0    0  0.00000000000E+00  0.00000000000E+00  0.45593999997E+02  0.45594000000E+02  0.51100000000E-03 0. -1.
         11   -1    0    0    0    0 -0.00000000000E+00 -0.00000000000E+00 -0.45593999997E+02  0.45594000000E+02  0.51100000000E-03 0.  1.
    9900012    2    1    2    0    0  0.31152010235E+02 -0.12726696014E+01 -0.66822312348E+01  0.59301958479E+02  0.50000026356E+02 0.  0.
         12    1    1    2    0    0 -0.31152010235E+02  0.12726696014E+01  0.66822312348E+01  0.31886041521E+02  0.00000000000E+00 0. -1.
         11    1    3    3    0    0  0.26598966225E+02  0.11086414751E+02  0.15559779990E+02  0.32749356480E+02  0.51100000000E-03 0. -1.
        -11    1    3    3    0    0  0.28927411363E+01 -0.10577673129E+01 -0.46685153287E+01  0.55930187382E+01  0.51100000000E-03 0.  1.
         12    1    3    3    0    0  0.16603028736E+01 -0.11301317039E+02 -0.17573495896E+02  0.20959583261E+02  0.00000000000E+00 0. -1.
</event>
<event>
 7    1  0.4237994E-013  0.5930196E+02  0.7816164E-02  0.1266605E+00
        -11   -1    0    0    0    0  0.00000000000E+00  0.00000000000E+00  0.45593999997E+02  0.45594000000E+02  0.51100000000E-03 0.  1.
         11   -1    0    0    0    0 -0.00000000000E+00 -0.00000000000E+00 -0.45593999997E+02  0.45594000000E+02  0.51100000000E-03 0. -1.
    9900012    2    1    2    0    0 -0.14093394170E+02 -0.45502342480E+01  0.28238118273E+02  0.59301957371E+02  0.50000024335E+02 0.  0.
         12    1    1    2    0    0  0.14093394170E+02  0.45502342480E+01 -0.28238118273E+02  0.31886042629E+02  0.00000000000E+00 0. -1.
         11    1    3    3    0    0  0.49144915559E+01 -0.11620135012E+02 -0.29716469227E+01  0.12961884533E+02  0.51100000000E-03 0.  1.
        -11    1    3    3    0    0 -0.17245249198E+02  0.11407667264E+02  0.72254208674E+01  0.21902972384E+02  0.51100000000E-03 0. -1.
        -12    1    3    3    0    0 -0.17626365279E+01 -0.43377664997E+01  0.23984344328E+02  0.24437100454E+02  0.00000000000E+00 0.  1.
</event>
<event>
 7    1  0.4237994E-013  0.5930194E+02  0.7816164E-02  0.1266605E+00
        -11   -1    0    0    0    0  0.00000000000E+00  0.00000000000E+00  0.45593999997E+02  0.45594000000E+02  0.51100000000E-03 0.  1.
         11   -1    0    0    0    0 -0.00000000000E+00 -0.00000000000E+00 -0.45593999997E+02  0.45594000000E+02  0.51100000000E-03 0. -1.
    9900012    2    1    2    0    0 -0.21075828101E+02  0.10071759474E+02  0.21704611046E+02  0.59301937062E+02  0.49999987296E+02 0.  0.
         12    1    1    2    0    0  0.21075828101E+02 -0.10071759474E+02 -0.21704611046E+02  0.31886062938E+02  0.00000000000E+00 0. -1.
         11    1    3    3    0    0  0.46543277217E+01  0.22834352105E+02  0.96197051420E+01  0.25211289731E+02  0.51100000000E-03 0.  1.
        -11    1    3    3    0    0 -0.16090769291E+02 -0.99288886845E+01  0.71992726423E+00  0.18921257422E+02  0.51100000000E-03 0. -1.
        -12    1    3    3    0    0 -0.96393865315E+01 -0.28337039468E+01  0.11364978640E+02  0.15169389910E+02  0.00000000000E+00 0.  1.
</event>
<event>
 7    1  0.4237994E-013  0.5930192E+02  0.7816164E-02  0.1266605E+00
        -11   -1    0    0    0    0  0.00000000000E+00  0.00000000000E+00  0.45593999997E+02  0.45594000000E+02  0.51100000000E-03 0. -1.
         11   -1    0    0    0    0 -0.00000000000E+00 -0.00000000000E+00 -0.45593999997E+02  0.45594000000E+02  0.51100000000E-03 0.  1.
    9900012    2    1    2    0    0 -0.70955301642E+01  0.12701793584E+02 -0.28373221559E+02  0.59301924510E+02  0.49999964404E+02 0.  0.
         12    1    1    2    0    0  0.70955301642E+01 -0.12701793584E+02  0.28373221559E+02  0.31886075490E+02  0.00000000000E+00 0. -1.
         11    1    3    3    0    0  0.46430900036E+00 -0.15793863537E+01  0.84900432937E+01  0.86481720319E+01  0.51100000000E-03 0. -1.
        -11    1    3    3    0    0  0.10191575505E+02  0.36975223680E-01 -0.19586256876E+02  0.22079199195E+02  0.51100000000E-03 0.  1.
        -12    1    3    3    0    0 -0.17751414669E+02  0.14244204714E+02 -0.17277007976E+02  0.28574553283E+02  0.00000000000E+00 0.  1.
</event>
<event>
 7    1  0.4237994E-013  0.5930199E+02  0.7816164E-02  0.1266605E+00
        -11   -1    0    0    0    0  0.00000000000E+00  0.00000000000E+00  0.45593999997E+02  0.45594000000E+02  0.51100000000E-03 0.  1.
         11   -1    0    0    0    0 -0.00000000000E+00 -0.00000000000E+00 -0.45593999997E+02  0.45594000000E+02  0.51100000000E-03 0. -1.
    9900012    2    1    2    0    0 -0.30649249749E+02 -0.16409289057E+01 -0.86399264397E+01  0.59301992305E+02  0.50000088046E+02 0.  0.
         12    1    1    2    0    0  0.30649249749E+02  0.16409289057E+01  0.86399264397E+01  0.31886007695E+02  0.00000000000E+00 0. -1.
         11    1    3    3    0    0 -0.67459526146E+01 -0.37022728708E+00 -0.11671164622E+02  0.13485585965E+02  0.51100000000E-03 0. -1.
        -11    1    3    3    0    0  0.47211558080E+01 -0.12930230285E+02  0.54703512787E+01  0.14812322936E+02  0.51100000000E-03 0.  1.
        -12    1    3    3    0    0 -0.28624452942E+02  0.11659528667E+02 -0.24391130961E+01  0.31004083403E+02  0.00000000000E+00 0.  1.
</event>
<event>
 7    1  0.4237994E-013  0.5930193E+02  0.7816164E-02  0.1266605E+00
        -11   -1    0    0    0    0  0.00000000000E+00  0.00000000000E+00  0.45593999997E+02  0.45594000000E+02  0.51100000000E-03 0.  1.
         11   -1    0    0    0    0 -0.00000000000E+00 -0.00000000000E+00 -0.45593999997E+02  0.45594000000E+02  0.51100000000E-03 0. -1.
    9900012    2    1    2    0    0 -0.14772551571E+02 -0.10946972527E+02  0.26051041969E+02  0.59301932900E+02  0.49999979706E+02 0.  0.
         12    1    1    2    0    0  0.14772551571E+02  0.10946972527E+02 -0.26051041969E+02  0.31886067100E+02  0.00000000000E+00 0. -1.
         11    1    3    3    0    0 -0.16908497622E+02 -0.13756682148E+02 -0.12833676538E+01  0.21835535907E+02  0.51100000000E-03 0. -1.
        -11    1    3    3    0    0  0.70874511483E+01 -0.93881934128E+01  0.17269333164E+02  0.20894975652E+02  0.51100000000E-03 0.  1.
        -12    1    3    3    0    0 -0.49515050970E+01  0.12197903033E+02  0.10065076459E+02  0.16571421341E+02  0.00000000000E+00 0.  1.
</event>
<event>
 7    1  0.4237994E-013  0.5930196E+02  0.7816164E-02  0.1266605E+00
        -11   -1    0    0    0    0  0.00000000000E+00  0.00000000000E+00  0.45593999997E+02  0.45594000000E+02  0.51100000000E-03 0.  1.
         11   -1    0    0    0    0 -0.00000000000E+00 -0.00000000000E+00 -0.45593999997E+02  0.45594000000E+02  0.51100000000E-03 0. -1.
    9900012    2    1    2    0    0 -0.18377735562E+02  0.17949526529E+02  0.18888968709E+02  0.59301955938E+02  0.50000021722E+02 0.  0.
         12    1    1    2    0    0  0.18377735562E+02 -0.17949526529E+02 -0.18888968709E+02  0.31886044062E+02  0.00000000000E+00 0. -1.
         11    1    3    3    0    0  0.42706185042E+01  0.11586169086E+01 -0.12692231546E+02  0.13441477502E+02  0.51100000000E-03 0. -1.
        -11    1    3    3    0    0 -0.50871128855E+01  0.13576617322E+02  0.89624113202E+01  0.17044884052E+02  0.51100000000E-03 0.  1.
         12    1    3    3    0    0 -0.17561241181E+02  0.32142922983E+01  0.22618788935E+02  0.28815594384E+02  0.00000000000E+00 0. -1.
</event>
